 --invoking executable--
/project1/nike/cfour_v2.00beta_May2019xnmol_noLABBASIS/bin/xjoda


   *************************************************************************
         <<<     CCCCCC     CCCCCC   |||     CCCCCC     CCCCCC   >>>
       <<<      CCC        CCC       |||    CCC        CCC         >>>
      <<<      CCC        CCC        |||   CCC        CCC            >>>
    <<<        CCC        CCC        |||   CCC        CCC              >>>
      <<<      CCC        CCC        |||   CCC        CCC            >>>
       <<<      CCC        CCC       |||    CCC        CCC         >>>
         <<<     CCCCCC     CCCCCC   |||     CCCCCC     CCCCCC   >>>
   *************************************************************************

     ****************************************************************
     * CFOUR Coupled-Cluster techniques for Computational Chemistry *
     ****************************************************************
 

   Department of Chemistry                Institut fuer Physikalische Chemie
   University of Texas at Austin          Universitaet Mainz
   Austin, TX  78712, USA                 D-55099 Mainz, Germany
 
                       Version 2.00beta
 
                     wob104                                            
                     Sun Feb  9 23:53:50 EST 2020                      
                     integer*8 version is running
 
********************************************************************************
*                          Input from ZMAT file                                *
********************************************************************************
TITLE                                                                           
Ar                                                                              
                                                                                
*ACES2(CALC=CCSD                                                                
#geometry=FromCRC2016_Re_MicroWave                                              
#COORD=CARTESIAN                                                                
#UNITS=BOHR                                                                     
PRINT=4                                                                         
JODA_PRINT=4                                                                    
INPUT_MRCC=OFF                                                                  
CC_PROG=MRCC                                                                    
FROZEN_CORE=ON                                                                  
#DROPMO=1>19                                                                    
CONTRACTION=GENERAL                                                             
#CONTRACTION=SEGMENTED                                                          
RELATIVISTIC=OFF                                                                
#EXCITE=EOMEE                                                                   
#ESTATE_CONV=5                                                                  
#ESTATE_SYM=2/2/2/2/2/2/2/2                                                     
XFORM_TOL=18                                                                    
SAVE_INTS=ON                                                                    
SCF_EXPORDER=6                                                                  
SCF_EXPSTART=5                                                                  
#SCF_DAMPING=1000                                                               
SCF_EXTRAPOLATION=ON                                                            
SCF_CONV=13                                                                     
SCF_MAXCYC=9999                                                                 
CC_CONV=6                                                                       
CC_MAXCYC=999                                                                   
T3_EXTRAPOL=ON                                                                  
REFERENCE=RHF                                                                   
CHARGE=+0                                                                       
MULT=1                                                                          
ABCDTYPE=STANDARD                                                               
#OCCUPATION=3-2-2-0-1-0-0-0/3-1-1-0-1-0-0-0                                     
MEM=15                                                                          
MEM_UNIT=GB                                                                     
BASIS=SPECIAL)                                                                  
                                                                                
AR:def2-TZVPP                                                                   
                                                                                
********************************************************************************
  @GTFLGS-W, Keyword #geometry not known and is ignored.
  @GTFLGS-W, Keyword #COORD not known and is ignored.
  @GTFLGS-W, Keyword #UNITS not known and is ignored.
  @GTFLGS-W, Keyword #DROPMO not known and is ignored.
  @GTFLGS-W, Keyword #CONTRACTION not known and is ignored.
  @GTFLGS-W, Keyword #EXCITE not known and is ignored.
  @GTFLGS-W, Keyword #ESTATE_CONV not known and is ignored.
  @GTFLGS-W, Keyword #ESTATE_SYM not known and is ignored.
  @GTFLGS-W, Keyword #SCF_DAMPING not known and is ignored.
  @GTFLGS-W, Keyword #OCCUPATION not known and is ignored.
    -------------------------------------------------------------------
                    CFOUR Control Parameters 
    -------------------------------------------------------------------
        External           Internal           Value            Units
          Name               Name
    -------------------------------------------------------------------
       ABCDTYPE             IABCDT         STANDARD     [  0]   ***   
       ANHARMONIC           IANHAR         OFF          [  0]   ***   
       ANH_ALGORIT          IANALG         STANDARD     [  0]   ***   
       ANH_DERIVAT          IANDER         SECOND       [  1]   ***   
       ANH_STEPSIZ          ICUBST             50000          x 10-6  
       ANH_SYMMETR          IANHSM         ABELIAN      [  0]   ***   
       AO_LADDERS           IAOLAD         SINGLEPASS   [  1]   ***   
       BASIS                IBASIS         SPECIAL      [  0]   ***   
       BREIT                IBREIT         OFF          [  0]   ***   
       BRUCK_CONV           IBRTOL          10D-  4             ***   
       BRUECKNER            IBRKNR             OFF      [  0]   ***   
       BUFFERSIZE           IBUFFS            600               ***   
       CACHE_RECS           ICHREC             10               ***   
       CALCLEVEL            ICLLVL           CCSD       [ 10]   ***   
       CCORBOPT             ICCORB             OFF      [  0] x 0.01  
       CC_CONV              ICCCNV          10D-  6             ***   
       CC_EXPORDER          ICCEOR              5               ***   
       CC_EXTRAPOL          ICCEXT             DIIS     [  1]   ***   
       CC_MAXCYC            ICCCYC            999              cycles 
       CC_PROGRAM           ICCPRO         MRCC         [  2]   ***   
       CHARGE               ICHRGE              0               ***   
       CHOLESKY             ICHOLE         OFF          [  0]   ***   
       CIS_CONV             ICISTL              5               ***   
       COMM_SIZE            IPSIZE            ***               ***   
       CONSTANT             ICONST         OLD          [  1]   ***   
       CONTINUUM            ICONTU         NONE         [  0]   ***   
       CONTRACTION          ICNTYP          GENERAL     [  1]   ***   
       COORDINATES          ICOORD         INTERNAL     [  0]   ***   
       CPHF_CONVER          ICPHFT          10D- 16             ***   
       CPHF_MAXCYC          ICPHFC             64              cycles 
       CUBIC                ICUBIC         OFF          [  0]   ***   
       CURVILINEAR          ICURVY            OFF       [  0]   ***   
       DBOC                 IDBOC          OFF          [  0]   ***   
       DCT                  IDCT           OFF          [  0]   ***   
       DERIV_LEV            IDRLVL            ZERO      [  0]   ***   
       DIAG_MRCC            IEOMST          10D-  0             ***   
       DIFF_TYPE            IDIFTY         RELAXED      [  0]   ***   
       DIRECT               IDIRCT         OFF          [  0]   ***   
       DROPMO               IDRPMO      NONE         
       ECP                  IECP           OFF          [  0]   ***   
       EIGENVECTOR          IVEC                1               ***   
       EL_ANHARM            IELANH         OFF          [  0]   ***   
       EOMFOLLOW            IEOMSR         ENERGY       [  0]   ***   
       EOM_MRCC             IMRCCE         NEW          [  1]   ***   
       EOM_NONIT            EOMNON         OFF          [  0]   ***   
       EOM_NSING            IEOMSI          10D-  0             ***   
       EOM_NSTATES          IMRCCD         DAVIDSON     [  0]   ***   
       EOM_NTRIP            IEOMTR          10D-  0             ***   
       EOM_ORDER            IEXORD         ENERGY       [  0]   ***   
       ESTATE_CONV          IEXTOL          10D-  5             ***   
       ESTATE_DIAG          IEXDIG         ITERATIVE    [  0]   ***   
       ESTATE_LOCK          IESLOC         ON           [  1]   ***   
       ESTATE_MAXC          IEXMXC             20               ***   
       ESTATE_PROP          IEXPRP         OFF          [  0]   ***   
       EVAL_HESS            IRECAL              0            # of cyc.
       EXCITATION           IEXCIT              0               ***   
       EXCITE               IEXCIT         NONE         [  0]   ***   
       FCGRADNEW            IFCGNW         OFF          [  0]   ***   
       FC_FIELD             IFINFC              0             x 10-6  
       FD_CALTYPE           IFDCAL         GRADONLY     [  0]   ***   
       FD_PROJECT           IFDPRJ         OFF          [  1]   ***   
       FD_STEPSIZE          IDISFD              0            10-4 bohr
       FD_USEGROUP          IFDGRP         FULL         [  0]   ***   
       FILE_RECSIZ          IFLREC              4096           words  
       FINITE_PERT          IFIPER              0             x 10-6  
       FIXGEOM              IFIXGM         OFF          [  0]   ***   
       FOCK                 IFOCK          AO           [  1]   ***   
       FREQ_ALGORI          IVIALG         STANDARD     [  0]   ***   
       FROZEN_CORE          IFROCO         ON           [  1]   ***   
       FROZEN_VIRT          IFROVI         OFF          [  0]   ***   
       GAMMA_ABCD           IGABCD         STORE        [  0]   ***   
       GAMMA_ABCI           IGABCI         STORE        [  0]   ***   
       GENBAS_1             IGNBS1              0               ***   
       GENBAS_2             IGNBS2              0               ***   
       GENBAS_3             IGNBS3              0               ***   
       GENBAS_4             IGNBS4              0               ***   
       GEO_CONV             ICONTL              5              H/bohr 
       GEO_MAXCYC           IOPTCY             50               ***   
       GEO_MAXSTEP          IMXSTP            300            millibohr
       GEO_METHOD           INR            SINGLE_POINT [  5]   ***   
       GIAO                 IGIAO          OFF          [  1]   ***   
       GIMIC                IGIMIC         OFF          [  0]   ***   
       GRID                 IGRID          OFF          [  0]   ***   
       GRID_ALGO            IGALGO         SERIAL       [  0]   ***   
       GUESS                IGUESS            MOREAD    [  0]   ***   
       HBAR                 IHBAR              OFF      [  0]   ***   
       HESS_TYPE            IHESTP         SCF          [  0]   ***   
       HF2_FILE             IHF2Fl         USE          [  1]   ***   
       HFSTABILITY          ISTABL         OFF          [  0]   ***   
       INCORE               INCORE             OFF      [  0]   ***   
       INPUT_MRCC           IMRCC          OFF          [  0]   ***   
       INTEGRALS            INTTYP             VMOL     [  1]   ***   
       JODA_PRINT           IJPRNT              4               ***   
       LINDEP_TOL           ILINDP              8               ***   
       LINEQ_CONV           IZTACN          10D-  7           cycles  
       LINEQ_EXPOR          ILMAXD              5               ***   
       LINEQ_MAXCY          ILMAXC             50               ***   
       LINEQ_TYPE           ILTYPE         DIIS         [  1]   ***   
       LOCK_ORBOCC          ILOCOC             OFF      [  0]   ***   
       MEMORY_SIZE          IMEMSZ         *********           words  
       MEM_UNIT             IMEMU          GB           [  3]   ***   
       MRCC                 IMRCCC         OFF          [  0]   ***   
       MULTIPLICTY          IMULTP              1               ***   
       NEGEVAL              IDIE             ABORT      [  0]   ***   
       NEWNORM              INEWNO         OFF          [  0]   ***   
       NON-HF               INONHF             OFF      [  0]   ***   
       NTOP_TAMP            ITOPT2             15               ***   
       NUC_MODEL            INUCMO         POINT        [  0]   ***   
       OCCUPATION           IOCCU   ESTIMATED BY SCF 
       OPEN-SHELL           IOPEN          SPIN-ORBITAL [  0]   ***   
       ORBITALS             IORBTP           STANDARD   [  0]   ***   
       PARALLEL             IPARAL         ON           [  1]   ***   
       PARA_INT             IPINTS         ON           [  1]   ***   
       PARA_PRINT           IPPRIN              0               ***   
       PERT_ORB             IPTORB         STANDARD     [  0]   ***   
       POINTS               IGRDFD              0               ***   
       PRINT                IPRNT               4               ***   
       PROPS                IPROPS             OFF      [  0]   ***   
       PROP_INTEGR          IINTYP         INTERNAL     [  0]   ***   
       PSI                  IPSI           OFF          [  0]   ***   
       QUARTIC              IQUART         OFF          [  0]   ***   
       RAMAN_INT            IRAMIN         OFF          [  0]   ***   
       RAMAN_ORB            IRAMRE         UNRELAXED    [  0]   ***   
       RDO                  IRDOFM             OFF      [  0]   ***   
       REFERENCE            IREFNC             RHF      [  0]   ***   
       RELATIVIST           IRELAT         OFF          [  0]   ***   
       RELAX_DENS           IRDENS             OFF      [  0]   ***   
       RESET_FLAGS          IRESET             OFF      [  0]   ***   
       RESTART_CC           ICCRES         OFF          [  0]   ***   
       ROT_EVEC             ROTVEC              0               ***   
       SAVE_INTS            ISVINT              ON      [  1]   ***   
       SCALE_ON             ISTCRT              0               ***   
       SCF_CONV             ISCFCV          10D- 13             ***   
       SCF_DAMPING          IDAMP               0             x 10-3  
       SCF_EXPORDE          IRPPOR              6               ***   
       SCF_EXPSTAR          IRPPLS              5               ***   
       SCF_EXTRAPO          IRPP                ON      [  1]   ***   
       SCF_MAXCYC           ISCFCY            ***              cycles 
       SCF_NOSTOP           ISCFST         OFF          [  0]   ***   
       SCF_PRINT            ISCFPR              0               ***   
       SD_FIELD             IFINSD              0             x 10-6  
       SEQUENCE             ISEQUE         OFF          [  0]   ***   
       SOPERT               IPERSO         OFF          [  0]   ***   
       SPHERICAL            IDFGHI             ON       [  1]   ***   
       SPINORBIT            ISOCAL         OFF          [  0]   ***   
       SPINROTATIO          ISRCON         OFF          [  0]   ***   
       SPIN_FLIP            ISPFLP         OFF          [  0]   ***   
       SPIN_ORBIT           ISPORB         OFF          [  0]   ***   
       SPIN_SCAL            ISCSMP         OFF          [  0]   ***   
       SUBGROUP             ISUBGP         DEFAULT      [  0]   ***   
       SUBGRPAXIS           ISBXYZ         X            [  0]   ***   
       SYMMETRY             ISYM             ON         [  0]   ***   
       SYM_CHECK            ISYMCK         OVERRIDE     [  1]   ***   
       T3_EXTRAPOL          IT3EXT         ON           [  1]   ***   
       TAMP_SUM             IEVERY              5               ***   
       TESTSUITE            ITESTS         OFF          [  0]   ***   
       THERMOCH             ITHERM         OFF          [  0]   ***   
       TOL_CHOLESK          ITOLCH          10D-  4             ***   
       TRANGRAD             IRESRM         OFF          [  0]   ***   
       TRANS_INV            ITRAIN         USE          [  0]   ***   
       TREAT_PERT           ITREAT         SIMULTANEOUS [  0]   ***   
       UIJ_THRESHO          IUIJTH              1               ***   
       UNITS                IUNITS         ANGSTROM     [  0]   ***   
       UNOS                 IUNOS          OFF          [  0]   ***   
       UPDATE_HESS          IHUPDT         ON           [  1]   ***   
       VIBPHASE             ISETPH         STANDARD     [  0]   ***   
       VIBRATION            IVIB              NO        [  0]   ***   
       VIB_ALGORIT          IGEALG         STANDARD     [  0]   ***   
       VNATORB              IVNORB         OFF          [  0]   ***   
       VTRAN                IVTRAN         FULL/PARTIAL [  0]   ***   
       XFIELD               IXEFLD              0             x 10-6  
       XFORM_TOL            IXFTOL          10D- 18             ***   
       YFIELD               IYEFLD              0             x 10-6  
       ZFIELD               IZEFLD              0             x 10-6  
    -------------------------------------------------------------------
   1 entries found in Z-matrix 
   Job Title : TITLE                                                                           
  1  AR        18    39.96238
   39.9623837000
 After translation to center of mass coordinates 
        0.000000000000    0.000000000000    0.000000000000
  Inertia tensor (amu*bohr**2)
    0.00000    0.00000    0.00000
    0.00000    0.00000    0.00000
    0.00000    0.00000    0.00000
    Inertia tensor:
        0.000000000000    0.000000000000    0.000000000000
        0.000000000000    0.000000000000    0.000000000000
        0.000000000000    0.000000000000    0.000000000000
    Principal axis orientation for molecular system: 
        0.000000000000    0.000000000000    0.000000000000
    Diagonalized inertia tensor:
        0.000000000000    0.000000000000    0.000000000000
        0.000000000000    0.000000000000    0.000000000000
        0.000000000000    0.000000000000    0.000000000000
    Eigenvectors of inertia tensor: 
        0.000000000000    0.000000000000   -1.000000000000
        0.000000000000    1.000000000000    0.000000000000
        1.000000000000    0.000000000000    0.000000000000
 factor:   60.1997200000000     
   Rotational constants (in cm-1): 

   Rotational constants (in MHz): 

  @SYMMETRY-I, Handedness of inertial frame: 1.00000
  @SYMMETRY-I, The symmetry group is 3-fold degenerate.
  @SYMMETRY-I, The molecule belongs to a cubic point group.
   Principal axis orientation for molecule:
        0.000000000000    0.000000000000    0.000000000000
   Reflection in plane  3 is a valid symmetry operation.
   Rotation about  3 is a valid symmetry operation 
   Reflection in plane  2 is a valid symmetry operation.
   Rotation about  2 is a valid symmetry operation 
   Reflection in plane  1 is a valid symmetry operation.
   Rotation about  1 is a valid symmetry operation 
   The molecule possesses an inversion center. 
  Symmetry bits:    7   7   1
********************************************************************************
   The full molecular point group is I h .
   The largest Abelian subgroup of the full molecular point group is D2h .
   The computational point group is D2h .
********************************************************************************
  @GTFLGS-W, Keyword #geometry not known and is ignored.
  @GTFLGS-W, Keyword #COORD not known and is ignored.
  @GTFLGS-W, Keyword #UNITS not known and is ignored.
  @GTFLGS-W, Keyword #DROPMO not known and is ignored.
  @GTFLGS-W, Keyword #CONTRACTION not known and is ignored.
  @GTFLGS-W, Keyword #EXCITE not known and is ignored.
  @GTFLGS-W, Keyword #ESTATE_CONV not known and is ignored.
  @GTFLGS-W, Keyword #ESTATE_SYM not known and is ignored.
  @GTFLGS-W, Keyword #SCF_DAMPING not known and is ignored.
  @GTFLGS-W, Keyword #OCCUPATION not known and is ignored.
  There are   5 frozen-core orbitals.
  There are   42 basis functions.
 @GEOPT-W, Archive file not created for single-point calculation.
  @CHECKOUT-I, Total execution time (CPU/WALL):        0.30/       0.33 seconds.
--executable xjoda finished with status     0 in        0.37 seconds (walltime).
 --invoking executable--
/project1/nike/cfour_v2.00beta_May2019xnmol_noLABBASIS/bin/xvmol
Running with 5 threads/proc

********************************************************************************
                   INPUT FROM MOL FILE                                          
********************************************************************************
INTGRL        1    0    1    0    0    0    0    0    0
         *** CFOUR Program System (Release V0.1) *** 
TITLE
    1    3 X  Y   Z   0.10E-08              0    0
   9999.00      3.00
         18.00000000    1    4    1    1    1    1
AR#1   0.000000000000000   0.000000000000000   0.000000000000000
   14    5
   79111.4229980000       5.102932500200000E-004  0.000000000000000E+000
  0.000000000000000E+000  0.000000000000000E+000  0.000000000000000E+000
   11864.7460090000       3.946303698100000E-003  0.000000000000000E+000
  0.000000000000000E+000  0.000000000000000E+000  0.000000000000000E+000
   2700.16429730000       2.030707391000000E-002  0.000000000000000E+000
  0.000000000000000E+000  0.000000000000000E+000  0.000000000000000E+000
   763.959434850000       7.969182521400001E-002  0.000000000000000E+000
  0.000000000000000E+000  0.000000000000000E+000  0.000000000000000E+000
   248.451505610000       0.234206238360000       0.000000000000000E+000
  0.000000000000000E+000  0.000000000000000E+000  0.000000000000000E+000
   88.2835810000000       0.448338494810000       0.000000000000000E+000
  0.000000000000000E+000  0.000000000000000E+000  0.000000000000000E+000
   32.9486070690000       0.364081674000000       0.000000000000000E+000
  0.000000000000000E+000  0.000000000000000E+000  0.000000000000000E+000
   142.553580000000       0.000000000000000E+000  2.638740700100000E-002
  0.000000000000000E+000  0.000000000000000E+000  0.000000000000000E+000
   44.1636880090000       0.000000000000000E+000  0.112264339990000     
  0.000000000000000E+000  0.000000000000000E+000  0.000000000000000E+000
   8.95249950000000       0.000000000000000E+000 -0.261789220010000     
  0.000000000000000E+000  0.000000000000000E+000  0.000000000000000E+000
   4.55469209410000       0.000000000000000E+000  0.000000000000000E+000
   1.30024849980000       0.000000000000000E+000  0.000000000000000E+000
   2.14440790010000       0.000000000000000E+000  0.000000000000000E+000
  0.671972370090000       0.000000000000000E+000  0.000000000000000E+000
  0.607087770040000       0.000000000000000E+000  0.000000000000000E+000
  0.000000000000000E+000   1.00000000000000       0.000000000000000E+000
  0.216514319990000       0.000000000000000E+000  0.000000000000000E+000
  0.000000000000000E+000  0.000000000000000E+000   1.00000000000000     
    9    5
   776.775419980000       2.202800500300000E-003  0.000000000000000E+000
  0.000000000000000E+000  0.000000000000000E+000  0.000000000000000E+000
   183.801070180000       1.769418000800000E-002  0.000000000000000E+000
  0.000000000000000E+000  0.000000000000000E+000  0.000000000000000E+000
   58.6940031750000       8.243129371700000E-002  0.000000000000000E+000
  0.000000000000000E+000  0.000000000000000E+000  0.000000000000000E+000
   21.7015916950000       0.242072788630000       0.000000000000000E+000
  0.000000000000000E+000  0.000000000000000E+000  0.000000000000000E+000
   8.58214896350000       0.422635582510000       0.000000000000000E+000
  0.000000000000000E+000  0.000000000000000E+000  0.000000000000000E+000
   3.49226791610000       0.000000000000000E+000  0.341518060860000     
  0.000000000000000E+000  0.000000000000000E+000  0.000000000000000E+000
   1.26374269980000       0.000000000000000E+000  0.000000000000000E+000
   1.00000000000000       0.000000000000000E+000  0.000000000000000E+000
  0.466078700050000       0.000000000000000E+000  0.000000000000000E+000
  0.000000000000000E+000   1.00000000000000       0.000000000000000E+000
  0.157660030000000       0.000000000000000E+000  0.000000000000000E+000
  0.000000000000000E+000  0.000000000000000E+000   1.00000000000000     
    3    3
  0.412000000000000        1.00000000000000       0.000000000000000E+000
  0.000000000000000E+000
   5.55100000000000       0.000000000000000E+000   1.00000000000000     
  0.000000000000000E+000
   1.23500000000000       0.000000000000000E+000  0.000000000000000E+000
   1.00000000000000     
    1    1
  0.890000000000000        1.00000000000000     
FINISH
                                                                                
********************************************************************************

ONE- AND TWO-ELECTRON INTEGRALS OVER SYMMETRY-ADAPTED AOS ARE CALCULATED.


    BASIS FUNCTION NOT NORMALIZED:
    CENTER (AS ORDERED IN MOL FILE): ?
    ANGULAR MOMENTUM TYPE:           S
    OFFSET WITHIN ANGULAR MOMENTUM:  1
    <CHI|CHI>:                       1.0214113871

    BASIS FUNCTION NOT NORMALIZED:
    CENTER (AS ORDERED IN MOL FILE): ?
    ANGULAR MOMENTUM TYPE:           S
    OFFSET WITHIN ANGULAR MOMENTUM:  2
    <CHI|CHI>:                       0.0439220824

    BASIS FUNCTION NOT NORMALIZED:
    CENTER (AS ORDERED IN MOL FILE): ?
    ANGULAR MOMENTUM TYPE:           S
    OFFSET WITHIN ANGULAR MOMENTUM:  3
    <CHI|CHI>:                       3.7170926994

    BASIS FUNCTION NOT NORMALIZED:
    CENTER (AS ORDERED IN MOL FILE): ?
    ANGULAR MOMENTUM TYPE:           P
    OFFSET WITHIN ANGULAR MOMENTUM:  1
    <CHI|CHI>:                       0.4634794420

    BASIS FUNCTION NOT NORMALIZED:
    CENTER (AS ORDERED IN MOL FILE): ?
    ANGULAR MOMENTUM TYPE:           P
    OFFSET WITHIN ANGULAR MOMENTUM:  2
    <CHI|CHI>:                       0.1166345859
CARTESIAN GAUSSIANS ARE USED.

1 TYPES OF ATOMS
3 SYMMETRY OPERATIONS

REFLECTION IN THE YZ-PLANE
REFLECTION IN THE XZ-PLANE
REFLECTION IN THE XY-PLANE

INTEGRALS LESS THAN 1e-14 ARE NEGLECTED.

ATOMIC TYPE NUMBER 1:
---------------------

    NUCLEAR CHARGE:                       18
    NUMBER OF SYMMETRY INDEPENDENT ATOMS: 1
    HIGHEST ORBITAL TYPE:                 F

    1 GROUPS OF CGTOS OF S TYPE
    1 GROUPS OF CGTOS OF P TYPE
    1 GROUPS OF CGTOS OF D TYPE
    1 GROUPS OF CGTOS OF F TYPE

    NUCLEAR COORDINATES (IN A.U.) ARE:

    AR#1   0.000000000000000   0.000000000000000   0.000000000000000

INTERNUCLEAR DISTANCES (A):

    FOR ATOM AR#1 (COORDINATES:   0.00000   0.00000   0.00000)


GROUP MULTIPLICATION TABLE:

    1 2 3 4 5 6 7 8
    2 1 4 3 6 5 8 7
    3 4 1 2 7 8 5 6
    4 3 2 1 8 7 6 5
    5 6 7 8 1 2 3 4
    6 5 8 7 2 1 4 3
    7 8 5 6 3 4 1 2
    8 7 6 5 4 3 2 1

GAUSSIAN BASIS INFORMATION:

ATOM                EXPONENT       COEFFICIENTS

AR#1  1  S   
                  1   79111.422998   1.6974968   0.0000000   0.0000000   0.0000000   0.0000000
                  2   11864.746009   3.1636912   0.0000000   0.0000000   0.0000000   0.0000000
                  3    2700.164297   5.3641355   0.0000000   0.0000000   0.0000000   0.0000000
                  4     763.959435   8.1663172   0.0000000   0.0000000   0.0000000   0.0000000
                  5     248.451506  10.3356889   0.0000000   0.0000000   0.0000000   0.0000000
                  6      88.283581   9.1059598   0.0000000   0.0000000   0.0000000   0.0000000
                  7      32.948607   3.5309076   0.0000000   0.0000000   0.0000000   0.0000000
                  8     142.553580   0.0000000   3.7021068   0.0000000   0.0000000   0.0000000
                  9      44.163688   0.0000000   6.5404775   0.0000000   0.0000000   0.0000000
                 10       8.952500   0.0000000  -4.6076408   0.0000000   0.0000000   0.0000000
                 11       4.554692   0.0000000   0.0000000   1.4985769   0.0000000   0.0000000
                 12       2.144408   0.0000000   0.0000000   0.4401902   0.0000000   0.0000000
                 13       0.607088   0.0000000   0.0000000   0.0000000   0.4901722   0.0000000
                 14       0.216514   0.0000000   0.0000000   0.0000000   0.0000000   0.2262169

AR#1  1  X   
                 15     776.775420  18.9133892   0.0000000   0.0000000   0.0000000   0.0000000
                 16     183.801070  25.0720783   0.0000000   0.0000000   0.0000000   0.0000000
                 17      58.694003  28.0387811   0.0000000   0.0000000   0.0000000   0.0000000
                 18      21.701592  23.7402511   0.0000000   0.0000000   0.0000000   0.0000000
                 19       8.582149  12.9982824   0.0000000   0.0000000   0.0000000   0.0000000
                 20       3.492268   0.0000000   6.8049436   0.0000000   0.0000000   0.0000000
                 21       1.263743   0.0000000   0.0000000   1.9099122   0.0000000   0.0000000
                 22       0.466079   0.0000000   0.0000000   0.0000000   0.5489265   0.0000000
                 23       0.157660   0.0000000   0.0000000   0.0000000   0.0000000   0.1416094

AR#1  1  Y   
                 24     776.775420  18.9133892   0.0000000   0.0000000   0.0000000   0.0000000
                 25     183.801070  25.0720783   0.0000000   0.0000000   0.0000000   0.0000000
                 26      58.694003  28.0387811   0.0000000   0.0000000   0.0000000   0.0000000
                 27      21.701592  23.7402511   0.0000000   0.0000000   0.0000000   0.0000000
                 28       8.582149  12.9982824   0.0000000   0.0000000   0.0000000   0.0000000
                 29       3.492268   0.0000000   6.8049436   0.0000000   0.0000000   0.0000000
                 30       1.263743   0.0000000   0.0000000   1.9099122   0.0000000   0.0000000
                 31       0.466079   0.0000000   0.0000000   0.0000000   0.5489265   0.0000000
                 32       0.157660   0.0000000   0.0000000   0.0000000   0.0000000   0.1416094

AR#1  1  Z   
                 33     776.775420  18.9133892   0.0000000   0.0000000   0.0000000   0.0000000
                 34     183.801070  25.0720783   0.0000000   0.0000000   0.0000000   0.0000000
                 35      58.694003  28.0387811   0.0000000   0.0000000   0.0000000   0.0000000
                 36      21.701592  23.7402511   0.0000000   0.0000000   0.0000000   0.0000000
                 37       8.582149  12.9982824   0.0000000   0.0000000   0.0000000   0.0000000
                 38       3.492268   0.0000000   6.8049436   0.0000000   0.0000000   0.0000000
                 39       1.263743   0.0000000   0.0000000   1.9099122   0.0000000   0.0000000
                 40       0.466079   0.0000000   0.0000000   0.0000000   0.5489265   0.0000000
                 41       0.157660   0.0000000   0.0000000   0.0000000   0.0000000   0.1416094

AR#1  1  XX  
                 42       0.412000   0.6040046   0.0000000   0.0000000
                 43       5.551000   0.0000000  57.2294710   0.0000000
                 44       1.235000   0.0000000   0.0000000   4.1246515

AR#1  1  XY  
                 45       0.412000   0.6040046   0.0000000   0.0000000
                 46       5.551000   0.0000000  57.2294710   0.0000000
                 47       1.235000   0.0000000   0.0000000   4.1246515

AR#1  1  XZ  
                 48       0.412000   0.6040046   0.0000000   0.0000000
                 49       5.551000   0.0000000  57.2294710   0.0000000
                 50       1.235000   0.0000000   0.0000000   4.1246515

AR#1  1  YY  
                 51       0.412000   0.6040046   0.0000000   0.0000000
                 52       5.551000   0.0000000  57.2294710   0.0000000
                 53       1.235000   0.0000000   0.0000000   4.1246515

AR#1  1  YZ  
                 54       0.412000   0.6040046   0.0000000   0.0000000
                 55       5.551000   0.0000000  57.2294710   0.0000000
                 56       1.235000   0.0000000   0.0000000   4.1246515

AR#1  1  ZZ  
                 57       0.412000   0.6040046   0.0000000   0.0000000
                 58       5.551000   0.0000000  57.2294710   0.0000000
                 59       1.235000   0.0000000   0.0000000   4.1246515

AR#1  1  F300
                 60       0.890000   4.3865956

AR#1  1  F210
                 61       0.890000   4.3865956

AR#1  1  F201
                 62       0.890000   4.3865956

AR#1  1  F120
                 63       0.890000   4.3865956

AR#1  1  F111
                 64       0.890000   4.3865956

AR#1  1  F102
                 65       0.890000   4.3865956

AR#1  1  F030
                 66       0.890000   4.3865956

AR#1  1  F021
                 67       0.890000   4.3865956

AR#1  1  F012
                 68       0.890000   4.3865956

AR#1  1  F003
                 69       0.890000   4.3865956

SYMMETRY TRANSFORMATION INTO 42 SYMMETRY-ADAPTED BASIS FUNCTIONS

    IRREDUCIBLE REPRESENTATION NUMBER 1

    1    1 AR#1 S      1   1.0
    2    2 AR#1 S      2   1.0
    3    3 AR#1 S      3   1.0
    4    4 AR#1 S      4   1.0
    5    5 AR#1 S      5   1.0
    6    6 AR#1 XX    21  -1.0  30  -1.0  36   2.0
    7    7 AR#1 XX    22  -1.0  31  -1.0  37   2.0
    8    8 AR#1 XX    23  -1.0  32  -1.0  38   2.0
    9    9 AR#1 YY    21   1.0  30  -1.0
   10   10 AR#1 YY    22   1.0  31  -1.0
   11   11 AR#1 YY    23   1.0  32  -1.0
   12   12 AR#1 ZZ     6   1.0
   13   13 AR#1 ZZ     7   1.0
   14   14 AR#1 ZZ     8   1.0

    IRREDUCIBLE REPRESENTATION NUMBER 2

   15    1 AR#1 X      9   1.0
   16    2 AR#1 X     10   1.0
   17    3 AR#1 X     39  -1.0  42  -1.0  44   4.0
   18    4 AR#1 X     39   1.0  42  -3.0
   19    5 AR#1 X     11   1.0
   20    6 AR#1 F300  12   1.0
   21    7 AR#1 F120  13   1.0
   22    8 AR#1 F102  14   1.0

    IRREDUCIBLE REPRESENTATION NUMBER 3

   23    1 AR#1 Y     15   1.0
   24    2 AR#1 Y     40  -1.0  45  -1.0  47   4.0
   25    3 AR#1 Y     40   3.0  45  -1.0
   26    4 AR#1 Y     24   1.0
   27    5 AR#1 Y     25   1.0
   28    6 AR#1 F210  26   1.0
   29    7 AR#1 F030  16   1.0
   30    8 AR#1 F012  17   1.0

    IRREDUCIBLE REPRESENTATION NUMBER 4

   31    1 AR#1 XY    18   1.0
   32    2 AR#1 XY    19   1.0
   33    3 AR#1 XY    20   1.0

    IRREDUCIBLE REPRESENTATION NUMBER 5

   34    1 AR#1 Z     41  -3.0  46  -3.0  48   2.0
   35    2 AR#1 Z     41   1.0  46  -1.0
   36    3 AR#1 Z     27   1.0
   37    4 AR#1 Z     28   1.0
   38    5 AR#1 Z     29   1.0
   39    6 AR#1 F201  33   1.0
   40    7 AR#1 F021  34   1.0
   41    8 AR#1 F003  35   1.0

    IRREDUCIBLE REPRESENTATION NUMBER 6

   42    1 AR#1 XZ    43   1.0
   43    2 AR#1 XZ  
   44    3 AR#1 XZ  

    IRREDUCIBLE REPRESENTATION NUMBER 7

   45    1 AR#1 YZ  
   46    2 AR#1 YZ  
   47    3 AR#1 YZ  

    IRREDUCIBLE REPRESENTATION NUMBER 8

   48    1 AR#1 F111

NUCLEAR REPULSION ENERGY:    0.0000000000 A.U.

One-electron integrals took 0.005429 seconds

  @TWOEL-I,       2121 INTEGRALS OF SYMMETRY TYPE  I I I I
  @TWOEL-I,      13368 INTEGRALS OF SYMMETRY TYPE  I J I J
  @TWOEL-I,       8889 INTEGRALS OF SYMMETRY TYPE  I I J J
  @TWOEL-I,      20990 INTEGRALS OF SYMMETRY TYPE  I J K L
  @TWOEL-I, TOTAL NUMBER OF 2-E INTEGRALS      45368

Two-electron integrals took 0.161976 seconds

Nuclear repulsion energy: 0.000000000000
--executable xvmol finished with status     0 in        0.55 seconds (walltime).
 --invoking executable--
/project1/nike/cfour_v2.00beta_May2019xnmol_noLABBASIS/bin/xvmol2ja
--executable xvmol2ja finished with status     0 in        0.02 seconds (walltime).
 --invoking executable--
/project1/nike/cfour_v2.00beta_May2019xnmol_noLABBASIS/bin/xvscf
  There are   42 functions in the AO basis.

  There are 8 irreducible representations.

       Irrep        # of functions
         1                 11
         2                  7
         3                  7
         4                  3
         5                  7
         6                  3
         7                  3
         8                  1


  Parameters for SCF calculation: 
        SCF reference function:  RHF  
  Maximum number of iterations: 9999
     Full symmetry point group: I h 
     Computational point group: D2h 
        Initial density matrix: MOREAD                 
     SCF convergence tolerance: 10**(-13)
  DIIS convergence acceleration:  ON
          Latest start for DIIS:   5
                     DIIS order:   6

  Memory information:     114997 words required.
  Fock matrices are constructed from AO integral file.
 @GETMEM-I,  Allocated       0 MB of main memory.
  Initialization and symmetry analysis required      0.002 seconds.

  @INITGES-I, Occupancies from core Hamiltonian:

          Alpha population by irrep:   3    2    2    0    2    0    0    0
           Beta population by irrep:   3    2    2    0    2    0    0    0


 total no. of electrons in initial guess :  0.000000000000000E+000
  --------------------------------------------------------------------
  Iteration         Total Energy            Largest Density Difference
  --------------------------------------------------------------------
       0             0.000000000000000              0.0000000000D+00
   current occupation vector 
     3  2  2  0  2  0  0  0
     3  2  2  0  2  0  0  0
  processed                   2121  ao basis integrals from 
                     4  buffers.
  processed                   8889  ao basis integrals from 
                    15  buffers.
  processed                  13368  ao basis integrals from 
                    23  buffers.
       1          -467.749497680056152              0.3063451661D+01
   current occupation vector 
     3  2  2  0  2  0  0  0
     3  2  2  0  2  0  0  0
  processed                   2121  ao basis integrals from 
                     4  buffers.
  processed                   8889  ao basis integrals from 
                    15  buffers.
  processed                  13368  ao basis integrals from 
                    23  buffers.
       2          -512.413792208301516              0.4567752639D+01
   current occupation vector 
     3  2  2  0  2  0  0  0
     3  2  2  0  2  0  0  0
  processed                   2121  ao basis integrals from 
                     4  buffers.
  processed                   8889  ao basis integrals from 
                    15  buffers.
  processed                  13368  ao basis integrals from 
                    23  buffers.
       3          -524.000481160831782              0.4541246490D+01
   current occupation vector 
     3  2  2  0  2  0  0  0
     3  2  2  0  2  0  0  0
  processed                   2121  ao basis integrals from 
                     4  buffers.
  processed                   8889  ao basis integrals from 
                    15  buffers.
  processed                  13368  ao basis integrals from 
                    23  buffers.
       4          -526.425212753063988              0.1863388940D+01
   current occupation vector 
     3  2  2  0  2  0  0  0
     3  2  2  0  2  0  0  0
 
 sum over diagonal and offdiagdiagonal of C(T)*S*C for irrep
                     1
  1.176836406102666E-014  2.580807872073491E-015
 reorthoganalization of MOs is carried out
 sum over diagonal and offdiagdiagonal of C(T)*S*C for irrep
                     1
 -8.881784197001252E-016 -2.686450207562898E-015
 
 sum over diagonal and offdiagdiagonal of C(T)*S*C for irrep
                     2
  1.076916333886402E-014 -7.273440940993852E-015
 reorthoganalization of MOs is carried out
 sum over diagonal and offdiagdiagonal of C(T)*S*C for irrep
                     2
 -4.440892098500626E-016  5.576456094152017E-016
 
 sum over diagonal and offdiagdiagonal of C(T)*S*C for irrep
                     3
  1.387778780781446E-014 -5.858948354772199E-015
 reorthoganalization of MOs is carried out
 sum over diagonal and offdiagdiagonal of C(T)*S*C for irrep
                     3
  2.220446049250313E-016 -5.917759698930106E-017
 
 sum over diagonal and offdiagdiagonal of C(T)*S*C for irrep
                     4
 -3.663735981263017E-015  5.821731985378165E-015
 reorthoganalization of MOs is carried out
 sum over diagonal and offdiagdiagonal of C(T)*S*C for irrep
                     4
  2.220446049250313E-016  5.551115123125783E-017
 
 sum over diagonal and offdiagdiagonal of C(T)*S*C for irrep
                     5
 -1.110223024625157E-016  1.285144964421347E-015
 reorthoganalization of MOs is carried out
 sum over diagonal and offdiagdiagonal of C(T)*S*C for irrep
                     5
  2.220446049250313E-016 -6.341925435162549E-016
 
 sum over diagonal and offdiagdiagonal of C(T)*S*C for irrep
                     6
  3.552713678800501E-015  7.278899705198683E-015
 reorthoganalization of MOs is carried out
 sum over diagonal and offdiagdiagonal of C(T)*S*C for irrep
                     6
 -5.551115123125783E-016 -2.081668171172169E-017
 
 sum over diagonal and offdiagdiagonal of C(T)*S*C for irrep
                     7
  3.996802888650564E-015  7.605027718682322E-015
 reorthoganalization of MOs is carried out
 sum over diagonal and offdiagdiagonal of C(T)*S*C for irrep
                     7
 -1.110223024625157E-016 -1.387778780781446E-017
 
 sum over diagonal and offdiagdiagonal of C(T)*S*C for irrep
                     8
  0.000000000000000E+000  0.000000000000000E+000
 reorthoganalization of MOs is carried out
 sum over diagonal and offdiagdiagonal of C(T)*S*C for irrep
                     8
  0.000000000000000E+000  0.000000000000000E+000
  processed                   2121  ao basis integrals from 
                     4  buffers.
  processed                   8889  ao basis integrals from 
                    15  buffers.
  processed                  13368  ao basis integrals from 
                    23  buffers.
       5          -526.767618964402800              0.6309001166D+00
   current occupation vector 
     3  2  2  0  2  0  0  0
     3  2  2  0  2  0  0  0
  processed                   2121  ao basis integrals from 
                     4  buffers.
  processed                   8889  ao basis integrals from 
                    15  buffers.
  processed                  13368  ao basis integrals from 
                    23  buffers.
       6          -526.802750958958995              0.1795010956D+00
   current occupation vector 
     3  2  2  0  2  0  0  0
     3  2  2  0  2  0  0  0
  processed                   2121  ao basis integrals from 
                     4  buffers.
  processed                   8889  ao basis integrals from 
                    15  buffers.
  processed                  13368  ao basis integrals from 
                    23  buffers.
       7          -526.802759962827622              0.6212320164D-02
   current occupation vector 
     3  2  2  0  2  0  0  0
     3  2  2  0  2  0  0  0
  processed                   2121  ao basis integrals from 
                     4  buffers.
  processed                   8889  ao basis integrals from 
                    15  buffers.
  processed                  13368  ao basis integrals from 
                    23  buffers.
       8          -526.802760325061740              0.3319022887D-03
   current occupation vector 
     3  2  2  0  2  0  0  0
     3  2  2  0  2  0  0  0
  processed                   2121  ao basis integrals from 
                     4  buffers.
  processed                   8889  ao basis integrals from 
                    15  buffers.
  processed                  13368  ao basis integrals from 
                    23  buffers.
       9          -526.802760332509820              0.2392722718D-03
   current occupation vector 
     3  2  2  0  2  0  0  0
     3  2  2  0  2  0  0  0
 
 sum over diagonal and offdiagdiagonal of C(T)*S*C for irrep
                     1
  1.487698852997710E-014  2.102759198290391E-014
 reorthoganalization of MOs is carried out
 sum over diagonal and offdiagdiagonal of C(T)*S*C for irrep
                     1
 -1.110223024625157E-015 -3.243176847969200E-015
 
 sum over diagonal and offdiagdiagonal of C(T)*S*C for irrep
                     2
  1.210143096841421E-014 -6.084437139611142E-015
 reorthoganalization of MOs is carried out
 sum over diagonal and offdiagdiagonal of C(T)*S*C for irrep
                     2
 -1.110223024625157E-015 -8.512640235302271E-016
 
 sum over diagonal and offdiagdiagonal of C(T)*S*C for irrep
                     3
  7.327471962526033E-015 -3.221678438879257E-015
 reorthoganalization of MOs is carried out
 sum over diagonal and offdiagdiagonal of C(T)*S*C for irrep
                     3
 -9.992007221626409E-016  6.135264396581412E-016
 
 sum over diagonal and offdiagdiagonal of C(T)*S*C for irrep
                     4
  2.220446049250313E-016  6.036837696399289E-015
 reorthoganalization of MOs is carried out
 sum over diagonal and offdiagdiagonal of C(T)*S*C for irrep
                     4
  0.000000000000000E+000 -2.012279232133096E-016
 
 sum over diagonal and offdiagdiagonal of C(T)*S*C for irrep
                     5
 -2.442490654175344E-015  9.302021154089506E-016
 reorthoganalization of MOs is carried out
 sum over diagonal and offdiagdiagonal of C(T)*S*C for irrep
                     5
 -6.661338147750939E-016 -6.019158313123852E-016
 
 sum over diagonal and offdiagdiagonal of C(T)*S*C for irrep
                     6
  1.776356839400250E-015  7.910339050454240E-015
 reorthoganalization of MOs is carried out
 sum over diagonal and offdiagdiagonal of C(T)*S*C for irrep
                     6
  1.110223024625157E-016 -6.210310043996969E-016
 
 sum over diagonal and offdiagdiagonal of C(T)*S*C for irrep
                     7
  1.998401444325282E-015  7.941564073021823E-015
 reorthoganalization of MOs is carried out
 sum over diagonal and offdiagdiagonal of C(T)*S*C for irrep
                     7
 -1.110223024625157E-016  1.006139616066548E-016
 
 sum over diagonal and offdiagdiagonal of C(T)*S*C for irrep
                     8
  0.000000000000000E+000  0.000000000000000E+000
 reorthoganalization of MOs is carried out
 sum over diagonal and offdiagdiagonal of C(T)*S*C for irrep
                     8
  0.000000000000000E+000  0.000000000000000E+000
  processed                   2121  ao basis integrals from 
                     4  buffers.
  processed                   8889  ao basis integrals from 
                    15  buffers.
  processed                  13368  ao basis integrals from 
                    23  buffers.
      10          -526.802760332525963              0.1057011434D-04
   current occupation vector 
     3  2  2  0  2  0  0  0
     3  2  2  0  2  0  0  0
  processed                   2121  ao basis integrals from 
                     4  buffers.
  processed                   8889  ao basis integrals from 
                    15  buffers.
  processed                  13368  ao basis integrals from 
                    23  buffers.
      11          -526.802760332525736              0.1835142657D-06
   current occupation vector 
     3  2  2  0  2  0  0  0
     3  2  2  0  2  0  0  0
  processed                   2121  ao basis integrals from 
                     4  buffers.
  processed                   8889  ao basis integrals from 
                    15  buffers.
  processed                  13368  ao basis integrals from 
                    23  buffers.
      12          -526.802760332526759              0.6840811717D-07
   current occupation vector 
     3  2  2  0  2  0  0  0
     3  2  2  0  2  0  0  0
  processed                   2121  ao basis integrals from 
                     4  buffers.
  processed                   8889  ao basis integrals from 
                    15  buffers.
  processed                  13368  ao basis integrals from 
                    23  buffers.
      13          -526.802760332526304              0.7312325301D-08
   current occupation vector 
     3  2  2  0  2  0  0  0
     3  2  2  0  2  0  0  0
  processed                   2121  ao basis integrals from 
                     4  buffers.
  processed                   8889  ao basis integrals from 
                    15  buffers.
  processed                  13368  ao basis integrals from 
                    23  buffers.
      14          -526.802760332526304              0.6945310993D-10
   current occupation vector 
     3  2  2  0  2  0  0  0
     3  2  2  0  2  0  0  0
 
 sum over diagonal and offdiagdiagonal of C(T)*S*C for irrep
                     1
  3.774758283725532E-015  1.854396512505120E-014
 reorthoganalization of MOs is carried out
 sum over diagonal and offdiagdiagonal of C(T)*S*C for irrep
                     1
 -4.440892098500626E-016 -1.499338987403314E-015
 
 sum over diagonal and offdiagdiagonal of C(T)*S*C for irrep
                     2
  1.221245327087672E-014 -6.569051625822075E-015
 reorthoganalization of MOs is carried out
 sum over diagonal and offdiagdiagonal of C(T)*S*C for irrep
                     2
 -7.771561172376096E-016  1.222410844439300E-015
 
 sum over diagonal and offdiagdiagonal of C(T)*S*C for irrep
                     3
  1.054711873393899E-014 -5.238836348361875E-015
 reorthoganalization of MOs is carried out
 sum over diagonal and offdiagdiagonal of C(T)*S*C for irrep
                     3
  1.554312234475219E-015 -2.616576253613881E-015
 
 sum over diagonal and offdiagdiagonal of C(T)*S*C for irrep
                     4
  4.440892098500626E-016  5.283967707825354E-015
 reorthoganalization of MOs is carried out
 sum over diagonal and offdiagdiagonal of C(T)*S*C for irrep
                     4
 -6.661338147750939E-016  3.816391647148976E-016
 
 sum over diagonal and offdiagdiagonal of C(T)*S*C for irrep
                     5
  1.054711873393899E-014  2.001906042697206E-015
 reorthoganalization of MOs is carried out
 sum over diagonal and offdiagdiagonal of C(T)*S*C for irrep
                     5
 -4.440892098500626E-016 -3.748345254539060E-016
 
 sum over diagonal and offdiagdiagonal of C(T)*S*C for irrep
                     6
 -1.332267629550188E-015  8.364836601160164E-015
 reorthoganalization of MOs is carried out
 sum over diagonal and offdiagdiagonal of C(T)*S*C for irrep
                     6
  0.000000000000000E+000  6.591949208711867E-017
 
 sum over diagonal and offdiagdiagonal of C(T)*S*C for irrep
                     7
 -2.886579864025407E-015  8.038708587676524E-015
 reorthoganalization of MOs is carried out
 sum over diagonal and offdiagdiagonal of C(T)*S*C for irrep
                     7
  1.110223024625157E-016 -1.040834085586084E-016
 
 sum over diagonal and offdiagdiagonal of C(T)*S*C for irrep
                     8
  0.000000000000000E+000  0.000000000000000E+000
 reorthoganalization of MOs is carried out
 sum over diagonal and offdiagdiagonal of C(T)*S*C for irrep
                     8
  0.000000000000000E+000  0.000000000000000E+000
  processed                   2121  ao basis integrals from 
                     4  buffers.
  processed                   8889  ao basis integrals from 
                    15  buffers.
  processed                  13368  ao basis integrals from 
                    23  buffers.
      15          -526.802760332526418              0.8853695554D-11
   current occupation vector 
     3  2  2  0  2  0  0  0
     3  2  2  0  2  0  0  0
  processed                   2121  ao basis integrals from 
                     4  buffers.
  processed                   8889  ao basis integrals from 
                    15  buffers.
  processed                  13368  ao basis integrals from 
                    23  buffers.
      16          -526.802760332526191              0.1087907542D-11
   current occupation vector 
     3  2  2  0  2  0  0  0
     3  2  2  0  2  0  0  0
  processed                   2121  ao basis integrals from 
                     4  buffers.
  processed                   8889  ao basis integrals from 
                    15  buffers.
  processed                  13368  ao basis integrals from 
                    23  buffers.
      17          -526.802760332526532              0.3219646771D-12
   current occupation vector 
     3  2  2  0  2  0  0  0
     3  2  2  0  2  0  0  0

  SCF has converged.

 Density matrix saved to file den.dat
 total electron number:   18.0000000000000     
  processed                   2121  ao basis integrals from 
                     4  buffers.
  processed                   8889  ao basis integrals from 
                    15  buffers.
  processed                  13368  ao basis integrals from 
                    23  buffers.
     E(SCF)=      -526.802760332525850              0.4085620731D-13

 @PUTMOS-I, Writing converged MOs to NEWMOS. 
 @PUTMOS-I, Symmetry   1 Full Blocks  2 Partial Blocksize   3
 @PUTMOS-I, Symmetry   2 Full Blocks  1 Partial Blocksize   3
 @PUTMOS-I, Symmetry   3 Full Blocks  1 Partial Blocksize   3
 @PUTMOS-I, Symmetry   4 Full Blocks  0 Partial Blocksize   3
 @PUTMOS-I, Symmetry   5 Full Blocks  1 Partial Blocksize   3
 @PUTMOS-I, Symmetry   6 Full Blocks  0 Partial Blocksize   3
 @PUTMOS-I, Symmetry   7 Full Blocks  0 Partial Blocksize   3
 @PUTMOS-I, Symmetry   8 Full Blocks  0 Partial Blocksize   1
--------------------------------------------------------------------------------
Eigenvalue   -118.607431    -12.321971     -9.571209     -9.571209     -9.571209
 Symmetry          Ag            Ag           T1u           T1u           T1u    
--------------------------------------------------------------------------------
   1 S         1.0007193     0.2964813     0.0000000     0.0000000     0.0000000
   1 S        -0.0306891     0.2064564     0.0000000     0.0000000     0.0000000
   1 S        -0.0073172    -0.8477618     0.0000000     0.0000000     0.0000000
   1 S         0.0019979    -0.0150923     0.0000000     0.0000000     0.0000000
   1 S        -0.0008307     0.0013715     0.0000000     0.0000000     0.0000000
   1 PX        0.0000000     0.0000000     0.0000000     0.7044141     0.0000000
   1 PY        0.0000000     0.0000000     0.0000000     0.0000000     0.7044141
   1 PZ        0.0000000     0.0000000     0.7044141     0.0000000     0.0000000
   1 PX        0.0000000     0.0000000     0.0000000     0.3527835     0.0000000
   1 PY        0.0000000     0.0000000     0.0000000     0.0000000     0.3527835
   1 PZ        0.0000000     0.0000000     0.3527835     0.0000000     0.0000000
   1 PX        0.0000000     0.0000000     0.0000000     0.0618288     0.0000000
   1 PY        0.0000000     0.0000000     0.0000000     0.0000000     0.0618288
   1 PZ        0.0000000     0.0000000     0.0618288     0.0000000     0.0000000
   1 PX        0.0000000     0.0000000     0.0000000    -0.0049707     0.0000000
   1 PY        0.0000000     0.0000000     0.0000000     0.0000000    -0.0049707
   1 PZ        0.0000000     0.0000000    -0.0049707     0.0000000     0.0000000
   1 PX        0.0000000     0.0000000     0.0000000     0.0016498     0.0000000
   1 PY        0.0000000     0.0000000     0.0000000     0.0000000     0.0016498
   1 PZ        0.0000000     0.0000000     0.0016498     0.0000000     0.0000000
   1 DX2       0.0000000     0.0000000     0.0000000     0.0000000     0.0000000
   1 DXY       0.0000000     0.0000000     0.0000000     0.0000000     0.0000000
   1 DXZ       0.0000000     0.0000000     0.0000000     0.0000000     0.0000000
   1 DY2       0.0000000     0.0000000     0.0000000     0.0000000     0.0000000
   1 DYZ       0.0000000     0.0000000     0.0000000     0.0000000     0.0000000
   1 DZZ       0.0000000     0.0000000     0.0000000     0.0000000     0.0000000
   1 DX2       0.0000000     0.0000000     0.0000000     0.0000000     0.0000000
   1 DXY       0.0000000     0.0000000     0.0000000     0.0000000     0.0000000
   1 DXZ       0.0000000     0.0000000     0.0000000     0.0000000     0.0000000
   1 DY2       0.0000000     0.0000000     0.0000000     0.0000000     0.0000000
   1 DYZ       0.0000000     0.0000000     0.0000000     0.0000000     0.0000000
   1 DZZ       0.0000000     0.0000000     0.0000000     0.0000000     0.0000000
   1 DX2       0.0000000     0.0000000     0.0000000     0.0000000     0.0000000
   1 DXY       0.0000000     0.0000000     0.0000000     0.0000000     0.0000000
   1 DXZ       0.0000000     0.0000000     0.0000000     0.0000000     0.0000000
   1 DY2       0.0000000     0.0000000     0.0000000     0.0000000     0.0000000
   1 DYZ       0.0000000     0.0000000     0.0000000     0.0000000     0.0000000
   1 DZZ       0.0000000     0.0000000     0.0000000     0.0000000     0.0000000
   1 FX3       0.0000000     0.0000000     0.0000000     0.0000000     0.0000000
   1 FX2Y      0.0000000     0.0000000     0.0000000     0.0000000     0.0000000
   1 FX2Z      0.0000000     0.0000000     0.0000000     0.0000000     0.0000000
   1 FXY2      0.0000000     0.0000000     0.0000000     0.0000000     0.0000000
   1 FXYZ      0.0000000     0.0000000     0.0000000     0.0000000     0.0000000
   1 FXZ2      0.0000000     0.0000000     0.0000000     0.0000000     0.0000000
   1 FY3       0.0000000     0.0000000     0.0000000     0.0000000     0.0000000
   1 FY2Z      0.0000000     0.0000000     0.0000000     0.0000000     0.0000000
   1 FYZ2      0.0000000     0.0000000     0.0000000     0.0000000     0.0000000
   1 FZ3       0.0000000     0.0000000     0.0000000     0.0000000     0.0000000
--------------------------------------------------------------------------------
Eigenvalue     -1.276554     -0.589916     -0.589916     -0.589916      0.565788
 Symmetry          Ag           T1u           T1u           T1u           T1u    
--------------------------------------------------------------------------------
   1 S         0.0931892     0.0000000     0.0000000     0.0000000     0.0000000
   1 S         0.0734890     0.0000000     0.0000000     0.0000000     0.0000000
   1 S        -0.5386105     0.0000000     0.0000000     0.0000000     0.0000000
   1 S         0.7173899     0.0000000     0.0000000     0.0000000     0.0000000
   1 S         0.4955057     0.0000000     0.0000000     0.0000000     0.0000000
   1 PX        0.0000000     0.0000000     0.0000000     0.2128758     0.0000000
   1 PY        0.0000000     0.0000000     0.2128758     0.0000000     0.0000000
   1 PZ        0.0000000     0.2128758     0.0000000     0.0000000     0.1528733
   1 PX        0.0000000     0.0000000     0.0000000     0.1098912     0.0000000
   1 PY        0.0000000     0.0000000     0.1098912     0.0000000     0.0000000
   1 PZ        0.0000000     0.1098912     0.0000000     0.0000000     0.0254944
   1 PX        0.0000000     0.0000000     0.0000000    -0.2730746     0.0000000
   1 PY        0.0000000     0.0000000    -0.2730746     0.0000000     0.0000000
   1 PZ        0.0000000    -0.2730746     0.0000000     0.0000000    -0.0130667
   1 PX        0.0000000     0.0000000     0.0000000    -0.5663994     0.0000000
   1 PY        0.0000000     0.0000000    -0.5663994     0.0000000     0.0000000
   1 PZ        0.0000000    -0.5663994     0.0000000     0.0000000    -1.1471690
   1 PX        0.0000000     0.0000000     0.0000000    -0.3378652     0.0000000
   1 PY        0.0000000     0.0000000    -0.3378652     0.0000000     0.0000000
   1 PZ        0.0000000    -0.3378652     0.0000000     0.0000000     1.3852990
   1 DX2       0.0000000     0.0000000     0.0000000     0.0000000     0.0000000
   1 DXY       0.0000000     0.0000000     0.0000000     0.0000000     0.0000000
   1 DXZ       0.0000000     0.0000000     0.0000000     0.0000000     0.0000000
   1 DY2       0.0000000     0.0000000     0.0000000     0.0000000     0.0000000
   1 DYZ       0.0000000     0.0000000     0.0000000     0.0000000     0.0000000
   1 DZZ       0.0000000     0.0000000     0.0000000     0.0000000     0.0000000
   1 DX2       0.0000000     0.0000000     0.0000000     0.0000000     0.0000000
   1 DXY       0.0000000     0.0000000     0.0000000     0.0000000     0.0000000
   1 DXZ       0.0000000     0.0000000     0.0000000     0.0000000     0.0000000
   1 DY2       0.0000000     0.0000000     0.0000000     0.0000000     0.0000000
   1 DYZ       0.0000000     0.0000000     0.0000000     0.0000000     0.0000000
   1 DZZ       0.0000000     0.0000000     0.0000000     0.0000000     0.0000000
   1 DX2       0.0000000     0.0000000     0.0000000     0.0000000     0.0000000
   1 DXY       0.0000000     0.0000000     0.0000000     0.0000000     0.0000000
   1 DXZ       0.0000000     0.0000000     0.0000000     0.0000000     0.0000000
   1 DY2       0.0000000     0.0000000     0.0000000     0.0000000     0.0000000
   1 DYZ       0.0000000     0.0000000     0.0000000     0.0000000     0.0000000
   1 DZZ       0.0000000     0.0000000     0.0000000     0.0000000     0.0000000
   1 FX3       0.0000000     0.0000000     0.0000000     0.0000000     0.0000000
   1 FX2Y      0.0000000     0.0000000     0.0000000     0.0000000     0.0000000
   1 FX2Z      0.0000000     0.0000000     0.0000000     0.0000000     0.0000000
   1 FXY2      0.0000000     0.0000000     0.0000000     0.0000000     0.0000000
   1 FXYZ      0.0000000     0.0000000     0.0000000     0.0000000     0.0000000
   1 FXZ2      0.0000000     0.0000000     0.0000000     0.0000000     0.0000000
   1 FY3       0.0000000     0.0000000     0.0000000     0.0000000     0.0000000
   1 FY2Z      0.0000000     0.0000000     0.0000000     0.0000000     0.0000000
   1 FYZ2      0.0000000     0.0000000     0.0000000     0.0000000     0.0000000
   1 FZ3       0.0000000     0.0000000     0.0000000     0.0000000     0.0000000
--------------------------------------------------------------------------------
Eigenvalue      0.565788      0.565788      0.692808      0.692808      0.692808
 Symmetry         T1u           T1u            Hg            Hg            Hg    
--------------------------------------------------------------------------------
   1 S         0.0000000     0.0000000     0.0000000     0.0000000     0.0000000
   1 S         0.0000000     0.0000000     0.0000000     0.0000000     0.0000000
   1 S         0.0000000     0.0000000     0.0000000     0.0000000     0.0000000
   1 S         0.0000000     0.0000000     0.0000000     0.0000000     0.0000000
   1 S         0.0000000     0.0000000     0.0000000     0.0000000     0.0000000
   1 PX        0.1528733     0.0000000     0.0000000     0.0000000     0.0000000
   1 PY        0.0000000     0.1528733     0.0000000     0.0000000     0.0000000
   1 PZ        0.0000000     0.0000000     0.0000000     0.0000000     0.0000000
   1 PX        0.0254944     0.0000000     0.0000000     0.0000000     0.0000000
   1 PY        0.0000000     0.0254944     0.0000000     0.0000000     0.0000000
   1 PZ        0.0000000     0.0000000     0.0000000     0.0000000     0.0000000
   1 PX       -0.0130667     0.0000000     0.0000000     0.0000000     0.0000000
   1 PY        0.0000000    -0.0130667     0.0000000     0.0000000     0.0000000
   1 PZ        0.0000000     0.0000000     0.0000000     0.0000000     0.0000000
   1 PX       -1.1471690     0.0000000     0.0000000     0.0000000     0.0000000
   1 PY        0.0000000    -1.1471690     0.0000000     0.0000000     0.0000000
   1 PZ        0.0000000     0.0000000     0.0000000     0.0000000     0.0000000
   1 PX        1.3852990     0.0000000     0.0000000     0.0000000     0.0000000
   1 PY        0.0000000     1.3852990     0.0000000     0.0000000     0.0000000
   1 PZ        0.0000000     0.0000000     0.0000000     0.0000000     0.0000000
   1 DX2       0.0000000     0.0000000    -0.2462797     0.4236473     0.0000000
   1 DXY       0.0000000     0.0000000     0.0000000     0.0000000     0.0000000
   1 DXZ       0.0000000     0.0000000     0.0000000     0.0000000     0.8487591
   1 DY2       0.0000000     0.0000000    -0.2437495    -0.4251081     0.0000000
   1 DYZ       0.0000000     0.0000000     0.0000000     0.0000000     0.0000000
   1 DZZ       0.0000000     0.0000000     0.4900291     0.0014608     0.0000000
   1 DX2       0.0000000     0.0000000    -0.0222727     0.0383133     0.0000000
   1 DXY       0.0000000     0.0000000     0.0000000     0.0000000     0.0000000
   1 DXZ       0.0000000     0.0000000     0.0000000     0.0000000     0.0767590
   1 DY2       0.0000000     0.0000000    -0.0220439    -0.0384454     0.0000000
   1 DYZ       0.0000000     0.0000000     0.0000000     0.0000000     0.0000000
   1 DZZ       0.0000000     0.0000000     0.0443166     0.0001321     0.0000000
   1 DX2       0.0000000     0.0000000    -0.0587830     0.1011178     0.0000000
   1 DXY       0.0000000     0.0000000     0.0000000     0.0000000     0.0000000
   1 DXZ       0.0000000     0.0000000     0.0000000     0.0000000     0.2025851
   1 DY2       0.0000000     0.0000000    -0.0581791    -0.1014664     0.0000000
   1 DYZ       0.0000000     0.0000000     0.0000000     0.0000000     0.0000000
   1 DZZ       0.0000000     0.0000000     0.1169620     0.0003487     0.0000000
   1 FX3       0.0000000     0.0000000     0.0000000     0.0000000     0.0000000
   1 FX2Y      0.0000000     0.0000000     0.0000000     0.0000000     0.0000000
   1 FX2Z      0.0000000     0.0000000     0.0000000     0.0000000     0.0000000
   1 FXY2      0.0000000     0.0000000     0.0000000     0.0000000     0.0000000
   1 FXYZ      0.0000000     0.0000000     0.0000000     0.0000000     0.0000000
   1 FXZ2      0.0000000     0.0000000     0.0000000     0.0000000     0.0000000
   1 FY3       0.0000000     0.0000000     0.0000000     0.0000000     0.0000000
   1 FY2Z      0.0000000     0.0000000     0.0000000     0.0000000     0.0000000
   1 FYZ2      0.0000000     0.0000000     0.0000000     0.0000000     0.0000000
   1 FZ3       0.0000000     0.0000000     0.0000000     0.0000000     0.0000000
--------------------------------------------------------------------------------
Eigenvalue      0.692808      0.692808      0.837639      2.364710      2.364710
 Symmetry          Hg            Hg            Ag            Hg            Hg    
--------------------------------------------------------------------------------
   1 S         0.0000000     0.0000000     0.0994415     0.0000000     0.0000000
   1 S         0.0000000     0.0000000     0.0455878     0.0000000     0.0000000
   1 S         0.0000000     0.0000000    -0.6599580     0.0000000     0.0000000
   1 S         0.0000000     0.0000000     2.1606547     0.0000000     0.0000000
   1 S         0.0000000     0.0000000    -1.8572787     0.0000000     0.0000000
   1 PX        0.0000000     0.0000000     0.0000000     0.0000000     0.0000000
   1 PY        0.0000000     0.0000000     0.0000000     0.0000000     0.0000000
   1 PZ        0.0000000     0.0000000     0.0000000     0.0000000     0.0000000
   1 PX        0.0000000     0.0000000     0.0000000     0.0000000     0.0000000
   1 PY        0.0000000     0.0000000     0.0000000     0.0000000     0.0000000
   1 PZ        0.0000000     0.0000000     0.0000000     0.0000000     0.0000000
   1 PX        0.0000000     0.0000000     0.0000000     0.0000000     0.0000000
   1 PY        0.0000000     0.0000000     0.0000000     0.0000000     0.0000000
   1 PZ        0.0000000     0.0000000     0.0000000     0.0000000     0.0000000
   1 PX        0.0000000     0.0000000     0.0000000     0.0000000     0.0000000
   1 PY        0.0000000     0.0000000     0.0000000     0.0000000     0.0000000
   1 PZ        0.0000000     0.0000000     0.0000000     0.0000000     0.0000000
   1 PX        0.0000000     0.0000000     0.0000000     0.0000000     0.0000000
   1 PY        0.0000000     0.0000000     0.0000000     0.0000000     0.0000000
   1 PZ        0.0000000     0.0000000     0.0000000     0.0000000     0.0000000
   1 DX2       0.0000000     0.0000000     0.0000000    -0.4512761    -0.2565733
   1 DXY       0.8487591     0.0000000     0.0000000     0.0000000     0.0000000
   1 DXZ       0.0000000     0.0000000     0.0000000     0.0000000     0.0000000
   1 DY2       0.0000000     0.0000000     0.0000000     0.4478371    -0.2625299
   1 DYZ       0.0000000     0.8487591     0.0000000     0.0000000     0.0000000
   1 DZZ       0.0000000     0.0000000     0.0000000     0.0034390     0.5191032
   1 DX2       0.0000000     0.0000000     0.0000000     0.0825923     0.0469579
   1 DXY       0.0767590     0.0000000     0.0000000     0.0000000     0.0000000
   1 DXZ       0.0000000     0.0000000     0.0000000     0.0000000     0.0000000
   1 DY2       0.0000000     0.0000000     0.0000000    -0.0819629     0.0480481
   1 DYZ       0.0000000     0.0767590     0.0000000     0.0000000     0.0000000
   1 DZZ       0.0000000     0.0000000     0.0000000    -0.0006294    -0.0950060
   1 DX2       0.0000000     0.0000000     0.0000000     0.5648663     0.3211551
   1 DXY       0.2025851     0.0000000     0.0000000     0.0000000     0.0000000
   1 DXZ       0.0000000     0.0000000     0.0000000     0.0000000     0.0000000
   1 DY2       0.0000000     0.0000000     0.0000000    -0.5605616     0.3286110
   1 DYZ       0.0000000     0.2025851     0.0000000     0.0000000     0.0000000
   1 DZZ       0.0000000     0.0000000     0.0000000    -0.0043047    -0.6497661
   1 FX3       0.0000000     0.0000000     0.0000000     0.0000000     0.0000000
   1 FX2Y      0.0000000     0.0000000     0.0000000     0.0000000     0.0000000
   1 FX2Z      0.0000000     0.0000000     0.0000000     0.0000000     0.0000000
   1 FXY2      0.0000000     0.0000000     0.0000000     0.0000000     0.0000000
   1 FXYZ      0.0000000     0.0000000     0.0000000     0.0000000     0.0000000
   1 FXZ2      0.0000000     0.0000000     0.0000000     0.0000000     0.0000000
   1 FY3       0.0000000     0.0000000     0.0000000     0.0000000     0.0000000
   1 FY2Z      0.0000000     0.0000000     0.0000000     0.0000000     0.0000000
   1 FYZ2      0.0000000     0.0000000     0.0000000     0.0000000     0.0000000
   1 FZ3       0.0000000     0.0000000     0.0000000     0.0000000     0.0000000
--------------------------------------------------------------------------------
Eigenvalue      2.364710      2.364710      2.364710      2.924377      2.924377
 Symmetry          Hg            Hg            Hg             u             u    
--------------------------------------------------------------------------------
   1 S         0.0000000     0.0000000     0.0000000     0.0000000     0.0000000
   1 S         0.0000000     0.0000000     0.0000000     0.0000000     0.0000000
   1 S         0.0000000     0.0000000     0.0000000     0.0000000     0.0000000
   1 S         0.0000000     0.0000000     0.0000000     0.0000000     0.0000000
   1 S         0.0000000     0.0000000     0.0000000     0.0000000     0.0000000
   1 PX        0.0000000     0.0000000     0.0000000     0.0000000     0.0000000
   1 PY        0.0000000     0.0000000     0.0000000     0.0000000     0.0000000
   1 PZ        0.0000000     0.0000000     0.0000000     0.0000000     0.0000000
   1 PX        0.0000000     0.0000000     0.0000000     0.0000000     0.0000000
   1 PY        0.0000000     0.0000000     0.0000000     0.0000000     0.0000000
   1 PZ        0.0000000     0.0000000     0.0000000     0.0000000     0.0000000
   1 PX        0.0000000     0.0000000     0.0000000     0.0000000     0.0000000
   1 PY        0.0000000     0.0000000     0.0000000     0.0000000     0.0000000
   1 PZ        0.0000000     0.0000000     0.0000000     0.0000000     0.0000000
   1 PX        0.0000000     0.0000000     0.0000000     0.0000000     0.0000000
   1 PY        0.0000000     0.0000000     0.0000000     0.0000000     0.0000000
   1 PZ        0.0000000     0.0000000     0.0000000     0.0000000     0.0000000
   1 PX        0.0000000     0.0000000     0.0000000     0.0000000     0.0000000
   1 PY        0.0000000     0.0000000     0.0000000     0.0000000     0.0000000
   1 PZ        0.0000000     0.0000000     0.0000000     0.0000000     0.0000000
   1 DX2       0.0000000     0.0000000     0.0000000     0.0000000     0.0000000
   1 DXY       0.0000000     0.0000000     0.8991329     0.0000000     0.0000000
   1 DXZ       0.8991329     0.0000000     0.0000000     0.0000000     0.0000000
   1 DY2       0.0000000     0.0000000     0.0000000     0.0000000     0.0000000
   1 DYZ       0.0000000     0.8991329     0.0000000     0.0000000     0.0000000
   1 DZZ       0.0000000     0.0000000     0.0000000     0.0000000     0.0000000
   1 DX2       0.0000000     0.0000000     0.0000000     0.0000000     0.0000000
   1 DXY       0.0000000     0.0000000    -0.1645588     0.0000000     0.0000000
   1 DXZ      -0.1645588     0.0000000     0.0000000     0.0000000     0.0000000
   1 DY2       0.0000000     0.0000000     0.0000000     0.0000000     0.0000000
   1 DYZ       0.0000000    -0.1645588     0.0000000     0.0000000     0.0000000
   1 DZZ       0.0000000     0.0000000     0.0000000     0.0000000     0.0000000
   1 DX2       0.0000000     0.0000000     0.0000000     0.0000000     0.0000000
   1 DXY       0.0000000     0.0000000    -1.1254526     0.0000000     0.0000000
   1 DXZ      -1.1254526     0.0000000     0.0000000     0.0000000     0.0000000
   1 DY2       0.0000000     0.0000000     0.0000000     0.0000000     0.0000000
   1 DYZ       0.0000000    -1.1254526     0.0000000     0.0000000     0.0000000
   1 DZZ       0.0000000     0.0000000     0.0000000     0.0000000     0.0000000
   1 FX3       0.0000000     0.0000000     0.0000000     0.0000000     0.0000000
   1 FX2Y      0.0000000     0.0000000     0.0000000     0.0000000    -0.3125531
   1 FX2Z      0.0000000     0.0000000     0.0000000    -0.3872983     0.0000000
   1 FXY2      0.0000000     0.0000000     0.0000000     0.0000000     0.0000000
   1 FXYZ      0.0000000     0.0000000     0.0000000     0.0000000     0.0000000
   1 FXZ2      0.0000000     0.0000000     0.0000000     0.0000000     0.0000000
   1 FY3       0.0000000     0.0000000     0.0000000     0.0000000    -0.0993179
   1 FY2Z      0.0000000     0.0000000     0.0000000    -0.3872983     0.0000000
   1 FYZ2      0.0000000     0.0000000     0.0000000     0.0000000     0.6105067
   1 FZ3       0.0000000     0.0000000     0.0000000     0.2581989     0.0000000
--------------------------------------------------------------------------------
Eigenvalue      2.924377      2.924377      2.924377      2.924377      2.924377
 Symmetry           u             u             u             u             u    
--------------------------------------------------------------------------------
   1 S         0.0000000     0.0000000     0.0000000     0.0000000     0.0000000
   1 S         0.0000000     0.0000000     0.0000000     0.0000000     0.0000000
   1 S         0.0000000     0.0000000     0.0000000     0.0000000     0.0000000
   1 S         0.0000000     0.0000000     0.0000000     0.0000000     0.0000000
   1 S         0.0000000     0.0000000     0.0000000     0.0000000     0.0000000
   1 PX        0.0000000     0.0000000     0.0000000     0.0000000     0.0000000
   1 PY        0.0000000     0.0000000     0.0000000     0.0000000     0.0000000
   1 PZ        0.0000000     0.0000000     0.0000000     0.0000000     0.0000000
   1 PX        0.0000000     0.0000000     0.0000000     0.0000000     0.0000000
   1 PY        0.0000000     0.0000000     0.0000000     0.0000000     0.0000000
   1 PZ        0.0000000     0.0000000     0.0000000     0.0000000     0.0000000
   1 PX        0.0000000     0.0000000     0.0000000     0.0000000     0.0000000
   1 PY        0.0000000     0.0000000     0.0000000     0.0000000     0.0000000
   1 PZ        0.0000000     0.0000000     0.0000000     0.0000000     0.0000000
   1 PX        0.0000000     0.0000000     0.0000000     0.0000000     0.0000000
   1 PY        0.0000000     0.0000000     0.0000000     0.0000000     0.0000000
   1 PZ        0.0000000     0.0000000     0.0000000     0.0000000     0.0000000
   1 PX        0.0000000     0.0000000     0.0000000     0.0000000     0.0000000
   1 PY        0.0000000     0.0000000     0.0000000     0.0000000     0.0000000
   1 PZ        0.0000000     0.0000000     0.0000000     0.0000000     0.0000000
   1 DX2       0.0000000     0.0000000     0.0000000     0.0000000     0.0000000
   1 DXY       0.0000000     0.0000000     0.0000000     0.0000000     0.0000000
   1 DXZ       0.0000000     0.0000000     0.0000000     0.0000000     0.0000000
   1 DY2       0.0000000     0.0000000     0.0000000     0.0000000     0.0000000
   1 DYZ       0.0000000     0.0000000     0.0000000     0.0000000     0.0000000
   1 DZZ       0.0000000     0.0000000     0.0000000     0.0000000     0.0000000
   1 DX2       0.0000000     0.0000000     0.0000000     0.0000000     0.0000000
   1 DXY       0.0000000     0.0000000     0.0000000     0.0000000     0.0000000
   1 DXZ       0.0000000     0.0000000     0.0000000     0.0000000     0.0000000
   1 DY2       0.0000000     0.0000000     0.0000000     0.0000000     0.0000000
   1 DYZ       0.0000000     0.0000000     0.0000000     0.0000000     0.0000000
   1 DZZ       0.0000000     0.0000000     0.0000000     0.0000000     0.0000000
   1 DX2       0.0000000     0.0000000     0.0000000     0.0000000     0.0000000
   1 DXY       0.0000000     0.0000000     0.0000000     0.0000000     0.0000000
   1 DXZ       0.0000000     0.0000000     0.0000000     0.0000000     0.0000000
   1 DY2       0.0000000     0.0000000     0.0000000     0.0000000     0.0000000
   1 DYZ       0.0000000     0.0000000     0.0000000     0.0000000     0.0000000
   1 DZZ       0.0000000     0.0000000     0.0000000     0.0000000     0.0000000
   1 FX3       0.0600833     0.0000000    -0.2511109     0.0000000     0.0000000
   1 FX2Y      0.0000000     0.5498278     0.0000000     0.0000000     0.0000000
   1 FX2Z      0.0000000     0.0000000     0.0000000     0.0000000     0.5000000
   1 FXY2     -0.5763991     0.0000000     0.2603154     0.0000000     0.0000000
   1 FXYZ      0.0000000     0.0000000     0.0000000     1.0000000     0.0000000
   1 FXZ2      0.3961491     0.0000000     0.4930171     0.0000000     0.0000000
   1 FY3       0.0000000    -0.2383330     0.0000000     0.0000000     0.0000000
   1 FY2Z      0.0000000     0.0000000     0.0000000     0.0000000    -0.5000000
   1 FYZ2      0.0000000     0.1651713     0.0000000     0.0000000     0.0000000
   1 FZ3       0.0000000     0.0000000     0.0000000     0.0000000     0.0000000
--------------------------------------------------------------------------------
Eigenvalue      2.971817      2.971817      2.971817     10.160395     10.160395
 Symmetry         T1u           T1u           T1u            Hg            Hg    
[...]
    0.021184  3a 4b -> 11a 8b                                           
   -0.019731  3a 4b -> 11a 9b                                           
   -0.028192  4a 3b -> 10a 12b                                          
   -0.028192  3a 4b -> 12a 10b                                          
   -0.018448  1a 2b -> 13a 5b                                           
    0.011582  1a 2b -> 8a 19b                                           
   -0.011534  1a 2b -> 13a 26b                                          
   -0.011759  2a 1b -> 8a 5b                                            
   -0.010184  1a 2b -> 6a 10b                                           
   -0.010184  1a 2b -> 7a 12b                                           
    0.010541  2a 1b -> 20a 12b                                          
   -0.011759  1a 2b -> 5a 8b                                            
    0.011582  2a 1b -> 19a 8b                                           
   -0.018448  2a 1b -> 5a 13b                                           
   -0.011534  2a 1b -> 26a 13b                                          
   -0.010184  2a 1b -> 10a 6b                                           
    0.010541  1a 2b -> 12a 20b                                          
   -0.010184  2a 1b -> 12a 7b                                           
   -0.028172  4a 2b -> 9a 10b                                           
   -0.027679  2a 4b -> 8a 10b                                           
   -0.020807  4a 2b -> 6a 5b                                            
   -0.028192  4a 2b -> 11a 12b                                          
   -0.020807  2a 4b -> 5a 6b                                            
   -0.027679  4a 2b -> 10a 8b                                           
   -0.028172  2a 4b -> 10a 9b                                           
   -0.028192  2a 4b -> 12a 11b                                          
    0.028211  3a 2b -> 9a 12b                                           
   -0.027729  2a 3b -> 8a 12b                                           
   -0.020807  3a 2b -> 7a 5b                                            
   -0.028192  3a 2b -> 11a 10b                                          
   -0.020807  2a 3b -> 5a 7b                                            
   -0.028192  2a 3b -> 10a 11b                                          
   -0.027729  3a 2b -> 12a 8b                                           
    0.028211  2a 3b -> 12a 9b                                           
    0.010410  1a 4a -> 6a 13a                                           
    0.010410  1a 3a -> 7a 13a                                           
    0.015825  3a 4a -> 6a 7a                                            
    0.039587  3a 4a -> 9a 11a                                           
    0.019794  3a 4a -> 10a 12a                                          
    0.010410  1a 2a -> 5a 13a                                           
   -0.015825  2a 4a -> 5a 6a                                            
   -0.034343  2a 4a -> 8a 10a                                           
    0.019691  2a 4a -> 9a 10a                                           
    0.019794  2a 4a -> 11a 12a                                          
   -0.015825  2a 3a -> 5a 7a                                            
   -0.019794  2a 3a -> 10a 11a                                          
   -0.034225  2a 3a -> 8a 12a                                           
   -0.019896  2a 3a -> 9a 12a                                           

 ************************ 2020-02-10 00:16:26 *************************
 Executing goldstone...

 Generation of CC equations in terms of H and T...
 Generation of antisymmetrized Goldstone diagrams...
 Number of diagrams in T^1 equations:    15
 Number of diagrams in T^2 equations:    38
 Number of diagrams in T^3 equations:    54
 Number of diagrams in T^4 equations:    81
 Number of diagrams in T^5 equations:   101
 Number of diagrams in T^6 equations:    14
 Translation of diagrams to factorized equations...
 Optimizing intermediate calculation...
 Number of floating-point operations per iteration step:   2.3129E+12
 Probable CPU time per iteration step (hours):     23.13
 Required memory (Mbytes):    2484.5
 Number of intermediates:                                 163
 Number of intermediates to be stored:                     70
 Length of intermediate file (Mbytes):    2513.4

 ************************ 2020-02-10 00:16:26 *************************
 Executing xmrcc...

 **********************************************************************
 CC(5)(6) calculation 
 
 
 Allocation of2484.5 Mbytes of memory...
 Number of spinorbitals:                    74
 Number of alpha electrons:                        4
 Number of beta electrons:                         4
 Spin multiplicity:                     1
 z-component of spin:  0.0
 Spatial symmetry:                      1
 Convergence criterion:  1.0E-05
 Construction of occupation graphs...
 Number of                     0 -fold excitations:                      1
 Number of                     1 -fold excitations:                     46
 Number of                     2 -fold excitations:                   3116
 Number of                     3 -fold excitations:                 110028
 Number of                     4 -fold excitations:                1986238
 Number of                     5 -fold excitations:               18638268
 Total number of configurations:               20737697
 Calculation of coupling coefficients...
 Length of intermediate file (Mbytes):    1493.1
 
 ======================================================================
 
 Spin case  1   Alpha:  2   Beta:  4
 Number of excitations:               16205760
 Spin case  2   Alpha:  3   Beta:  3
 Number of excitations:               59536864
 Number of                     6 -fold excitations:               91948384
 
 Memory requirements /Mbyte/: 
               Minimal        Optimal
 Real*8:       1816.7199      1816.7199
 Integer:        21.1929
 Total:        1837.9128      1837.9128
 

 ************************ 2020-02-10 00:16:45 *************************
 Executing mrcc...

 **********************************************************************
 CC(5)(6) calculation                                                   
 
 
 OpenMP parallel version is running.
 Number of CPUs:   5
 Allocation of 1816.7 Mbytes of memory...
 Number of spinorbitals:  74
 Number of alpha electrons:  4
 Number of beta  electrons:  4
 Spin multiplicity: 1
 z-component of spin:  0.0
 Spatial symmetry: 1
 Convergence criterion:  1.0E-05
 Construction of occupation graphs...
 Number of 0-fold excitations: 1
 Number of 1-fold excitations: 46
 Number of 2-fold excitations: 3116
 Number of 3-fold excitations: 110028
 Number of 4-fold excitations: 1986238
 Number of 5-fold excitations: 18638268
 Total number of determinants: 20737697
 Calculation of coupling coefficients...
 Initial cluster amplitudes are read from unit 16.
 Length of intermediate file (Mbytes):    1493.1
 Reading integral list from unit 55...
 Sorting integrals...
 Energy of reference determinant [au]:    -526.802760332526
 Calculation of MP denominators...
 
 Starting CC iteration...
 ======================================================================
 Norm of residual vector:     0.00773103
 CPU time [min]:    36.576                   Wall time [min]:     7.816
 
 Iteration  1  CC energy:  -527.03574088  Energy decrease:   7.3032E-10
 ======================================================================
 Norm of residual vector:     0.00130599
 CPU time [min]:    74.321                   Wall time [min]:    15.818
 
 Iteration  2  CC energy:  -527.03574089  Energy decrease:   0.00000001
 ======================================================================
 Norm of residual vector:     0.00026615
 CPU time [min]:   112.091                   Wall time [min]:    23.829
 
 Iteration  3  CC energy:  -527.03574401  Energy decrease:   0.00000312
 ======================================================================
 Norm of residual vector:     0.00005862
 CPU time [min]:   150.006                   Wall time [min]:    31.890
 
 Iteration  4  CC energy:  -527.03574979  Energy decrease:   0.00000578
 ======================================================================
 Norm of residual vector:     0.00001517
 CPU time [min]:   187.900                   Wall time [min]:    39.953
 
 Iteration  5  CC energy:  -527.03575059  Energy decrease:   0.00000080
 ======================================================================
 Norm of residual vector:     0.00000349
 CPU time [min]:   224.889                   Wall time [min]:    47.745
 
 Iteration  6  CC energy:  -527.03575070  Energy decrease:   0.00000011
 ======================================================================
 
 Iteration has converged in  6 steps.
 
 Final results:
 Total CCSDTQP energy [au]:         -527.035750699240
 
 Perturbative corrections are calculated...
 ======================================================================
 Spin case  1   Alpha:  2   Beta:  4
 Number of excitations:        16205760
 CPU time [min]:  1035.899                   Wall time [min]:   217.928
 ======================================================================
 Spin case  2   Alpha:  3   Beta:  3
 Number of excitations:        59536864
 CPU time [min]:  2235.237                   Wall time [min]:   466.436
 ======================================================================
 Number of 6-fold excitations: 91948384
 CPU time [min]:  2237.536                   Wall time [min]:   467.022
 
 Total CC(5)[6] energy [au]:        -527.035750618961
 Total CC(5)(6) energy [au]:        -527.035750860905
 
 Dominant cluster amplitudes
 Printing threshold:  1.00E-02
 
    1.000000  Reference determinant                                     
    0.010410  1b 4b -> 6b 13b                                           
    0.010410  1b 3b -> 7b 13b                                           
    0.015825  3b 4b -> 6b 7b                                            
    0.039591  3b 4b -> 9b 11b                                           
    0.019795  3b 4b -> 10b 12b                                          
    0.010410  1b 2b -> 5b 13b                                           
   -0.015825  2b 4b -> 5b 6b                                            
   -0.034345  2b 4b -> 8b 10b                                           
    0.019693  2b 4b -> 9b 10b                                           
    0.019795  2b 4b -> 11b 12b                                          
   -0.015825  2b 3b -> 5b 7b                                            
   -0.019795  2b 3b -> 10b 11b                                          
   -0.034227  2b 3b -> 8b 12b                                           
   -0.019898  2b 3b -> 9b 12b                                           
   -0.014776  1a 1b -> 8a 8b                                            
   -0.014776  1a 1b -> 9a 9b                                            
   -0.017201  1a 1b -> 13a 13b                                          
   -0.016933  4a 4b -> 8a 8b                                            
    0.021199  4a 4b -> 9a 8b                                            
    0.021199  4a 4b -> 8a 9b                                            
   -0.041075  4a 4b -> 9a 9b                                            
   -0.013198  4a 4b -> 13a 13b                                          
   -0.016681  3a 3b -> 8a 8b                                            
   -0.021054  3a 3b -> 9a 8b                                            
   -0.021054  3a 3b -> 8a 9b                                            
   -0.041327  3a 3b -> 9a 9b                                            
   -0.013198  3a 3b -> 13a 13b                                          
   -0.053399  2a 2b -> 8a 8b                                            
   -0.013198  2a 2b -> 13a 13b                                          
   -0.028933  4a 4b -> 6a 6b                                            
   -0.010089  4a 4b -> 28a 6b                                           
   -0.010089  4a 4b -> 6a 28b                                           
   -0.010591  4a 4b -> 28a 28b                                          
   -0.028933  3a 3b -> 7a 7b                                            
   -0.010089  3a 3b -> 27a 7b                                           
   -0.010089  3a 3b -> 7a 27b                                           
   -0.010591  3a 3b -> 27a 27b                                          
   -0.014776  1a 1b -> 11a 11b                                          
   -0.041201  4a 4b -> 11a 11b                                          
   -0.041201  3a 3b -> 11a 11b                                          
   -0.028933  2a 2b -> 5a 5b                                            
   -0.010089  2a 2b -> 26a 5b                                           
   -0.010089  2a 2b -> 5a 26b                                           
   -0.010591  2a 2b -> 26a 26b                                          
   -0.014776  1a 1b -> 10a 10b                                          
   -0.041201  4a 4b -> 10a 10b                                          
   -0.041201  2a 2b -> 10a 10b                                          
   -0.014776  1a 1b -> 12a 12b                                          
   -0.041201  3a 3b -> 12a 12b                                          
   -0.041201  2a 2b -> 12a 12b                                          
   -0.018448  1a 4b -> 13a 6b                                           
   -0.011534  1a 4b -> 13a 28b                                          
   -0.010167  4a 1b -> 9a 6b                                            
   -0.010167  1a 4b -> 6a 9b                                            
   -0.018448  4a 1b -> 6a 13b                                           
   -0.011534  4a 1b -> 28a 13b                                          
   -0.010184  1a 4b -> 7a 11b                                           
   -0.010184  4a 1b -> 11a 7b                                           
   -0.010184  1a 4b -> 5a 10b                                           
   -0.010184  4a 1b -> 10a 5b                                           
   -0.018448  1a 3b -> 13a 7b                                           
    0.010927  1a 3b -> 9a 22b                                           
   -0.011534  1a 3b -> 13a 27b                                          
    0.010202  3a 1b -> 9a 7b                                            
   -0.010184  1a 3b -> 6a 11b                                           
    0.010202  1a 3b -> 7a 9b                                            
    0.010927  3a 1b -> 22a 9b                                           
   -0.018448  3a 1b -> 7a 13b                                           
   -0.011534  3a 1b -> 27a 13b                                          
   -0.010184  3a 1b -> 11a 6b                                           
   -0.010184  1a 3b -> 5a 12b                                           
   -0.010184  3a 1b -> 12a 5b                                           
    0.021186  4a 3b -> 8a 11b                                           
   -0.019732  4a 3b -> 9a 11b                                           
    0.021068  3a 4b -> 8a 11b                                           
    0.019858  3a 4b -> 9a 11b                                           
   -0.020808  4a 3b -> 6a 7b                                            
   -0.020808  3a 4b -> 7a 6b                                            
    0.021068  4a 3b -> 11a 8b                                           
    0.019858  4a 3b -> 11a 9b                                           
    0.021186  3a 4b -> 11a 8b                                           
   -0.019732  3a 4b -> 11a 9b                                           
   -0.028194  4a 3b -> 10a 12b                                          
   -0.028194  3a 4b -> 12a 10b                                          
   -0.018448  1a 2b -> 13a 5b                                           
    0.011582  1a 2b -> 8a 19b                                           
   -0.011534  1a 2b -> 13a 26b                                          
   -0.011760  2a 1b -> 8a 5b                                            
   -0.010184  1a 2b -> 6a 10b                                           
   -0.010184  1a 2b -> 7a 12b                                           
    0.010541  2a 1b -> 20a 12b                                          
   -0.011760  1a 2b -> 5a 8b                                            
    0.011582  2a 1b -> 19a 8b                                           
   -0.018448  2a 1b -> 5a 13b                                           
   -0.011534  2a 1b -> 26a 13b                                          
   -0.010184  2a 1b -> 10a 6b                                           
    0.010541  1a 2b -> 12a 20b                                          
   -0.010184  2a 1b -> 12a 7b                                           
   -0.028174  4a 2b -> 9a 10b                                           
   -0.027682  2a 4b -> 8a 10b                                           
   -0.020808  4a 2b -> 6a 5b                                            
   -0.028194  4a 2b -> 11a 12b                                          
   -0.020808  2a 4b -> 5a 6b                                            
   -0.027682  4a 2b -> 10a 8b                                           
   -0.028174  2a 4b -> 10a 9b                                           
   -0.028194  2a 4b -> 12a 11b                                          
    0.028214  3a 2b -> 9a 12b                                           
   -0.027732  2a 3b -> 8a 12b                                           
   -0.020808  3a 2b -> 7a 5b                                            
   -0.028194  3a 2b -> 11a 10b                                          
   -0.020808  2a 3b -> 5a 7b                                            
   -0.028194  2a 3b -> 10a 11b                                          
   -0.027732  3a 2b -> 12a 8b                                           
    0.028214  2a 3b -> 12a 9b                                           
    0.010410  1a 4a -> 6a 13a                                           
    0.010410  1a 3a -> 7a 13a                                           
    0.015825  3a 4a -> 6a 7a                                            
    0.039591  3a 4a -> 9a 11a                                           
    0.019795  3a 4a -> 10a 12a                                          
    0.010410  1a 2a -> 5a 13a                                           
   -0.015825  2a 4a -> 5a 6a                                            
   -0.034345  2a 4a -> 8a 10a                                           
    0.019693  2a 4a -> 9a 10a                                           
    0.019795  2a 4a -> 11a 12a                                          
   -0.015825  2a 3a -> 5a 7a                                            
   -0.019795  2a 3a -> 10a 11a                                          
   -0.034227  2a 3a -> 8a 12a                                           
   -0.019898  2a 3a -> 9a 12a                                           
 
 ************************ 2020-02-10 08:03:50 *************************
                      Normal termination of mrcc.
 **********************************************************************
--executable dmrcc finished with status     0 in    29399.00 seconds (walltime).
  The final electronic energy is      -527.035750860904614 a.u. 
  This computation required                        29400.68 seconds (walltime).
--- SharcNET Job Epilogue ---
Job completed successfully.
               jobid: 1927064
               resid: 3398574
         exit status: 0
      allocated time: 29401.7
           user time: 140449
         system time: 304.78
peak rss=7258558464; peak vsz=7258558464 (bytes)
atime=29401.7; utime=140449; stime=304.78; exit=0
