 --invoking executable--
/home/nike/cfour_v2.00beta/bin/xjoda


   *************************************************************************
         <<<     CCCCCC     CCCCCC   |||     CCCCCC     CCCCCC   >>>
       <<<      CCC        CCC       |||    CCC        CCC         >>>
      <<<      CCC        CCC        |||   CCC        CCC            >>>
    <<<        CCC        CCC        |||   CCC        CCC              >>>
      <<<      CCC        CCC        |||   CCC        CCC            >>>
       <<<      CCC        CCC       |||    CCC        CCC         >>>
         <<<     CCCCCC     CCCCCC   |||     CCCCCC     CCCCCC   >>>
   *************************************************************************

     ****************************************************************
     * CFOUR Coupled-Cluster techniques for Computational Chemistry *
     ****************************************************************
 

   Department of Chemistry                Institut fuer Physikalische Chemie
   University of Texas at Austin          Universitaet Mainz
   Austin, TX  78712, USA                 D-55099 Mainz, Germany
 
                       Version 2.00beta
 
                     wob111                                            
                     Tue Jun 12 22:55:00 EDT 2018                      
                     integer*8 version is running
 
********************************************************************************
*                          Input from ZMAT file                                *
********************************************************************************
TITLE                                                                           
N                                                                               
                                                                                
*ACES2(CALC=CCSD                                                                
FROZEN_CORE=ON                                                                  
#DROPMO=1                                                                       
INPUT_MRCC=OFF                                                                  
CC_PROG=MRCC                                                                    
XFORM_TOL=18                                                                    
SAVE_INTS=ON                                                                    
SCF_EXPORDER=6                                                                  
SCF_EXPSTART=5                                                                  
#SCF_DAMPING=1000                                                               
SCF_EXTRAPOLATION=ON                                                            
SCF_CONV=10                                                                     
SCF_MAXCYC=9999                                                                 
CC_CONV=10                                                                      
CC_MAXCYC=999                                                                   
T3_EXTRAPOL=ON                                                                  
REFERENCE=ROHF                                                                  
CHARGE=+1                                                                       
MULT=3                                                                          
ABCDTYPE=STANDARD                                                               
OCCUPATION=2-1-1-0-0-0-0-0/2-0-0-0-0-0-0-0                                      
MEM=32                                                                          
MEM_UNIT=GB                                                                     
BASIS=SPECIAL)                                                                  
                                                                                
N:aVDZ-EMSL                                                                     
                                                                                
********************************************************************************
  @GTFLGS-W, Keyword #DROPMO not known and is ignored.
  @GTFLGS-W, Keyword #SCF_DAMPING not known and is ignored.
    -------------------------------------------------------------------
                    CFOUR Control Parameters 
    -------------------------------------------------------------------
        External           Internal           Value            Units
          Name               Name
    -------------------------------------------------------------------
       ABCDTYPE             IABCDT         STANDARD     [  0]   ***   
       ANHARMONIC           IANHAR         OFF          [  0]   ***   
       ANH_ALGORIT          IANALG         STANDARD     [  0]   ***   
       ANH_DERIVAT          IANDER         SECOND       [  1]   ***   
       ANH_STEPSIZ          ICUBST             50000          x 10-6  
       ANH_SYMMETR          IANHSM         ABELIAN      [  0]   ***   
       AO_LADDERS           IAOLAD         SINGLEPASS   [  1]   ***   
       BASIS                IBASIS         SPECIAL      [  0]   ***   
       BREIT                IBREIT         OFF          [  0]   ***   
       BRUCK_CONV           IBRTOL          10D-  4             ***   
       BRUECKNER            IBRKNR             OFF      [  0]   ***   
       BUFFERSIZE           IBUFFS            600               ***   
       CACHE_RECS           ICHREC             10               ***   
       CALCLEVEL            ICLLVL           CCSD       [ 10]   ***   
       CCORBOPT             ICCORB             OFF      [  0] x 0.01  
       CC_CONV              ICCCNV          10D- 10             ***   
       CC_EXPORDER          ICCEOR              5               ***   
       CC_EXTRAPOL          ICCEXT             DIIS     [  1]   ***   
       CC_MAXCYC            ICCCYC            999              cycles 
       CC_PROGRAM           ICCPRO         MRCC         [  2]   ***   
       CHARGE               ICHRGE              1               ***   
       CHOLESKY             ICHOLE         OFF          [  0]   ***   
       CIS_CONV             ICISTL              5               ***   
       COMM_SIZE            IPSIZE            ***               ***   
       CONSTANT             ICONST         OLD          [  1]   ***   
       CONTINUUM            ICONTU         NONE         [  0]   ***   
       CONTRACTION          ICNTYP          GENERAL     [  1]   ***   
       COORDINATES          ICOORD         INTERNAL     [  0]   ***   
       CPHF_CONVER          ICPHFT          10D- 16             ***   
       CPHF_MAXCYC          ICPHFC             64              cycles 
       CUBIC                ICUBIC         OFF          [  0]   ***   
       CURVILINEAR          ICURVY            OFF       [  0]   ***   
       DBOC                 IDBOC          OFF          [  0]   ***   
       DCT                  IDCT           OFF          [  0]   ***   
       DERIV_LEV            IDRLVL            ZERO      [  0]   ***   
       DIAG_MRCC            IEOMST          10D-  0             ***   
       DIFF_TYPE            IDIFTY         RELAXED      [  0]   ***   
       DIRECT               IDIRCT         OFF          [  0]   ***   
       DROPMO               IDRPMO      NONE         
       ECP                  IECP           OFF          [  0]   ***   
       EIGENVECTOR          IVEC                1               ***   
       EL_ANHARM            IELANH         OFF          [  0]   ***   
       EOMFOLLOW            IEOMSR         ENERGY       [  0]   ***   
       EOM_MRCC             IMRCCE         NEW          [  1]   ***   
       EOM_NONIT            EOMNON         OFF          [  0]   ***   
       EOM_NSING            IEOMSI          10D-  0             ***   
       EOM_NSTATES          IMRCCD         DAVIDSON     [  0]   ***   
       EOM_NTRIP            IEOMTR          10D-  0             ***   
       EOM_ORDER            IEXORD         ENERGY       [  0]   ***   
       ESTATE_CONV          IEXTOL          10D-  5             ***   
       ESTATE_DIAG          IEXDIG         ITERATIVE    [  0]   ***   
       ESTATE_LOCK          IESLOC         ON           [  1]   ***   
       ESTATE_MAXC          IEXMXC             20               ***   
       ESTATE_PROP          IEXPRP         OFF          [  0]   ***   
       EVAL_HESS            IRECAL              0            # of cyc.
       EXCITATION           IEXCIT              0               ***   
       EXCITE               IEXCIT         NONE         [  0]   ***   
       FCGRADNEW            IFCGNW         OFF          [  0]   ***   
       FC_FIELD             IFINFC              0             x 10-6  
       FD_CALTYPE           IFDCAL         GRADONLY     [  0]   ***   
       FD_PROJECT           IFDPRJ         OFF          [  1]   ***   
       FD_STEPSIZE          IDISFD              0            10-4 bohr
       FD_USEGROUP          IFDGRP         FULL         [  0]   ***   
       FILE_RECSIZ          IFLREC              4096           words  
       FINITE_PERT          IFIPER              0             x 10-6  
       FIXGEOM              IFIXGM         OFF          [  0]   ***   
       FOCK                 IFOCK          AO           [  1]   ***   
       FREQ_ALGORI          IVIALG         STANDARD     [  0]   ***   
       FROZEN_CORE          IFROCO         ON           [  1]   ***   
       FROZEN_VIRT          IFROVI         OFF          [  0]   ***   
       GAMMA_ABCD           IGABCD         STORE        [  0]   ***   
       GAMMA_ABCI           IGABCI         STORE        [  0]   ***   
       GENBAS_1             IGNBS1              0               ***   
       GENBAS_2             IGNBS2              0               ***   
       GENBAS_3             IGNBS3              0               ***   
       GENBAS_4             IGNBS4              0               ***   
       GEO_CONV             ICONTL              5              H/bohr 
       GEO_MAXCYC           IOPTCY             50               ***   
       GEO_MAXSTEP          IMXSTP            300            millibohr
       GEO_METHOD           INR            SINGLE_POINT [  5]   ***   
       GIAO                 IGIAO          OFF          [  1]   ***   
       GIMIC                IGIMIC         OFF          [  0]   ***   
       GRID                 IGRID          OFF          [  0]   ***   
       GRID_ALGO            IGALGO         SERIAL       [  0]   ***   
       GUESS                IGUESS            MOREAD    [  0]   ***   
       HBAR                 IHBAR              OFF      [  0]   ***   
       HESS_TYPE            IHESTP         SCF          [  0]   ***   
       HF2_FILE             IHF2Fl         USE          [  1]   ***   
       HFSTABILITY          ISTABL         OFF          [  0]   ***   
       INCORE               INCORE             OFF      [  0]   ***   
       INPUT_MRCC           IMRCC          OFF          [  0]   ***   
       INTEGRALS            INTTYP             VMOL     [  1]   ***   
       JODA_PRINT           IJPRNT              0               ***   
       LINDEP_TOL           ILINDP              8               ***   
       LINEQ_CONV           IZTACN          10D-  7           cycles  
       LINEQ_EXPOR          ILMAXD              5               ***   
       LINEQ_MAXCY          ILMAXC             50               ***   
       LINEQ_TYPE           ILTYPE         DIIS         [  1]   ***   
       LOCK_ORBOCC          ILOCOC             OFF      [  0]   ***   
       MEMORY_SIZE          IMEMSZ         *********           words  
       MEM_UNIT             IMEMU          GB           [  3]   ***   
       MRCC                 IMRCCC         OFF          [  0]   ***   
       MULTIPLICTY          IMULTP              3               ***   
       NEGEVAL              IDIE             ABORT      [  0]   ***   
       NEWNORM              INEWNO         OFF          [  0]   ***   
       NON-HF               INONHF              ON      [  1]   ***   
       NTOP_TAMP            ITOPT2             15               ***   
       NUC_MODEL            INUCMO         POINT        [  0]   ***   
       OCCUPATION           IOCCU  A   2,  1,  1,  0,  0,  0,  0,  0,
                                   B   2,  0,  0,  0,  0,  0,  0,  0,
       OPEN-SHELL           IOPEN          SPIN-ORBITAL [  0]   ***   
       ORBITALS             IORBTP         SEMICANONICAL[  1]   ***   
       PARALLEL             IPARAL         ON           [  1]   ***   
       PARA_INT             IPINTS         ON           [  1]   ***   
       PARA_PRINT           IPPRIN              0               ***   
       PERT_ORB             IPTORB         STANDARD     [  0]   ***   
       POINTS               IGRDFD              0               ***   
       PRINT                IPRNT               0               ***   
       PROPS                IPROPS             OFF      [  0]   ***   
       PROP_INTEGR          IINTYP         INTERNAL     [  0]   ***   
       PSI                  IPSI           OFF          [  0]   ***   
       QUARTIC              IQUART         OFF          [  0]   ***   
       RAMAN_INT            IRAMIN         OFF          [  0]   ***   
       RAMAN_ORB            IRAMRE         UNRELAXED    [  0]   ***   
       RDO                  IRDOFM             OFF      [  0]   ***   
       REFERENCE            IREFNC             ROHF     [  2]   ***   
       RELATIVIST           IRELAT         OFF          [  0]   ***   
       RELAX_DENS           IRDENS             OFF      [  0]   ***   
       RESET_FLAGS          IRESET             OFF      [  0]   ***   
       RESTART_CC           ICCRES         OFF          [  0]   ***   
       ROT_EVEC             ROTVEC              0               ***   
       SAVE_INTS            ISVINT              ON      [  1]   ***   
       SCALE_ON             ISTCRT              0               ***   
       SCF_CONV             ISCFCV          10D- 10             ***   
       SCF_DAMPING          IDAMP               0             x 10-3  
       SCF_EXPORDE          IRPPOR              6               ***   
       SCF_EXPSTAR          IRPPLS              5               ***   
       SCF_EXTRAPO          IRPP                ON      [  1]   ***   
       SCF_MAXCYC           ISCFCY            ***              cycles 
       SCF_NOSTOP           ISCFST         OFF          [  0]   ***   
       SCF_PRINT            ISCFPR              0               ***   
       SD_FIELD             IFINSD              0             x 10-6  
       SEQUENCE             ISEQUE         OFF          [  0]   ***   
       SOPERT               IPERSO         OFF          [  0]   ***   
       SPHERICAL            IDFGHI             ON       [  1]   ***   
       SPINORBIT            ISOCAL         OFF          [  0]   ***   
       SPINROTATIO          ISRCON         OFF          [  0]   ***   
       SPIN_FLIP            ISPFLP         OFF          [  0]   ***   
       SPIN_ORBIT           ISPORB         OFF          [  0]   ***   
       SPIN_SCAL            ISCSMP         OFF          [  0]   ***   
       SUBGROUP             ISUBGP         DEFAULT      [  0]   ***   
       SUBGRPAXIS           ISBXYZ         X            [  0]   ***   
       SYMMETRY             ISYM             ON         [  0]   ***   
       SYM_CHECK            ISYMCK         OVERRIDE     [  1]   ***   
       T3_EXTRAPOL          IT3EXT         ON           [  1]   ***   
       TAMP_SUM             IEVERY              5               ***   
       TESTSUITE            ITESTS         OFF          [  0]   ***   
       THERMOCH             ITHERM         OFF          [  0]   ***   
       TOL_CHOLESK          ITOLCH          10D-  4             ***   
       TRANGRAD             IRESRM         OFF          [  0]   ***   
       TRANS_INV            ITRAIN         USE          [  0]   ***   
       TREAT_PERT           ITREAT         SIMULTANEOUS [  0]   ***   
       UIJ_THRESHO          IUIJTH              1               ***   
       UNITS                IUNITS         ANGSTROM     [  0]   ***   
       UNOS                 IUNOS          OFF          [  0]   ***   
       UPDATE_HESS          IHUPDT         ON           [  1]   ***   
       VIBPHASE             ISETPH         STANDARD     [  0]   ***   
       VIBRATION            IVIB              NO        [  0]   ***   
       VIB_ALGORIT          IGEALG         STANDARD     [  0]   ***   
       VNATORB              IVNORB         OFF          [  0]   ***   
       VTRAN                IVTRAN         FULL/PARTIAL [  0]   ***   
       XFIELD               IXEFLD              0             x 10-6  
       XFORM_TOL            IXFTOL          10D- 18             ***   
       YFIELD               IYEFLD              0             x 10-6  
       ZFIELD               IZEFLD              0             x 10-6  
    -------------------------------------------------------------------
   1 entries found in Z-matrix 
   Job Title : TITLE                                                                           
  1  N          7    14.00307
 factor:   60.1997200000000     
   Rotational constants (in cm-1): 

   Rotational constants (in MHz): 

********************************************************************************
   The full molecular point group is I h .
   The largest Abelian subgroup of the full molecular point group is D2h .
   The computational point group is D2h .
********************************************************************************
  @GTFLGS-W, Keyword #DROPMO not known and is ignored.
  @GTFLGS-W, Keyword #SCF_DAMPING not known and is ignored.
  There is   1 frozen-core orbital.
  There is   1 frozen-core orbital.
  There are   23 basis functions.
 @GEOPT-W, Archive file not created for single-point calculation.
  @CHECKOUT-I, Total execution time (CPU/WALL):        0.25/       0.58 seconds.
--executable xjoda finished with status     0 in        0.61 seconds (walltime).
 --invoking executable--
/home/nike/cfour_v2.00beta/bin/xvmol
 Serial version of molecule started
********************************************************************************
                    Input from MOL file
********************************************************************************
INTGRL        1    0    1    0    0    0    0    0    0                         
         *** CFOUR Program System (Release V0.1) ***                            
TITLE                                                                           
    1    3 X  Y   Z   0.10E-08              0    0                              
   9999.00      3.00                                                            
          7.00000000    1    3    1    1    1                                   
N #1   0.000000000000000   0.000000000000000   0.000000000000000                
   10    4                                                                      
   9046.00000000000       7.000000000000000E-004 -1.530000000000000E-004        
  0.000000000000000E+000  0.000000000000000E+000                                
   1357.00000000000       5.389000000000000E-003 -1.208000000000000E-003        
  0.000000000000000E+000  0.000000000000000E+000                                
   309.300000000000       2.740600000000000E-002 -5.992000000000000E-003        
  0.000000000000000E+000  0.000000000000000E+000                                
   87.7300000000000       0.103207000000000      -2.454400000000000E-002        
  0.000000000000000E+000  0.000000000000000E+000                                
   28.5600000000000       0.278723000000000      -6.745900000000001E-002        
  0.000000000000000E+000  0.000000000000000E+000                                
   10.2100000000000       0.448540000000000      -0.158078000000000             
  0.000000000000000E+000  0.000000000000000E+000                                
   3.83800000000000       0.278238000000000      -0.121831000000000             
  0.000000000000000E+000  0.000000000000000E+000                                
  0.746600000000000       1.544000000000000E-002  0.549003000000000             
  0.000000000000000E+000  0.000000000000000E+000                                
  0.224800000000000      -2.864000000000000E-003  0.578815000000000             
   1.00000000000000       0.000000000000000E+000                                
  6.124000000000000E-002  0.000000000000000E+000  0.000000000000000E+000        
  0.000000000000000E+000   1.00000000000000                                     
    5    3                                                                      
   13.5500000000000       3.991900000000000E-002  0.000000000000000E+000        
  0.000000000000000E+000                                                        
   2.91700000000000       0.217169000000000       0.000000000000000E+000        
  0.000000000000000E+000                                                        
  0.797300000000000       0.510319000000000       0.000000000000000E+000        
  0.000000000000000E+000                                                        
  0.218500000000000       0.462214000000000        1.00000000000000             
  0.000000000000000E+000                                                        
  5.611000000000000E-002  0.000000000000000E+000  0.000000000000000E+000        
   1.00000000000000                                                             
    2    2                                                                      
  0.817000000000000        1.00000000000000       0.000000000000000E+000        
  0.230000000000000       0.000000000000000E+000   1.00000000000000             
FINISH                                                                          
 
********************************************************************************
 One- and two-electron integrals over symmetry-adapted AOs are calculated.

  Spherical harmonics are used.
  
  Integrals less than  0.10E-13 are neglected.

  Nuclear repulsion energy :    0.0000000000 a.u.
  required memory for a1 array                5020257  words 
  required memory for a2 array                2070308  words 
 @GETMEM-I,  Allocated      69 MB of main memory.
  @MOLECU-I, One electron integrals (CPU/WALL):        0.01/       0.26 seconds.
  @TWOEL-I,        379 integrals of symmetry type  I I I I
  @TWOEL-I,       1506 integrals of symmetry type  I J I J
  @TWOEL-I,       1161 integrals of symmetry type  I I J J
  @TWOEL-I,       1760 integrals of symmetry type  I J K L
  @TWOEL-I, Total number of 2-e integrals       4806.
  @MOLECU-I, Two electron integrals (CPU/WALL):        0.01/       0.04 seconds.
  @CHECKOUT-I, Total execution time (CPU/WALL):        0.04/       0.35 seconds.
--executable xvmol finished with status     0 in        0.54 seconds (walltime).
 --invoking executable--
/home/nike/cfour_v2.00beta/bin/xvmol2ja
 @GETMEM-I,  Allocated   30517 MB of main memory.
  @CHECKOUT-I, Total execution time (CPU/WALL):        0.00/       0.05 seconds.
--executable xvmol2ja finished with status     0 in        0.21 seconds (walltime).
 --invoking executable--
/home/nike/cfour_v2.00beta/bin/xvscf
  There are   23 functions in the AO basis.

  There are 8 irreducible representations.

       Irrep        # of functions
         1                  8
         2                  3
         3                  3
         4                  2
         5                  3
         6                  2
         7                  2
         8                  0


  Parameters for SCF calculation: 
        SCF reference function: ROHF  
  Maximum number of iterations: 9999
     Full symmetry point group: I h 
     Computational point group: D2h 
        Initial density matrix: MOREAD                 
     SCF convergence tolerance: 10**(-10)
  DIIS convergence acceleration:  ON
          Latest start for DIIS:   5
                     DIIS order:   6

     Alpha population by irrep:   2    1    1    0    0    0    0    0
      Beta population by irrep:   2    0    0    0    0    0    0    0


  Memory information:      62860 words required.
  Fock matrices are constructed from AO integral file.
 @GETMEM-I,  Allocated       0 MB of main memory.
  Initialization and symmetry analysis required      0.002 seconds.

 total no. of electrons in initial guess :  0.000000000000000E+000
 total no. of electrons in initial guess :  0.000000000000000E+000
  --------------------------------------------------------------------
  Iteration         Total Energy            Largest Density Difference
  --------------------------------------------------------------------
       0             0.000000000000000              0.0000000000D+00
   current occupation vector 
     2  1  1  0  0  0  0  0
     2  0  0  0  0  0  0  0
       1           -52.924886825799227              0.5080043740D+01
   current occupation vector 
     2  1  1  0  0  0  0  0
     2  0  0  0  0  0  0  0
       2           -53.780560281107419              0.3548069623D+01
   current occupation vector 
     2  1  1  0  0  0  0  0
     2  0  0  0  0  0  0  0
       3           -53.872861286052270              0.4531231838D+00
   current occupation vector 
     2  1  1  0  0  0  0  0
     2  0  0  0  0  0  0  0
       4           -53.875805529599759              0.1790053863D+00
   current occupation vector 
     2  1  1  0  0  0  0  0
     2  0  0  0  0  0  0  0
       5           -53.875875400858277              0.1841630300D-01
   current occupation vector 
     2  1  1  0  0  0  0  0
     2  0  0  0  0  0  0  0
       6           -53.875878959997443              0.2522813627D-02
   current occupation vector 
     2  1  1  0  0  0  0  0
     2  0  0  0  0  0  0  0
       7           -53.875879127201202              0.4748363181D-03
   current occupation vector 
     2  1  1  0  0  0  0  0
     2  0  0  0  0  0  0  0
       8           -53.875879130642176              0.5557222491D-04
   current occupation vector 
     2  1  1  0  0  0  0  0
     2  0  0  0  0  0  0  0
       9           -53.875879130648315              0.2180100842D-05
   current occupation vector 
     2  1  1  0  0  0  0  0
     2  0  0  0  0  0  0  0
      10           -53.875879130648308              0.2648440534D-07
   current occupation vector 
     2  1  1  0  0  0  0  0
     2  0  0  0  0  0  0  0
      11           -53.875879130648308              0.2637472019D-08
   current occupation vector 
     2  1  1  0  0  0  0  0
     2  0  0  0  0  0  0  0

  SCF has converged.

 Density matrix saved to file den.dat
 total alpha spin electron number:   4.00000000000000     
 total  beta spin electron number:   2.00000000000000     
     E(ROHF)=       -53.875879130648372              0.3190780973D-10

  Eigenvector printing suppressed.


       The average multiplicity is    3.0000000
  The expectation value of S**2 is    2.0000000

 @PUTMOS-I, Writing converged MOs to NEWMOS. 
 @PUTMOS-I, Symmetry   1 Full Blocks  2 Partial Blocksize   0
 @PUTMOS-I, Symmetry   2 Full Blocks  0 Partial Blocksize   3
 @PUTMOS-I, Symmetry   3 Full Blocks  0 Partial Blocksize   3
 @PUTMOS-I, Symmetry   4 Full Blocks  0 Partial Blocksize   2
 @PUTMOS-I, Symmetry   5 Full Blocks  0 Partial Blocksize   3
 @PUTMOS-I, Symmetry   6 Full Blocks  0 Partial Blocksize   2
 @PUTMOS-I, Symmetry   7 Full Blocks  0 Partial Blocksize   2
 @PUTMOS-I, Symmetry   8 Full Blocks  0 Partial Blocksize   0
  @DMPJOB-I, Rotating orbitals to semicanonical basis.
             *** Eigenvalues correspond to new basis. ***



 
  ORBITAL EIGENVALUES (ALPHA)  (1H = 27.2113838 eV)

       MO #        E(hartree)               E(eV)           FULLSYM    COMPSYM
       ----   --------------------   --------------------   -------   ---------
    1     1         -16.3326345444        -444.4335873717      Ag        Ag (1)
    2     2          -1.6146373236         -43.9365159425      Ag        Ag (1)
    3     9          -1.1094925490         -30.1908275968       u       B2u (2)
    4    12          -1.1094925490         -30.1908275968       u       B3u (3)
  +++++++++++++++++++++++++++++++++++++++++++++++++++++++++++++++++++++++++++++
    5    17          -0.4690346606         -12.7630821735      Au       B1u (5)
    6     3          -0.1185754204          -3.2266012767      Ag        Ag (1)
    7    10          -0.0701422524          -1.9086677517       u       B2u (2)
    8    13          -0.0701422524          -1.9086677517       u       B3u (3)
    9    18          -0.0588534991          -1.6014851535      Au       B1u (5)
   10    15           0.3079829916           8.3806433943       g       B1g (4)
   11     4           0.3079829916           8.3806433943       g        Ag (1)
   12    20           0.3101798867           8.4404239490       g       B3g (6)
   13    22           0.3101798867           8.4404239490       g       B2g (7)
   14     5           0.3109607867           8.4616733186      Ag        Ag (1)
   15    11           0.6002657286          16.3340611360       u       B2u (2)
   16    14           0.6002657286          16.3340611360       u       B3u (3)
   17    19           0.6704404153          18.2436114699      Au       B1u (5)
   18     6           0.8704531647          23.6862351620      Ag        Ag (1)
   19     7           1.8947075920          51.5576155125       g        Ag (1)
   20    16           1.8947075920          51.5576155125       g       B1g (4)
   21    21           1.9144285872          52.0942510816       g       B3g (6)
   22    23           1.9144285872          52.0942510816       g       B2g (7)
   23     8           1.9213369070          52.2822360229      Ag        Ag (1)


 
  ORBITAL EIGENVALUES ( BETA)  (1H = 27.2113838 eV)

       MO #        E(hartree)               E(eV)           FULLSYM    COMPSYM
       ----   --------------------   --------------------   -------   ---------
    1     1         -16.2613822802        -442.4947146638      Ag        Ag (1)
    2     2          -1.3150042196         -35.7830845448      Ag        Ag (1)
  +++++++++++++++++++++++++++++++++++++++++++++++++++++++++++++++++++++++++++++
    3    17          -0.3997244111         -10.8770543718      Au       B1u (5)
    4     9          -0.3332883074          -9.0692360555       u       B2u (2)
    5    12          -0.3332883074          -9.0692360555       u       B3u (3)
    6     3          -0.1058913210          -2.8814493781      Ag        Ag (1)
    7    18          -0.0517709015          -1.4087578723      Au       B1u (5)
    8    10          -0.0376393295          -1.0242182404       u       B2u (2)
    9    13          -0.0376393295          -1.0242182404       u       B3u (3)
   10     4           0.3327215938           9.0538149930      Ag        Ag (1)
   11    20           0.3399135169           9.2495171729       g       B3g (6)
   12    22           0.3399135169           9.2495171729       g       B2g (7)
   13    15           0.3603608930           9.8059185734       g       B1g (4)
   14     5           0.3603608930           9.8059185734       g        Ag (1)
   15    19           0.7021071033          19.1053058709      Au       B1u (5)
   16    11           0.7543063518          20.5257196554       u       B2u (2)
   17    14           0.7543063518          20.5257196554       u       B3u (3)
   18     6           0.9383265746          25.5331645701      Ag        Ag (1)
   19     7           1.9961493893          54.3179871938      Ag        Ag (1)
   20    21           2.0138036637          54.7983844298       g       B3g (6)
   21    23           2.0138036637          54.7983844298       g       B2g (7)
   22     8           2.0671281172          56.2494166020       g        Ag (1)
   23    16           2.0671281172          56.2494166020       g       B1g (4)


  VSCF finished.

  @CHECKOUT-I, Total execution time (CPU/WALL):        0.03/       0.13 seconds.
--executable xvscf finished with status     0 in        0.32 seconds (walltime).
 --invoking executable--
/home/nike/cfour_v2.00beta/bin/xvtran
 @GETMEM-I,  Allocated   30517 MB of main memory.
  Full UHF integral transformation
  The following   1 alpha MOs will be dropped.
    1
  There are  22 active alpha molecular orbitals.
  The following   1 beta MOs will be dropped.
    1
  There are  22 active beta molecular orbitals.
  Transformation of IIII integrals :
  2 passes through the AO integral file were required.
         379 AO integrals were read.
         487 MO integrals (Spin case AAAA) were written to HF2AA.
         487 MO integrals (Spin case BBBB) were written to HF2BB.
         919 MO integrals (Spin case AABB) were written to HF2AB.
  Transformation of IIJJ integrals :
  2 passes through the AO integral file were required.
        1161 AO integrals were read.
        1053 MO integrals (Spin case AAAA) were written to HF2AA.
        1053 MO integrals (Spin case BBBB) were written to HF2BB.
        2106 MO integrals (Spin case AABB) were written to HF2AB.
  Transformation of IJIJ integrals :
  2 passes through the AO integral file were required.
        1506 AO integrals were read.
        1362 MO integrals (Spin case AAAA) were written to HF2AA.
        1362 MO integrals (Spin case BBBB) were written to HF2BB.
        2526 MO integrals (Spin case AABB) were written to HF2AB.
  Transformation of IJKL integrals :
  2 passes through the AO integral file were required.
        1760 AO integrals were read.
        1626 MO integrals (Spin case AAAA) were written to HF2AA.
        1626 MO integrals (Spin case BBBB) were written to HF2BB.
        3252 MO integrals (Spin case AABB) were written to HF2AB.
  Summary of active molecular orbitals: 
------------------------------------------------------------------------
                         * Spin case alpha *
 
  Index      Eigenvalue    Symmetry    Index      Eigenvalue    Symmetry
------------------------------------------------------------------------
     1        -1.6146373        1        12        -0.0701423        3
     2        -1.1094925        2        13         0.6002657        3
     3        -1.1094925        3        14         0.3079830        4
     4        -0.1185754        1        15         1.8947076        4
     5         0.3079830        1        16        -0.4690347        5
     6         0.3109608        1        17        -0.0588535        5
     7         0.8704532        1        18         0.6704404        5
     8         1.8947076        1        19         0.3101799        6
     9         1.9213369        1        20         1.9144286        6
    10        -0.0701423        2        21         0.3101799        7
    11         0.6002657        2        22         1.9144286        7
------------------------------------------------------------------------
------------------------------------------------------------------------
                         * Spin case beta *
 
  Index      Eigenvalue    Symmetry    Index      Eigenvalue    Symmetry
------------------------------------------------------------------------
     1        -1.3150042        1        12        -0.0376393        3
     2        -0.1058913        1        13         0.7543064        3
     3         0.3327216        1        14         0.3603609        4
     4         0.3603609        1        15         2.0671281        4
     5         0.9383266        1        16        -0.3997244        5
     6         1.9961494        1        17        -0.0517709        5
     7         2.0671281        1        18         0.7021071        5
     8        -0.3332883        2        19         0.3399135        6
     9        -0.0376393        2        20         2.0138037        6
    10         0.7543064        2        21         0.3399135        7
    11        -0.3332883        3        22         2.0138037        7
------------------------------------------------------------------------
  @CHECKOUT-I, Total execution time (CPU/WALL):        0.03/       1.38 seconds.
--executable xvtran finished with status     0 in        1.54 seconds (walltime).
 --invoking executable--
/home/nike/cfour_v2.00beta/bin/xintprc
 @GETMEM-I,  Allocated   30517 MB of main memory.
  Processing integrals for CCSD calculation.
  @GMOIAA-I, Processing MO integrals for spin case AA.
  @GMOIAA-I, Generation of integral list completed.
                      TYPE                NUMBER
                      ----               --------
                      PPPP                  2581
                      PPPH                  1438
                      PPHH                   254
                      PHPH                   190
                      PHHH                    56
                      HHHH                     9

                     TOTAL                  4528
  @GMOIAA-I, Processing MO integrals for spin case BB.
  @GMOIAA-I, Generation of integral list completed.
                      TYPE                NUMBER
                      ----               --------
                      PPPP                  3717
                      PPPH                   708
                      PPHH                    48
                      PHPH                    48
                      PHHH                     6
                      HHHH                     1

                     TOTAL                  4528
  @GMOIAB-I, Processing MO integrals for spin case AB.
                      TYPE                NUMBER
                      ----               --------
                      PPPP                  5968
                      PPPH1H                1762
                      PPPH2H                 590
                      PPHH                   173
                      PHPH1P                  42
                      PHPH2P                 229
                      PHHH1P                  10
                      PHHH2P                  26
                      HHHH                     3

                     TOTAL                  8803
            ----------------------------------------------
                     Projected spin multiplicities: 
            ----------------------------------------------
             <0|S^2|0>                  =    2.0000000000.
             <0|S^2 T2|0>               =    0.0000000000.
             Projected <0|S^2 exp(T)|0> =    2.0000000000.
             Approximate spin mult.     =    3.0000000000.
            ----------------------------------------------
   Largest T2 amplitudes for spin case AA:
   i   j   a   b             i   j   a   b             i   j   a   b
-----------------------------------------------------------------------------
[  3   2  13  11]-0.02032 [  3   2  15   8]-0.01536 [  3   1  13   7]-0.01193
[  2   1  11   7]-0.01193 [  2   1  20  16]-0.01154 [  3   1  22  16]-0.01154
[  3   2  14   5]-0.01137 [  3   2  15   5] 0.01028 [  3   2  14   8] 0.01028
[  2   1  19  16] 0.01028 [  3   1  21  16] 0.01028 [  3   2  12  11]-0.00907
[  3   2  13  10]-0.00907 [  3   2  22  20]-0.00772 [  3   1  13   4]-0.00690
-----------------------------------------------------------------------------
   Norm of T2AA vector (       64 symmetry allowed elements):  0.0480683820.
-----------------------------------------------------------------------------
   Largest T2 amplitudes for spin case AB:
       _       _                 _       _                 _       _
   i   j   a   b             i   j   a   b             i   j   a   b
-----------------------------------------------------------------------------
[  1   1  16  16]-0.06300 [  2   1  20  16]-0.02255 [  3   1  22  16]-0.02255
[  2   1  15  11]-0.02153 [  3   1   8  11] 0.02153 [  3   1  15   8]-0.02153
[  2   1   8   8]-0.02153 [  2   1  11   5]-0.02030 [  3   1  13   5]-0.02030
[  2   1  19  16] 0.01924 [  3   1  21  16] 0.01924 [  3   1   5  11]-0.01882
[  2   1  14  11] 0.01882 [  3   1  14   8] 0.01882 [  2   1   5   8] 0.01882
-----------------------------------------------------------------------------
   Norm of T2AB vector (      173 symmetry allowed elements):  0.1217835499.
-----------------------------------------------------------------------------
  @CHECKOUT-I, Total execution time (CPU/WALL):        0.03/       0.44 seconds.
--executable xintprc finished with status     0 in        0.64 seconds (walltime).
 --invoking executable--
/home/nike/cfour_v2.00beta/bin/xint
 @GETMEM-I,  Allocated   30517 MB of main memory.
  @CHECKOUT-I, Total execution time (CPU/WALL):        0.06/       0.53 seconds.
--executable xint finished with status     0 in        0.74 seconds (walltime).
 --invoking executable--
/home/nike/MRCC/dmrcc
 **********************************************************************
                          MRCC program system
 **********************************************************************
 
                              Written by
    Mihaly Kallay, Zoltan Rolik, Jozsef Csontos, Istvan Ladjanszki,
       Lorant Szegedy, Bence Ladoczki, Gyula Samu, Klara Petrov,
        Mate Farkas, Peter Nagy, David Mester, and Bence Hegely
 
        Department of Physical Chemistry and Materials Science
            Budapest University of Technology and Economics
                  Budapest P.O.Box 91, H-1521 Hungary
 
                              www.mrcc.hu

 ************************ 2018-06-12 22:55:05 *************************
 Executing minp...

 Reading input from MINP...
 
 Input file:
 
# N+ 2Z
basis=aVDZ-EMSL
iface=cfour
uncontract=off
calc=CC(4)
mem=32GB
core=1
itol=18
scftol=13
cctol=7
ccmaxit=999
scfmaxit=9999
scfiguess=ao
scftype=ROHF
rohftype=semicanonical
rest=2
charge=+1
refdet=serialno
1,2
3,4

#symm=1
mult=3
#occ=3,0,0,0,0,1,0,0/1,0,0,0,0,1,0,0
geom
N

#Li 1 R

#R=3.065

#unit=angstroms

tprint=0.01
verbosity=3
nstate=4

 
 
 Checking keyword combinations...
 
 Keywords:
 
 active=none
 agrid=ld0006-ld0590
 basis=avdz-emsl
 basopt=off
 bpcompo=0.985
 bpcompv=0.98
 bpdfo=0.985
 bpocc=0.985
 bppdo=0.985
 bppdv=0.98
 bpedo=0.985
 bpedv=0.98
 calc=cc(4)
 ccmaxit=999
 ccprog=mrcc
 cctol=7
 charge=+1
 cialg=disk
 ciguess=off
 cmpgrp=auto
 core=1
 corembed=off
 dboc=off
 dendec=cholesky
 dens=0
 dfalg=invsqrt
 dfbasis_cor=none
 dfbasis_scf=none
 dfintran=ovirt
 dft=off
 diag=david
 domrad=10.d0
 drpaalg=fit
 ecp=auto
 edisp=off
 embed=off
 epert=none
 eps=0.975
 excrad=0.d0
 excrad_fin=0.000000000D+00
 freq=off
 gauss=spher
 geom=zmat
 gopt=off
 ghost=none
 gtol=7
 grtol=10
 hamilton=dc
 iface=cfour
 intalg=auto
 itol=18
 lcorthr=loose
 lccrest=off
 lmp2dens=on
 lnoepso=3e-5
 lnoepsv=1e-6
 localcc=off
 locintrf=disk
 maxact=off
 maxex=0
 bfbasis=none
 mem=32gb
 molden=on
 mulmet=0
 mult=3
 nacto=0
 nactv=0
 naf_cor=off
 naf_scf=off
 nafalg=albe
 naftyp=
 nchol=auto
 ndeps=1e-3
 nstate=4
 nsing=0
 ntrip=0
 occ=
 optalg=
 optmaxit=50
 optetol=1e-6
 optgtol=1e-4
 optstol=1e-3
 orblocc=off
 orbloco=off
 orblocv=off
 osveps=1e-3
 ovirt=off
 ovosnorb=80.0
 ptfreq=0.0
 popul=off
 pressure=100000
 qmmm=off
 refdet=serialno
 rest=2
 rgrid=log3
 rohftype=semicanonical
 scspe=1.d0
 scsps=1.2d0
 scspt=0.33333333333333
 scfalg=auto
 scfdamp=off
 scfdiis=on
 scfdiis_end=9999
 scfdiis_start=1
 scfdiis_step=1
 scfdtol=17
 scfext=10
 scfiguess=ao
 scflshift=off
 scfmaxit=9999
 scftype=rohf
 scftol=13
 spairtol=1e-4
 symm=
 talg=occ
 temp=298.15
 test=off
 tprint=0.01
 uncontract=off
 unit=angs
 verbosity=3
 wpairtol=0.100000000E-05

 ************************ 2018-06-12 22:55:06 *************************
 Executing goldstone...

 Generation of CC equations in terms of H and T...
 Generation of antisymmetrized Goldstone diagrams...
 Number of diagrams in T^1 equations:    15
 Number of diagrams in T^2 equations:    38
 Number of diagrams in T^3 equations:    53
 Number of diagrams in T^4 equations:    74
 Translation of diagrams to factorized equations...
 Optimizing intermediate calculation...
 Optimizing right-hand EOMCC calculation...
 Number of floating-point operations per iteration step:   2.8314E+07
 Probable CPU time per iteration step (hours):      0.00
 Required memory (Mbytes):      21.3
 Number of intermediates:                                 249
 Number of intermediates to be stored:                     96
 Length of intermediate file (Mbytes):       4.0

 ************************ 2018-06-12 22:55:08 *************************
 Executing xmrcc...

 **********************************************************************
 CC(                     4 ) calculation 
 
 
 Allocation of 100.0 Mbytes of memory...
 Number of spinorbitals:                    44
 Number of alpha electrons:                        4
 Number of beta electrons:                         2
 z-component of spin:  1.0
 Spatial symmetry:                      1
 Convergence criterion:  1.0E-07
 Spatial symmetry of ground state:                      7
 Construction of occupation graphs...
 Number of                     0 -fold excitations:                      0
 Number of                     1 -fold excitations:                      8
 Number of                     2 -fold excitations:                    453
 Number of                     3 -fold excitations:                   6640
 Number of                     4 -fold excitations:                  38361
 Total number of configurations:                  45462
 Number of ground state excitations: 
 Number of                     0 -fold excitations:                      1
 Number of                     1 -fold excitations:                     20
 Number of                     2 -fold excitations:                    540
 Number of                     3 -fold excitations:                   6704
 Number of                     4 -fold excitations:                  38649
 Total number of configurations:                  45914
 Calculation of coupling coefficients...
 Length of intermediate file (Mbytes):       8.6
 
 ======================================================================
 
 ======================================================================
 
 ======================================================================
 
 ======================================================================
 
 Memory requirements /Mbyte/: 
               Minimal        Optimal
 Real*8:         16.9448        18.0497
 Integer:         5.4090
 Total:          22.3539        23.4587
 

 ************************ 2018-06-12 22:55:17 *************************
 Executing goldstone...

 Generation of CC equations in terms of H and T...
 Generation of antisymmetrized Goldstone diagrams...
 Number of diagrams in T^1 equations:     8
 Translation of diagrams to factorized equations...
 Optimizing intermediate calculation...
 Optimizing right-hand EOMCC calculation...
 Number of floating-point operations per iteration step:   2.8279E+02
 Probable CPU time per iteration step (hours):      0.00
 Required memory (Mbytes):      21.3
 Number of intermediates:                                  19
 Number of intermediates to be stored:                      9
 Length of intermediate file (Mbytes):       0.0

 ************************ 2018-06-12 22:55:17 *************************
 Executing xmrcc...

 **********************************************************************
 CC(                     1 ) calculation 
 
 
 Allocation of 100.0 Mbytes of memory...
 Number of spinorbitals:                    44
 Number of alpha electrons:                        4
 Number of beta electrons:                         2
 z-component of spin:  1.0
 Spatial symmetry:                      1
 Convergence criterion:  1.0E-07
 Spatial symmetry of ground state:                      7
 Construction of occupation graphs...
 Number of                     0 -fold excitations:                      0
 Number of                     1 -fold excitations:                      8
 Total number of configurations:                      8
 Number of ground state excitations: 
 Number of                     0 -fold excitations:                      1
 Number of                     1 -fold excitations:                     20
 Total number of configurations:                     21
 Calculation of coupling coefficients...
 Length of intermediate file (Mbytes):       0.1
 
 ======================================================================
 
 ======================================================================
 
 ======================================================================
 
 ======================================================================
 
 Memory requirements /Mbyte/: 
               Minimal        Optimal
 Real*8:          0.0886         1.7985
 Integer:         3.2879
 Total:           3.3765         5.0864
 

 ************************ 2018-06-12 22:55:17 *************************
 Executing mrcc...

 **********************************************************************
 LR-CCS calculation                                                     
 
 
 OpenMP parallel version is running.
 Number of CPUs:  32
 Allocation of    1.8 Mbytes of memory...
 Number of spinorbitals:  44
 Number of alpha electrons:  4
 Number of beta  electrons:  2
 z-component of spin:  1.0
 Spatial symmetry: 1
 Convergence criterion:  1.0E-07
 Spatial symmetry of ground state:                      7
 Construction of occupation graphs...
 Number of excitations for irrep 1: 
 Number of 0-fold excitations: 1
 Number of 1-fold excitations: 20
 Total number of determinants: 21
 Number of excitations for irrep 7: 
 Number of 0-fold excitations: 0
 Number of 1-fold excitations: 8
 Total number of determinants: 8
 Calculation of coupling coefficients...
 Initial cluster amplitudes are generated.
 Length of intermediate file (Mbytes):       0.1
 Reading integral list from unit 55...
 Sorting integrals...
 Sorting integrals...
 Sorting integrals...
 Sorting integrals...
 Energy of reference determinant [au]:     -54.126761396676
 Calculation of diagonal elements of Hamiltonian...
 Calculation of MP denominators...
 
 Starting CC iteration...
 ======================================================================
 Norm of residual vector:     0.53124528
 CPU time [min]:     0.303                   Wall time [min]:     0.012
 
 Iteration  1  CC energy:   -54.46271668  Energy decrease:   0.33595529
 ======================================================================
 Norm of residual vector:     0.27254465
 CPU time [min]:     0.306                   Wall time [min]:     0.013
 
 Iteration  2  CC energy:   -54.35198597  Energy decrease:   0.11073071
 ======================================================================
 Norm of residual vector:     0.05368045
 CPU time [min]:     0.311                   Wall time [min]:     0.013
 
 Iteration  3  CC energy:   -54.36785037  Energy decrease:   0.01586440
 ======================================================================
 Norm of residual vector:     0.02311002
 CPU time [min]:     0.315                   Wall time [min]:     0.013
 
 Iteration  4  CC energy:   -54.38176871  Energy decrease:   0.01391834
 ======================================================================
 Norm of residual vector:     0.00562870
 CPU time [min]:     0.320                   Wall time [min]:     0.013
 
 Iteration  5  CC energy:   -54.37932875  Energy decrease:   0.00243996
 ======================================================================
 Norm of residual vector:     0.00055267
 CPU time [min]:     0.324                   Wall time [min]:     0.013
 
 Iteration  6  CC energy:   -54.37917002  Energy decrease:   0.00015873
 ======================================================================
 Norm of residual vector:     0.00009969
 CPU time [min]:     0.330                   Wall time [min]:     0.013
 
 Iteration  7  CC energy:   -54.37917121  Energy decrease:   0.00000119
 ======================================================================
 Norm of residual vector:     0.00005869
 CPU time [min]:     0.334                   Wall time [min]:     0.014
 
 Iteration  8  CC energy:   -54.37914459  Energy decrease:   0.00002662
 ======================================================================
 Norm of residual vector:     0.00000212
 CPU time [min]:     0.340                   Wall time [min]:     0.014
 
 Iteration  9  CC energy:   -54.37914443  Energy decrease:   0.00000016
 ======================================================================
 Norm of residual vector:     0.00000069
 CPU time [min]:     0.346                   Wall time [min]:     0.014
 
 Iteration 10  CC energy:   -54.37914473  Energy decrease:   0.00000030
 ======================================================================
 Norm of residual vector:     0.00000004
 CPU time [min]:     0.349                   Wall time [min]:     0.014
 
 Iteration 11  CC energy:   -54.37914476  Energy decrease:   0.00000003
 ======================================================================
 
 Iteration has converged in 11 steps.
 
 Final results:
 Total CCS energy [au]:              -54.379144761799
 Spin multiplicity:                     2
 
 
 
 Dominant cluster amplitudes
 Printing threshold:  1.00E-02
 
    1.000000  Reference determinant                                     
   -0.193244  1b -> 5b                                                  
    0.016595  1b -> 10b                                                 
   -0.031129  1b -> 13b                                                 
   -0.082751  1b -> 17b                                                 
   -0.489723  2b -> 6b                                                  
   -0.010034  2b -> 14b                                                 
   -0.098362  1a -> 5a                                                  
    0.013631  1a -> 10a                                                 
   -0.010228  1a -> 13a                                                 
   -0.053561  1a -> 17a                                                 
   -0.302585  2a -> 6a                                                  
   -0.120049  2a -> 14a                                                 
   -0.249003  3a -> 7a                                                  
   -0.122115  3a -> 15a                                                 
   -0.161752  4a -> 8a                                                  
   -0.024122  4a -> 16a                                                 
 
 Starting right-hand LR-CC iteration for root                      2 ...
 ======================================================================
 Norm of residual vector:     0.05129844      Convergence:   1.00000000
 CPU time [min]:     0.376                   Wall time [min]:     0.015
 
 Iteration  1  CI energy:   -54.10087105  Energy decrease:   0.27827371
 ======================================================================
 Norm of residual vector:     0.00500448      Convergence:   0.05120802
 CPU time [min]:     0.385                   Wall time [min]:     0.015
 
 Iteration  2  CI energy:   -54.10299048  Energy decrease:   0.00211943
 ======================================================================
 Norm of residual vector:     0.12833703      Convergence:   0.41394920
 CPU time [min]:     0.394                   Wall time [min]:     0.016
 
 Iteration  3  CI energy:   -54.10345330  Energy decrease:   0.00046281
 ======================================================================
 Norm of residual vector:     0.00117290      Convergence:   0.00925405
 CPU time [min]:     0.400                   Wall time [min]:     0.016
 
 Iteration  4  CI energy:   -54.10277489  Energy decrease:   0.00067841
 ======================================================================
 Norm of residual vector:     0.00006899      Convergence:   0.00091265
 CPU time [min]:     0.407                   Wall time [min]:     0.016
 
 Iteration  5  CI energy:   -54.10277324  Energy decrease:   0.00000165
 ======================================================================
 Norm of residual vector:     0.00000341      Convergence:   0.00008141
 CPU time [min]:     0.414                   Wall time [min]:     0.016
 
 Iteration  6  CI energy:   -54.10277346  Energy decrease:   0.00000022
 ======================================================================
 Norm of residual vector:     0.00000023      Convergence:   0.00000250
 CPU time [min]:     0.423                   Wall time [min]:     0.017
 
 Iteration  7  CI energy:   -54.10277345  Energy decrease:   0.00000001
 ======================================================================
 Norm of residual vector:     0.0000E+00      Convergence:   1.2119E-07
 CPU time [min]:     0.431                   Wall time [min]:     0.017
 
 Iteration  8  CI energy:   -54.10277345  Energy decrease:   1.1813E-10
 ======================================================================
 
 Iteration has converged in  8 steps.
 
 Final results:
 Total LR-CCS energy [au]:           -54.102773449613
 Excitation energy [eV]:           7.5204
 Excitation energy [cm^-1]:    60656.50
 Absorption wavelength [nm]:     164.86
 Spin multiplicity:                     2
 
 
 
 Dominant CI coefficients
 Printing threshold:  1.00E-02
 
   -0.098373  4a -> 7a                                                  
    0.011496  4a -> 15a                                                 
    0.993834  3a -> 8a                                                  
   -0.048746  3a -> 16a                                                 
 
 Starting right-hand LR-CC iteration for root                      3 ...
 ======================================================================
 Norm of residual vector:     0.08704234      Convergence:   1.00000000
 CPU time [min]:     0.436                   Wall time [min]:     0.017
 
 Iteration  1  CI energy:   -54.12424580  Energy decrease:   0.25489896
 ======================================================================
 Norm of residual vector:     0.00425043      Convergence:   0.09499120
 CPU time [min]:     0.441                   Wall time [min]:     0.017
 
 Iteration  2  CI energy:   -54.13422724  Energy decrease:   0.00998143
 ======================================================================
 Norm of residual vector:     0.01256744      Convergence:   0.06310123
 CPU time [min]:     0.446                   Wall time [min]:     0.017
 
 Iteration  3  CI energy:   -54.13434424  Energy decrease:   0.00011701
 ======================================================================
 Norm of residual vector:     0.00069100      Convergence:   0.01569729
 CPU time [min]:     0.452                   Wall time [min]:     0.018
 
 Iteration  4  CI energy:   -54.13465453  Energy decrease:   0.00031029
 ======================================================================
 Norm of residual vector:     0.00000223      Convergence:   0.00028926
 CPU time [min]:     0.461                   Wall time [min]:     0.018
 
 Iteration  5  CI energy:   -54.13465620  Energy decrease:   0.00000168
 ======================================================================
 Norm of residual vector:     0.0000E+00      Convergence:   2.6371E-06
 CPU time [min]:     0.467                   Wall time [min]:     0.018
 
 Iteration  6  CI energy:   -54.13465620  Energy decrease:   0.00000001
 ======================================================================
 
 Iteration has converged in  6 steps.
 
 Final results:
 Total LR-CCS energy [au]:           -54.134656195029
 Excitation energy [eV]:           6.6529
 Excitation energy [cm^-1]:    53659.04
 Absorption wavelength [nm]:     186.36
 Spin multiplicity:                     2
 
 
 
 Dominant CI coefficients
 Printing threshold:  1.00E-02
 
   -0.990797  4a -> 7a                                                  
    0.093338  4a -> 15a                                                 
   -0.097215  3a -> 8a                                                  
   -0.010260  1a -> 12a                                                 
 
 Starting right-hand LR-CC iteration for root                      4 ...
 ======================================================================
 Norm of residual vector:     0.08246304      Convergence:   1.00000000
 CPU time [min]:     0.471                   Wall time [min]:     0.018
 
 Iteration  1  CI energy:   -53.30776708  Energy decrease:   1.07137768
 ======================================================================
 Norm of residual vector:     0.05128972      Convergence:   0.09119270
 CPU time [min]:     0.476                   Wall time [min]:     0.018
 
 Iteration  2  CI energy:   -53.31022610  Energy decrease:   0.00245902
 ======================================================================
 Norm of residual vector:     0.01081856      Convergence:   0.04362981
 CPU time [min]:     0.482                   Wall time [min]:     0.018
 
 Iteration  3  CI energy:   -53.31140178  Energy decrease:   0.00117569
 ======================================================================
 Norm of residual vector:     0.00526426      Convergence:   0.07068739
 CPU time [min]:     0.487                   Wall time [min]:     0.019
 
 Iteration  4  CI energy:   -53.31240423  Energy decrease:   0.00100244
 ======================================================================
 Norm of residual vector:     0.01487773      Convergence:   0.02058522
 CPU time [min]:     0.494                   Wall time [min]:     0.019
 
 Iteration  5  CI energy:   -53.31246526  Energy decrease:   0.00006103
 ======================================================================
 Norm of residual vector:     0.01526993      Convergence:   0.00474717
 CPU time [min]:     0.502                   Wall time [min]:     0.019
 
 Iteration  6  CI energy:   -53.31246915  Energy decrease:   0.00000390
 ======================================================================
 Norm of residual vector:     0.00007158      Convergence:   0.00095999
 CPU time [min]:     0.511                   Wall time [min]:     0.019
 
 Iteration  7  CI energy:   -53.31242182  Energy decrease:   0.00004733
 ======================================================================
 Norm of residual vector:     0.0000E+00      Convergence:   8.0321E-05
 CPU time [min]:     0.520                   Wall time [min]:     0.020
 
 Iteration  8  CI energy:   -53.31242158  Energy decrease:   0.00000024
 ======================================================================
 
 Iteration has converged in  8 steps.
 
 Final results:
 Total LR-CCS energy [au]:           -53.312421583677
 Excitation energy [eV]:          29.0270
 Excitation energy [cm^-1]:   234118.69
 Absorption wavelength [nm]:      42.71
 Spin multiplicity:                     2
 
 Dominant CI coefficients
 Printing threshold:  1.00E-02
 
   -0.994698  1b -> 12b                                                 
   -0.041238  1b -> 21b                                                 
    0.011182  4a -> 7a                                                  
    0.060832  4a -> 15a                                                 
    0.024843  3a -> 16a                                                 
    0.065791  1a -> 12a                                                 

 ************************ 2018-06-12 22:55:19 *************************
 Executing goldstone...

 Generation of CC equations in terms of H and T...
 Generation of antisymmetrized Goldstone diagrams...
 Number of diagrams in T^1 equations:    14
 Number of diagrams in T^2 equations:    31
 Translation of diagrams to factorized equations...
 Optimizing intermediate calculation...
 Optimizing right-hand EOMCC calculation...
 Number of floating-point operations per iteration step:   1.5946E+05
 Probable CPU time per iteration step (hours):      0.00
 Required memory (Mbytes):      21.3
 Number of intermediates:                                  84
 Number of intermediates to be stored:                     36
 Length of intermediate file (Mbytes):       0.5

 ************************ 2018-06-12 22:55:21 *************************
 Executing xmrcc...

 **********************************************************************
 CC(                     2 ) calculation 
 
 
 Allocation of 100.0 Mbytes of memory...
 Number of spinorbitals:                    44
 Number of alpha electrons:                        4
 Number of beta electrons:                         2
 z-component of spin:  1.0
 Spatial symmetry:                      1
 Convergence criterion:  1.0E-07
 Spatial symmetry of ground state:                      7
 Construction of occupation graphs...
 Number of                     0 -fold excitations:                      0
 Number of                     1 -fold excitations:                      8
 Number of                     2 -fold excitations:                    453
 Total number of configurations:                    461
 Number of ground state excitations: 
 Number of                     0 -fold excitations:                      1
 Number of                     1 -fold excitations:                     20
 Number of                     2 -fold excitations:                    540
 Total number of configurations:                    561
 Calculation of coupling coefficients...
 Length of intermediate file (Mbytes):       0.8
 
 ======================================================================
 
 ======================================================================
 
 ======================================================================
 
 ======================================================================
 
 Memory requirements /Mbyte/: 
               Minimal        Optimal
 Real*8:          1.0533         2.6940
 Integer:         3.4444
 Total:           4.4976         6.1383
 

 ************************ 2018-06-12 22:55:22 *************************
 Executing mrcc...

 **********************************************************************
 LR-CCSD calculation                                                    
 
 
 OpenMP parallel version is running.
 Number of CPUs:  32
 Allocation of    2.7 Mbytes of memory...
 Number of spinorbitals:  44
 Number of alpha electrons:  4
 Number of beta  electrons:  2
 z-component of spin:  1.0
 Spatial symmetry: 1
 Convergence criterion:  1.0E-07
 Spatial symmetry of ground state:                      7
 Construction of occupation graphs...
 Number of excitations for irrep 1: 
 Number of 0-fold excitations: 1
 Number of 1-fold excitations: 20
 Number of 2-fold excitations: 540
 Total number of determinants: 561
 Number of excitations for irrep 7: 
 Number of 0-fold excitations: 0
 Number of 1-fold excitations: 8
 Number of 2-fold excitations: 453
 Total number of determinants: 461
 Calculation of coupling coefficients...
 Initial cluster amplitudes are read from unit 16.
 Length of intermediate file (Mbytes):       0.8
 Reading integral list from unit 55...
 Sorting integrals...
 Sorting integrals...
 Sorting integrals...
 Sorting integrals...
 Energy of reference determinant [au]:     -54.126761396676
 Calculation of diagonal elements of Hamiltonian...
 Calculation of MP denominators...
 
 Starting CC iteration...
 ======================================================================
 Norm of residual vector:     0.67023170
 CPU time [min]:     0.588                   Wall time [min]:     0.021
 
 Iteration  1  CC energy:   -54.50495131  Energy decrease:   0.16501413
 ======================================================================
 Norm of residual vector:     0.23830637
 CPU time [min]:     0.696                   Wall time [min]:     0.025
 
 Iteration  2  CC energy:   -54.46705489  Energy decrease:   0.03789642
 ======================================================================
 Norm of residual vector:     0.07193714
 CPU time [min]:     0.779                   Wall time [min]:     0.027
 
 Iteration  3  CC energy:   -54.47030851  Energy decrease:   0.00325362
 ======================================================================
 Norm of residual vector:     0.02997814
 CPU time [min]:     0.863                   Wall time [min]:     0.030
 
 Iteration  4  CC energy:   -54.46888573  Energy decrease:   0.00142278
 ======================================================================
 Norm of residual vector:     0.01479425
 CPU time [min]:     0.947                   Wall time [min]:     0.033
 
 Iteration  5  CC energy:   -54.47074633  Energy decrease:   0.00186059
 ======================================================================
 Norm of residual vector:     0.00816963
 CPU time [min]:     1.034                   Wall time [min]:     0.035
 
 Iteration  6  CC energy:   -54.47092230  Energy decrease:   0.00017597
 ======================================================================
 Norm of residual vector:     0.00498230
 CPU time [min]:     1.220                   Wall time [min]:     0.042
 
 Iteration  7  CC energy:   -54.47100654  Energy decrease:   0.00008424
 ======================================================================
 Norm of residual vector:     0.00292305
 CPU time [min]:     1.305                   Wall time [min]:     0.044
 
 Iteration  8  CC energy:   -54.47127573  Energy decrease:   0.00026919
 ======================================================================
 Norm of residual vector:     0.00091257
 CPU time [min]:     1.394                   Wall time [min]:     0.047
 
 Iteration  9  CC energy:   -54.47135298  Energy decrease:   0.00007725
 ======================================================================
 Norm of residual vector:     0.00040648
 CPU time [min]:     1.481                   Wall time [min]:     0.050
 
 Iteration 10  CC energy:   -54.47136431  Energy decrease:   0.00001132
 ======================================================================
 Norm of residual vector:     0.00016003
 CPU time [min]:     1.572                   Wall time [min]:     0.053
 
 Iteration 11  CC energy:   -54.47135604  Energy decrease:   0.00000827
 ======================================================================
 Norm of residual vector:     0.00006747
 CPU time [min]:     1.661                   Wall time [min]:     0.056
 
 Iteration 12  CC energy:   -54.47135385  Energy decrease:   0.00000219
 ======================================================================
 Norm of residual vector:     0.00002858
 CPU time [min]:     1.757                   Wall time [min]:     0.059
 
 Iteration 13  CC energy:   -54.47135361  Energy decrease:   0.00000024
 ======================================================================
 Norm of residual vector:     0.00001133
 CPU time [min]:     1.848                   Wall time [min]:     0.062
 
 Iteration 14  CC energy:   -54.47135400  Energy decrease:   0.00000039
 ======================================================================
 Norm of residual vector:     0.00000481
 CPU time [min]:     1.942                   Wall time [min]:     0.065
 
 Iteration 15  CC energy:   -54.47135442  Energy decrease:   0.00000042
 ======================================================================
 Norm of residual vector:     0.00000212
 CPU time [min]:     2.034                   Wall time [min]:     0.068
 
 Iteration 16  CC energy:   -54.47135445  Energy decrease:   0.00000003
 ======================================================================
 Norm of residual vector:     0.00000087
 CPU time [min]:     2.135                   Wall time [min]:     0.071
 
 Iteration 17  CC energy:   -54.47135438  Energy decrease:   0.00000006
 ======================================================================
 Norm of residual vector:     0.00000027
 CPU time [min]:     2.353                   Wall time [min]:     0.078
 
 Iteration 18  CC energy:   -54.47135436  Energy decrease:   0.00000003
 ======================================================================
 Norm of residual vector:     0.00000011
 CPU time [min]:     2.462                   Wall time [min]:     0.082
 
 Iteration 19  CC energy:   -54.47135436  Energy decrease:   2.6501E-09
 ======================================================================
 Norm of residual vector:     0.00000004
 CPU time [min]:     2.554                   Wall time [min]:     0.085
 
 Iteration 20  CC energy:   -54.47135436  Energy decrease:   0.00000001
 ======================================================================
 
 Iteration has converged in 20 steps.
 
 Final results:
 Total CCSD energy [au]:             -54.471354361414
 Spin multiplicity:                     2
 
 
 
 Dominant cluster amplitudes
 Printing threshold:  1.00E-02
 
    1.000000  Reference determinant                                     
   -0.174347  1b -> 5b                                                  
   -0.020627  1b -> 13b                                                 
   -0.078114  1b -> 17b                                                 
   -0.319000  2b -> 6b                                                  
   -0.113572  1a -> 5a                                                  
    0.011337  1a -> 10a                                                 
   -0.053653  1a -> 17a                                                 
   -0.010581  1a -> 18a                                                 
   -0.404065  2a -> 6a                                                  
   -0.125960  2a -> 14a                                                 
   -0.300020  3a -> 7a                                                  
   -0.128111  3a -> 15a                                                 
   -0.152149  4a -> 8a                                                  
   -0.014226  4a -> 16a                                                 
   -0.030411  1b 2b -> 5b 6b                                            
    0.019914  1b 2b -> 3b 9b                                            
    0.019971  1b 2b -> 4b 11b                                           
    0.010603  1b 2b -> 6b 13b                                           
    0.011419  1b 2b -> 6b 17b                                           
   -0.018846  1a 1b -> 5a 5b                                            
   -0.015549  1a 1b -> 17a 5b                                           
   -0.015007  1a 1b -> 5a 17b                                           
   -0.017976  1a 1b -> 17a 17b                                          
   -0.033777  2a 2b -> 5a 5b                                            
   -0.010529  2a 2b -> 17a 5b                                           
    0.012826  2a 2b -> 10a 10b                                          
   -0.024575  2a 2b -> 10a 13b                                          
    0.012625  2a 2b -> 13a 13b                                          
   -0.010075  2a 2b -> 18a 22b                                          
   -0.017159  1a 1b -> 6a 6b                                            
   -0.011003  1a 1b -> 6a 14b                                           
   -0.010713  1a 1b -> 14a 14b                                          
   -0.146601  2a 2b -> 6a 6b                                            
   -0.035012  2a 2b -> 14a 6b                                           
   -0.043297  2a 2b -> 6a 14b                                           
   -0.031826  2a 2b -> 14a 14b                                          
   -0.031970  1a 1b -> 7a 3b                                            
   -0.011747  1a 1b -> 7a 7b                                            
   -0.011115  1a 1b -> 7a 15b                                           
   -0.010424  1a 1b -> 15a 15b                                          
   -0.023468  2a 2b -> 7a 3b                                            
   -0.024607  2a 2b -> 9a 9b                                            
   -0.010081  2a 2b -> 19a 19b                                          
   -0.031601  1a 1b -> 8a 4b                                            
   -0.011042  1a 1b -> 16a 4b                                           
   -0.010197  1a 1b -> 16a 16b                                          
   -0.023530  2a 2b -> 8a 4b                                            
   -0.024508  2a 2b -> 11a 11b                                          
   -0.010097  2a 2b -> 20a 20b                                          
   -0.041916  1a 2b -> 5a 6b                                            
   -0.021751  1a 2b -> 17a 6b                                           
   -0.019129  1a 2b -> 5a 14b                                           
   -0.019644  1a 2b -> 17a 14b                                          
   -0.019133  2a 1b -> 5a 6b                                            
    0.014507  2a 1b -> 10a 6b                                           
   -0.016720  2a 1b -> 18a 6b                                           
   -0.014630  2a 1b -> 5a 14b                                           
   -0.012142  2a 1b -> 17a 14b                                          
   -0.020430  1a 2b -> 6a 5b                                            
   -0.011566  1a 2b -> 14a 5b                                           
   -0.010084  1a 2b -> 6a 17b                                           
   -0.010232  1a 2b -> 6a 22b                                           
   -0.041691  2a 1b -> 6a 5b                                            
   -0.021528  2a 1b -> 14a 5b                                           
   -0.022023  2a 1b -> 6a 17b                                           
   -0.021997  2a 1b -> 14a 17b                                          
   -0.010338  1a 2b -> 7a 19b                                           
    0.011054  1a 2b -> 9a 3b                                            
   -0.010141  1a 2b -> 19a 3b                                           
    0.035200  2a 1b -> 9a 3b                                            
   -0.021385  2a 1b -> 19a 3b                                           
    0.011190  1a 2b -> 11a 4b                                           
   -0.010649  1a 2b -> 20a 4b                                           
    0.035601  2a 1b -> 11a 4b                                           
   -0.022490  2a 1b -> 20a 4b                                           
   -0.022718  3a 1b -> 5a 3b                                            
   -0.035696  3a 1b -> 10a 3b                                           
   -0.021303  3a 1b -> 13a 3b                                           
    0.021476  3a 1b -> 18a 3b                                           
   -0.014008  3a 1b -> 22a 3b                                           
   -0.012150  3a 1b -> 5a 7b                                            
   -0.013591  3a 1b -> 5a 15b                                           
   -0.011074  3a 1b -> 17a 15b                                          
   -0.035219  3a 1b -> 7a 5b                                            
   -0.022333  3a 1b -> 15a 5b                                           
   -0.019469  3a 1b -> 7a 17b                                           
   -0.022529  3a 1b -> 15a 17b                                          
    0.015135  3a 1b -> 9a 6b                                            
   -0.016578  3a 1b -> 19a 6b                                           
    0.036830  3a 1b -> 12a 4b                                           
   -0.023619  3a 1b -> 21a 4b                                           
    0.012740  3a 2b -> 10a 9b                                           
    0.012506  3a 2b -> 13a 9b                                           
   -0.062113  3a 2b -> 6a 3b                                            
   -0.018936  3a 2b -> 6a 7b                                            
   -0.011891  3a 2b -> 6a 15b                                           
   -0.088000  3a 2b -> 7a 6b                                            
[...]
   -0.075603  1a 4a -> 5a 7a                                            
    0.047478  1a 4a -> 8a 12a                                           
   -0.016350  1a 4a -> 12a 16a                                          
   -0.044681  2a 4a -> 11a 12a                                          
   -0.017654  2a 4a -> 9a 13a                                           
   -0.010368  2a 4a -> 12a 20a                                          
    0.060146  1a 3a -> 5a 8a                                            
    0.049404  1a 3a -> 7a 12a                                           
   -0.013186  1a 3a -> 12a 15a                                          
    0.015214  2a 3a -> 6a 8a                                            
    0.021942  2a 3a -> 5a 11a                                           
   -0.016045  2a 3a -> 10a 11a                                          
   -0.044181  2a 3a -> 9a 12a                                           
   -0.016104  2a 3a -> 6a 16a                                           
   -0.010876  2a 3a -> 12a 19a                                          
    0.034481  1a 2a -> 6a 12a                                           
   -0.037698  4a 1b 2b -> 5a 3b 6b                                      
    0.030930  4a 1b 2b -> 6a 3b 5b                                      
   -0.012192  4a 1b 2b -> 6a 5b 7b                                      
    0.012300  4a 1b 2b -> 6a 4b 12b                                     
    0.015445  4a 1b 2b -> 7a 5b 6b                                      
   -0.021930  4a 1b 2b -> 7a 4b 11b                                     
   -0.026883  4a 1b 2b -> 9a 4b 8b                                      
    0.015669  4a 1b 2b -> 8a 4b 9b                                      
   -0.025442  4a 1b 2b -> 8a 8b 9b                                      
   -0.016584  4a 1b 2b -> 16a 8b 9b                                     
    0.031202  4a 1b 2b -> 8a 3b 11b                                     
    0.011762  4a 1b 2b -> 16a 3b 11b                                    
   -0.015122  4a 1b 2b -> 8a 7b 11b                                     
   -0.010517  4a 1b 2b -> 16a 7b 11b                                    
   -0.022166  4a 1b 2b -> 8a 6b 12b                                     
   -0.144810  4a 1b 2b -> 11a 3b 4b                                     
   -0.012028  4a 1b 2b -> 11a 4b 7b                                     
   -0.058854  4a 1b 2b -> 12a 4b 6b                                     
   -0.046286  3a 1b 2b -> 5a 4b 6b                                      
    0.021470  3a 1b 2b -> 5a 6b 8b                                      
    0.077463  3a 1b 2b -> 6a 4b 5b                                      
    0.036431  3a 1b 2b -> 7a 4b 9b                                      
    0.013728  3a 1b 2b -> 15a 4b 9b                                     
   -0.021079  3a 1b 2b -> 7a 8b 9b                                      
   -0.013873  3a 1b 2b -> 15a 8b 9b                                     
    0.011793  3a 1b 2b -> 7a 3b 11b                                     
   -0.021876  3a 1b 2b -> 7a 7b 11b                                     
   -0.011487  3a 1b 2b -> 15a 7b 11b                                    
   -0.020576  3a 1b 2b -> 7a 6b 12b                                     
    0.153133  3a 1b 2b -> 9a 3b 4b                                      
   -0.021231  3a 1b 2b -> 9a 4b 7b                                      
   -0.019158  3a 1b 2b -> 9a 3b 8b                                      
    0.070192  3a 1b 2b -> 8a 5b 6b                                      
   -0.023718  3a 1b 2b -> 8a 3b 9b                                      
    0.018321  3a 1b 2b -> 8a 5b 14b                                     
   -0.030656  3a 1b 2b -> 11a 3b 7b                                     
   -0.061270  3a 1b 2b -> 12a 3b 6b                                     
   -0.010793  3a 1b 2b -> 12a 3b 14b                                    
    0.013628  2a 1b 2b -> 5a 3b 4b                                      
   -0.022658  2a 1b 2b -> 13a 3b 4b                                     
    0.037802  2a 1b 2b -> 5a 3b 8b                                      
    0.012001  2a 1b 2b -> 5a 7b 8b                                      
   -0.015327  2a 1b 2b -> 5a 5b 12b                                     
    0.062154  2a 1b 2b -> 6a 4b 9b                                      
    0.013543  2a 1b 2b -> 14a 4b 9b                                     
   -0.028756  2a 1b 2b -> 6a 8b 9b                                      
   -0.014070  2a 1b 2b -> 14a 8b 9b                                     
    0.056330  2a 1b 2b -> 6a 3b 11b                                     
    0.011530  2a 1b 2b -> 14a 3b 11b                                    
   -0.020493  2a 1b 2b -> 6a 7b 11b                                     
   -0.027205  2a 1b 2b -> 6a 6b 12b                                     
   -0.065273  2a 1b 2b -> 9a 4b 6b                                      
   -0.015448  2a 1b 2b -> 9a 6b 8b                                      
   -0.010649  2a 1b 2b -> 9a 4b 14b                                     
   -0.112264  2a 1b 2b -> 8a 3b 5b                                      
    0.029091  2a 1b 2b -> 8a 5b 7b                                      
    0.020135  2a 1b 2b -> 8a 5b 15b                                     
   -0.064286  2a 1b 2b -> 11a 3b 6b                                     
   -0.013017  2a 1b 2b -> 11a 6b 7b                                     
   -0.011205  2a 1b 2b -> 11a 3b 14b                                    
    0.026202  1a 1b 2b -> 5a 4b 9b                                      
    0.021279  1a 1b 2b -> 5a 3b 11b                                     
   -0.021150  1a 1b 2b -> 5a 6b 12b                                     
   -0.017505  1a 1b 2b -> 9a 4b 5b                                      
   -0.010975  1a 1b 2b -> 8a 3b 6b                                      
   -0.014415  1a 1b 2b -> 8a 5b 9b                                      
   -0.020288  1a 1b 2b -> 11a 3b 5b                                     
   -0.017680  1a 1b 2b -> 12a 5b 6b                                     
    0.018035  1a 1b 2b -> 12a 3b 9b                                     
    0.018052  1a 1b 2b -> 12a 4b 11b                                    
    0.019685  3a 4a 1b -> 8a 16a 5b                                     
   -0.070018  3a 4a 1b -> 5a 7a 3b                                      
    0.048697  3a 4a 1b -> 8a 12a 3b                                     
   -0.019033  3a 4a 1b -> 12a 16a 3b                                    
   -0.016971  3a 4a 1b -> 5a 7a 7b                                      
   -0.061266  3a 4a 1b -> 5a 8a 4b                                      
   -0.051198  3a 4a 1b -> 7a 12a 4b                                     
    0.015300  3a 4a 1b -> 12a 15a 4b                                    
   -0.020933  3a 4a 1b -> 5a 8a 8b                                      
    0.011397  3a 4a 1b -> 7a 8a 12b                                     
   -0.013943  3a 4a 2b -> 5a 10a 6b                                     
   -0.033963  3a 4a 2b -> 5a 13a 6b                                     
    0.010358  3a 4a 2b -> 6a 13a 5b                                     
    0.024262  3a 4a 2b -> 5a 9a 3b                                      
   -0.040775  3a 4a 2b -> 11a 12a 3b                                    
   -0.014362  3a 4a 2b -> 9a 13a 3b                                     
   -0.010484  3a 4a 2b -> 12a 20a 3b                                    
    0.017753  3a 4a 2b -> 5a 8a 11b                                     
    0.013007  3a 4a 2b -> 10a 11a 4b                                    
    0.043364  3a 4a 2b -> 9a 12a 4b                                     
    0.010032  2a 4a 2b -> 5a 13a 3b                                     
   -0.023025  2a 4a 2b -> 5a 6a 9b                                      
    0.015545  1a 4a 1b -> 8a 12a 5b                                     
    0.025642  2a 4a 2b -> 5a 7a 5b                                      
   -0.032117  2a 4a 2b -> 8a 12a 5b                                     
    0.010059  2a 4a 2b -> 12a 16a 5b                                    
   -0.013660  2a 4a 2b -> 5a 7a 10b                                     
   -0.014487  2a 4a 2b -> 5a 9a 6b                                      
   -0.019326  2a 4a 2b -> 11a 12a 6b                                    
   -0.024631  2a 4a 2b -> 5a 8a 12b                                     
   -0.013852  2a 4a 2b -> 6a 11a 12b                                    
   -0.012341  2a 4a 2b -> 5a 16a 12b                                    
   -0.022196  1a 4a 1b -> 5a 12a 4b                                     
    0.012065  1a 4a 1b -> 12a 13a 4b                                    
    0.092342  2a 4a 2b -> 5a 12a 4b                                     
    0.028154  2a 4a 2b -> 10a 12a 4b                                    
    0.021322  2a 4a 2b -> 12a 13a 4b                                    
   -0.010731  2a 4a 2b -> 8a 15a 4b                                     
   -0.010778  2a 4a 2b -> 7a 16a 4b                                     
    0.010283  2a 4a 2b -> 12a 18a 4b                                    
    0.016850  2a 4a 2b -> 5a 12a 8b                                     
    0.015064  2a 4a 2b -> 6a 12a 11b                                    
   -0.030761  1a 4a 2b -> 5a 6a 3b                                      
   -0.020767  1a 4a 2b -> 8a 11a 3b                                     
    0.022153  2a 4a 1b -> 8a 11a 3b                                     
   -0.011063  2a 4a 1b -> 11a 16a 3b                                    
   -0.043572  1a 4a 2b -> 5a 7a 6b                                      
    0.024627  1a 4a 2b -> 8a 12a 6b                                     
   -0.011893  1a 4a 2b -> 5a 7a 14b                                     
    0.015764  2a 4a 1b -> 8a 12a 6b                                     
    0.013174  2a 4a 1b -> 6a 7a 5b                                      
    0.012601  2a 4a 1b -> 6a 8a 12b                                     
    0.018768  1a 4a 2b -> 7a 11a 4b                                     
   -0.017616  1a 4a 2b -> 6a 12a 4b                                     
    0.011708  1a 4a 2b -> 8a 9a 8b                                      
    0.019419  2a 4a 1b -> 8a 9a 4b                                      
   -0.044751  2a 4a 1b -> 6a 12a 4b                                     
    0.013574  2a 4a 1b -> 12a 14a 4b                                    
   -0.012815  2a 4a 1b -> 9a 16a 4b                                     
   -0.010642  2a 4a 1b -> 8a 9a 8b                                      
   -0.011496  2a 3a 2b -> 5a 10a 4b                                     
   -0.021441  2a 3a 2b -> 5a 6a 11b                                     
   -0.032084  2a 3a 2b -> 5a 7a 12b                                     
   -0.012594  2a 3a 2b -> 6a 9a 12b                                     
   -0.012790  2a 3a 2b -> 5a 15a 12b                                    
    0.029734  1a 3a 1b -> 5a 8a 5b                                      
    0.016935  1a 3a 1b -> 7a 12a 5b                                     
   -0.010589  1a 3a 1b -> 8a 17a 5b                                     
    0.012994  2a 3a 2b -> 5a 8a 5b                                      
    0.024145  2a 3a 2b -> 8a 10a 5b                                     
   -0.013955  2a 3a 2b -> 6a 11a 5b                                     
   -0.022873  2a 3a 2b -> 7a 12a 5b                                     
   -0.013789  2a 3a 2b -> 8a 18a 5b                                     
   -0.019624  2a 3a 2b -> 9a 12a 6b                                     
   -0.011463  1a 3a 1b -> 5a 12a 3b                                     
    0.011205  1a 3a 1b -> 12a 17a 3b                                    
    0.030207  2a 3a 2b -> 5a 12a 3b                                     
    0.025997  2a 3a 2b -> 10a 12a 3b                                    
    0.017787  2a 3a 2b -> 12a 13a 3b                                    
   -0.010379  2a 3a 2b -> 8a 15a 3b                                     
    0.010471  2a 3a 2b -> 12a 18a 3b                                    
    0.013736  2a 3a 2b -> 6a 12a 9b                                     
    0.066035  1a 3a 2b -> 5a 6a 4b                                      
   -0.022410  1a 3a 2b -> 7a 9a 4b                                      
    0.012115  1a 3a 2b -> 5a 6a 8b                                      
   -0.051144  2a 3a 1b -> 5a 6a 4b                                      
    0.020858  2a 3a 1b -> 7a 9a 4b                                      
    0.012472  2a 3a 1b -> 6a 7a 12b                                     
    0.030181  1a 3a 2b -> 5a 8a 6b                                      
    0.025975  1a 3a 2b -> 7a 12a 6b                                     
    0.015977  2a 3a 1b -> 7a 12a 6b                                     
    0.016220  1a 3a 2b -> 6a 8a 5b                                      
    0.044466  2a 3a 1b -> 6a 8a 5b                                      
   -0.015565  2a 3a 1b -> 8a 14a 5b                                     
    0.016669  1a 3a 2b -> 8a 9a 3b                                      
   -0.010481  1a 3a 2b -> 7a 11a 3b                                     
   -0.018068  1a 3a 2b -> 6a 12a 3b                                     
    0.010782  1a 3a 2b -> 7a 11a 7b                                     
    0.020408  2a 3a 1b -> 7a 11a 3b                                     
   -0.049592  2a 3a 1b -> 6a 12a 3b                                     
    0.016509  2a 3a 1b -> 12a 14a 3b                                    
   -0.012519  2a 3a 1b -> 11a 15a 3b                                    
   -0.110723  1a 2a 2b -> 5a 7a 4b                                      
   -0.037330  1a 2a 2b -> 6a 9a 4b                                      
    0.012126  1a 2a 2b -> 6a 9a 8b                                      
   -0.010228  1a 2a 2b -> 5a 7a 16b                                     
   -0.044882  1a 2a 2b -> 5a 8a 3b                                      
   -0.037373  1a 2a 2b -> 6a 11a 3b                                     
    0.011641  1a 2a 2b -> 5a 12a 5b                                     
    0.024340  1a 2a 2b -> 6a 12a 6b                                     
    0.015963  1a 2a 1b -> 6a 12a 5b                                     
   -0.016630  1a 3a 4a -> 7a 8a 12a                                     
    0.011062  1a 3a 4a -> 5a 7a 15a                                     
    0.010124  1a 3a 4a -> 5a 8a 16a                                     
   -0.011034  2a 3a 4a -> 5a 7a 9a                                      
   -0.020294  1a 2a 4a -> 5a 6a 7a                                      
   -0.012748  1a 2a 4a -> 6a 8a 12a                                     
    0.023533  1a 2a 3a -> 5a 6a 8a                                      
   -0.014264  1a 2a 3a -> 6a 7a 12a                                     
    0.010362  3a 4a 1b 2b -> 8a 16a 5b 6b                               
   -0.012117  3a 4a 1b 2b -> 5a 7a 3b 6b                                
    0.025856  3a 4a 1b 2b -> 8a 12a 3b 6b                               
   -0.017782  3a 4a 1b 2b -> 6a 7a 3b 5b                                
   -0.042111  3a 4a 1b 2b -> 5a 8a 4b 6b                                
   -0.026468  3a 4a 1b 2b -> 7a 12a 4b 6b                               
    0.010371  3a 4a 1b 2b -> 5a 8a 6b 8b                                
    0.027418  3a 4a 1b 2b -> 6a 8a 4b 5b                                
    0.012285  3a 4a 1b 2b -> 6a 16a 4b 5b                               
   -0.010730  3a 4a 1b 2b -> 7a 8a 8b 9b                                
   -0.010213  3a 4a 1b 2b -> 7a 8a 6b 12b                               
    0.017760  3a 4a 1b 2b -> 6a 12a 3b 4b                               
   -0.020758  2a 4a 1b 2b -> 8a 16a 3b 5b                               
    0.016013  2a 4a 1b 2b -> 5a 6a 3b 6b                                
    0.016046  2a 4a 1b 2b -> 8a 11a 3b 6b                               
    0.014592  2a 4a 1b 2b -> 6a 7a 5b 6b                                
   -0.038706  2a 4a 1b 2b -> 5a 8a 3b 4b                                
   -0.019824  2a 4a 1b 2b -> 6a 11a 3b 4b                               
    0.012790  2a 4a 1b 2b -> 5a 8a 4b 7b                                
    0.020331  2a 4a 1b 2b -> 5a 8a 3b 8b                                
    0.012736  2a 4a 1b 2b -> 5a 16a 3b 8b                               
    0.013080  2a 4a 1b 2b -> 6a 8a 4b 9b                                
   -0.014156  2a 4a 1b 2b -> 6a 8a 8b 9b                                
    0.014671  2a 4a 1b 2b -> 6a 8a 3b 11b                               
   -0.014722  2a 4a 1b 2b -> 6a 8a 6b 12b                               
   -0.014071  2a 4a 1b 2b -> 7a 8a 4b 5b                                
   -0.016897  2a 4a 1b 2b -> 5a 12a 4b 5b                               
    0.014904  2a 4a 1b 2b -> 8a 9a 4b 6b                                
   -0.033094  2a 4a 1b 2b -> 6a 12a 4b 6b                               
   -0.012408  2a 3a 1b 2b -> 6a 14a 4b 5b                               
    0.015709  2a 3a 1b 2b -> 7a 9a 4b 6b                                
    0.076309  2a 3a 1b 2b -> 5a 7a 3b 4b                                
    0.019231  2a 3a 1b 2b -> 6a 9a 3b 4b                                
    0.024192  2a 3a 1b 2b -> 5a 7a 3b 8b                                
    0.016399  2a 3a 1b 2b -> 6a 7a 4b 9b                                
   -0.013387  2a 3a 1b 2b -> 6a 7a 8b 9b                                
    0.011028  2a 3a 1b 2b -> 6a 7a 3b 11b                               
   -0.014116  2a 3a 1b 2b -> 6a 7a 6b 12b                               
    0.033599  2a 3a 1b 2b -> 6a 8a 5b 6b                                
    0.036680  2a 3a 1b 2b -> 7a 8a 3b 5b                                
   -0.017669  2a 3a 1b 2b -> 8a 15a 3b 5b                               
    0.016103  2a 3a 1b 2b -> 7a 11a 3b 6b                               
   -0.034860  2a 3a 1b 2b -> 6a 12a 3b 6b                               
    0.017358  1a 3a 1b 2b -> 5a 8a 5b 6b                                
    0.010113  1a 3a 1b 2b -> 7a 12a 5b 6b                               
   -0.016506  1a 2a 1b 2b -> 5a 8a 3b 5b                                
    0.011804  1a 2a 1b 2b -> 8a 17a 3b 5b                               
    0.012004  1a 2a 1b 2b -> 6a 12a 5b 6b                               
    0.013663  2a 3a 4a 2b -> 7a 8a 12a 5b                               
    0.020861  2a 3a 4a 2b -> 5a 7a 12a 4b                               
   -0.013396  1a 3a 4a 2b -> 7a 8a 12a 6b                               
    0.016093  2a 3a 4a 1b -> 5a 6a 7a 3b                                
    0.014701  2a 3a 4a 1b -> 6a 8a 12a 3b                               
   -0.014717  2a 3a 4a 1b -> 6a 7a 12a 4b                               
   -0.017752  1a 2a 4a 2b -> 5a 6a 7a 6b                                
   -0.013178  1a 2a 4a 2b -> 6a 8a 12a 6b                               
   -0.017486  1a 2a 4a 2b -> 5a 7a 8a 4b                                
   -0.012272  1a 2a 3a 2b -> 5a 7a 15a 4b                               
    0.016494  1a 2a 3a 2b -> 5a 6a 8a 6b                                
   -0.014306  1a 2a 3a 2b -> 6a 7a 12a 6b                               
    0.011443  1a 2a 3a 1b -> 5a 6a 8a 5b                                
 
 ************************ 2018-06-13 21:52:13 *************************
                      Normal termination of mrcc.
 **********************************************************************
--- SharcNET Job Epilogue ---
Job completed successfully.
               jobid: 1548543
               resid: 3028160
         exit status: 0
      allocated time: 223.484
           user time: 5342.69
         system time: 960.07
peak rss=167153664; peak vsz=167153664 (bytes)
atime=223.484; utime=5342.69; stime=960.07; exit=0
