 --invoking executable--
/home/nike/cfour_v2.00beta/bin/xjoda


   *************************************************************************
         <<<     CCCCCC     CCCCCC   |||     CCCCCC     CCCCCC   >>>
       <<<      CCC        CCC       |||    CCC        CCC         >>>
      <<<      CCC        CCC        |||   CCC        CCC            >>>
    <<<        CCC        CCC        |||   CCC        CCC              >>>
      <<<      CCC        CCC        |||   CCC        CCC            >>>
       <<<      CCC        CCC       |||    CCC        CCC         >>>
         <<<     CCCCCC     CCCCCC   |||     CCCCCC     CCCCCC   >>>
   *************************************************************************

     ****************************************************************
     * CFOUR Coupled-Cluster techniques for Computational Chemistry *
     ****************************************************************
 

   Department of Chemistry                Institut fuer Physikalische Chemie
   University of Texas at Austin          Universitaet Mainz
   Austin, TX  78712, USA                 D-55099 Mainz, Germany
 
                       Version 2.00beta
 
                     wob101                                            
                     Mon Apr  2 01:48:15 EDT 2018                      
                     integer*8 version is running
 
********************************************************************************
*                          Input from ZMAT file                                *
********************************************************************************
TITLE                                                                           
N                                                                               
                                                                                
*ACES2(CALC=CCSD                                                                
INPUT_MRCC=OFF                                                                  
CC_PROG=MRCC                                                                    
XFORM_TOL=18                                                                    
SAVE_INTS=ON                                                                    
SCF_EXPORDER=6                                                                  
SCF_EXPSTART=5                                                                  
#SCF_DAMPING=1000                                                               
SCF_EXTRAPOLATION=ON                                                            
SCF_CONV=10                                                                     
SCF_MAXCYC=9999                                                                 
CC_CONV=10                                                                      
CC_MAXCYC=999                                                                   
T3_EXTRAPOL=ON                                                                  
REFERENCE=ROHF                                                                  
CHARGE=+1                                                                       
MULT=3                                                                          
ABCDTYPE=STANDARD                                                               
OCCUPATION=2-1-1-0-0-0-0-0/2-0-0-0-0-0-0-0                                      
MEM=32                                                                          
MEM_UNIT=GB                                                                     
BASIS=SPECIAL)                                                                  
                                                                                
N:aCVTZ-EMSL                                                                    
                                                                                
********************************************************************************
  @GTFLGS-W, Keyword #SCF_DAMPING not known and is ignored.
    -------------------------------------------------------------------
                    CFOUR Control Parameters 
    -------------------------------------------------------------------
        External           Internal           Value            Units
          Name               Name
    -------------------------------------------------------------------
       ABCDTYPE             IABCDT         STANDARD     [  0]   ***   
       ANHARMONIC           IANHAR         OFF          [  0]   ***   
       ANH_ALGORIT          IANALG         STANDARD     [  0]   ***   
       ANH_DERIVAT          IANDER         SECOND       [  1]   ***   
       ANH_STEPSIZ          ICUBST             50000          x 10-6  
       ANH_SYMMETR          IANHSM         ABELIAN      [  0]   ***   
       AO_LADDERS           IAOLAD         SINGLEPASS   [  1]   ***   
       BASIS                IBASIS         SPECIAL      [  0]   ***   
       BREIT                IBREIT         OFF          [  0]   ***   
       BRUCK_CONV           IBRTOL          10D-  4             ***   
       BRUECKNER            IBRKNR             OFF      [  0]   ***   
       BUFFERSIZE           IBUFFS            600               ***   
       CACHE_RECS           ICHREC             10               ***   
       CALCLEVEL            ICLLVL           CCSD       [ 10]   ***   
       CCORBOPT             ICCORB             OFF      [  0] x 0.01  
       CC_CONV              ICCCNV          10D- 10             ***   
       CC_EXPORDER          ICCEOR              5               ***   
       CC_EXTRAPOL          ICCEXT             DIIS     [  1]   ***   
       CC_MAXCYC            ICCCYC            999              cycles 
       CC_PROGRAM           ICCPRO         MRCC         [  2]   ***   
       CHARGE               ICHRGE              1               ***   
       CHOLESKY             ICHOLE         OFF          [  0]   ***   
       CIS_CONV             ICISTL              5               ***   
       COMM_SIZE            IPSIZE            ***               ***   
       CONSTANT             ICONST         OLD          [  1]   ***   
       CONTINUUM            ICONTU         NONE         [  0]   ***   
       CONTRACTION          ICNTYP          GENERAL     [  1]   ***   
       COORDINATES          ICOORD         INTERNAL     [  0]   ***   
       CPHF_CONVER          ICPHFT          10D- 16             ***   
       CPHF_MAXCYC          ICPHFC             64              cycles 
       CUBIC                ICUBIC         OFF          [  0]   ***   
       CURVILINEAR          ICURVY            OFF       [  0]   ***   
       DBOC                 IDBOC          OFF          [  0]   ***   
       DCT                  IDCT           OFF          [  0]   ***   
       DERIV_LEV            IDRLVL            ZERO      [  0]   ***   
       DIAG_MRCC            IEOMST          10D-  0             ***   
       DIFF_TYPE            IDIFTY         RELAXED      [  0]   ***   
       DIRECT               IDIRCT         OFF          [  0]   ***   
       DROPMO               IDRPMO      NONE         
       ECP                  IECP           OFF          [  0]   ***   
       EIGENVECTOR          IVEC                1               ***   
       EL_ANHARM            IELANH         OFF          [  0]   ***   
       EOMFOLLOW            IEOMSR         ENERGY       [  0]   ***   
       EOM_MRCC             IMRCCE         NEW          [  1]   ***   
       EOM_NONIT            EOMNON         OFF          [  0]   ***   
       EOM_NSING            IEOMSI          10D-  0             ***   
       EOM_NSTATES          IMRCCD         DAVIDSON     [  0]   ***   
       EOM_NTRIP            IEOMTR          10D-  0             ***   
       EOM_ORDER            IEXORD         ENERGY       [  0]   ***   
       ESTATE_CONV          IEXTOL          10D-  5             ***   
       ESTATE_DIAG          IEXDIG         ITERATIVE    [  0]   ***   
       ESTATE_LOCK          IESLOC         ON           [  1]   ***   
       ESTATE_MAXC          IEXMXC             20               ***   
       ESTATE_PROP          IEXPRP         OFF          [  0]   ***   
       EVAL_HESS            IRECAL              0            # of cyc.
       EXCITATION           IEXCIT              0               ***   
       EXCITE               IEXCIT         NONE         [  0]   ***   
       FCGRADNEW            IFCGNW         OFF          [  0]   ***   
       FC_FIELD             IFINFC              0             x 10-6  
       FD_CALTYPE           IFDCAL         GRADONLY     [  0]   ***   
       FD_PROJECT           IFDPRJ         OFF          [  1]   ***   
       FD_STEPSIZE          IDISFD              0            10-4 bohr
       FD_USEGROUP          IFDGRP         FULL         [  0]   ***   
       FILE_RECSIZ          IFLREC              4096           words  
       FINITE_PERT          IFIPER              0             x 10-6  
       FIXGEOM              IFIXGM         OFF          [  0]   ***   
       FOCK                 IFOCK          AO           [  1]   ***   
       FREQ_ALGORI          IVIALG         STANDARD     [  0]   ***   
       FROZEN_CORE          IFROCO         OFF          [  0]   ***   
       FROZEN_VIRT          IFROVI         OFF          [  0]   ***   
       GAMMA_ABCD           IGABCD         STORE        [  0]   ***   
       GAMMA_ABCI           IGABCI         STORE        [  0]   ***   
       GENBAS_1             IGNBS1              0               ***   
       GENBAS_2             IGNBS2              0               ***   
       GENBAS_3             IGNBS3              0               ***   
       GENBAS_4             IGNBS4              0               ***   
       GEO_CONV             ICONTL              5              H/bohr 
       GEO_MAXCYC           IOPTCY             50               ***   
       GEO_MAXSTEP          IMXSTP            300            millibohr
       GEO_METHOD           INR            SINGLE_POINT [  5]   ***   
       GIAO                 IGIAO          OFF          [  1]   ***   
       GIMIC                IGIMIC         OFF          [  0]   ***   
       GRID                 IGRID          OFF          [  0]   ***   
       GRID_ALGO            IGALGO         SERIAL       [  0]   ***   
       GUESS                IGUESS            MOREAD    [  0]   ***   
       HBAR                 IHBAR              OFF      [  0]   ***   
       HESS_TYPE            IHESTP         SCF          [  0]   ***   
       HF2_FILE             IHF2Fl         USE          [  1]   ***   
       HFSTABILITY          ISTABL         OFF          [  0]   ***   
       INCORE               INCORE             OFF      [  0]   ***   
       INPUT_MRCC           IMRCC          OFF          [  0]   ***   
       INTEGRALS            INTTYP             VMOL     [  1]   ***   
       JODA_PRINT           IJPRNT              0               ***   
       LINDEP_TOL           ILINDP              8               ***   
       LINEQ_CONV           IZTACN          10D-  7           cycles  
       LINEQ_EXPOR          ILMAXD              5               ***   
       LINEQ_MAXCY          ILMAXC             50               ***   
       LINEQ_TYPE           ILTYPE         DIIS         [  1]   ***   
       LOCK_ORBOCC          ILOCOC             OFF      [  0]   ***   
       MEMORY_SIZE          IMEMSZ         *********           words  
       MEM_UNIT             IMEMU          GB           [  3]   ***   
       MRCC                 IMRCCC         OFF          [  0]   ***   
       MULTIPLICTY          IMULTP              3               ***   
       NEGEVAL              IDIE             ABORT      [  0]   ***   
       NEWNORM              INEWNO         OFF          [  0]   ***   
       NON-HF               INONHF              ON      [  1]   ***   
       NTOP_TAMP            ITOPT2             15               ***   
       NUC_MODEL            INUCMO         POINT        [  0]   ***   
       OCCUPATION           IOCCU  A   2,  1,  1,  0,  0,  0,  0,  0,
                                   B   2,  0,  0,  0,  0,  0,  0,  0,
       OPEN-SHELL           IOPEN          SPIN-ORBITAL [  0]   ***   
       ORBITALS             IORBTP         SEMICANONICAL[  1]   ***   
       PARALLEL             IPARAL         ON           [  1]   ***   
       PARA_INT             IPINTS         ON           [  1]   ***   
       PARA_PRINT           IPPRIN              0               ***   
       PERT_ORB             IPTORB         STANDARD     [  0]   ***   
       POINTS               IGRDFD              0               ***   
       PRINT                IPRNT               0               ***   
       PROPS                IPROPS             OFF      [  0]   ***   
       PROP_INTEGR          IINTYP         INTERNAL     [  0]   ***   
       PSI                  IPSI           OFF          [  0]   ***   
       QUARTIC              IQUART         OFF          [  0]   ***   
       RAMAN_INT            IRAMIN         OFF          [  0]   ***   
       RAMAN_ORB            IRAMRE         UNRELAXED    [  0]   ***   
       RDO                  IRDOFM             OFF      [  0]   ***   
       REFERENCE            IREFNC             ROHF     [  2]   ***   
       RELATIVIST           IRELAT         OFF          [  0]   ***   
       RELAX_DENS           IRDENS             OFF      [  0]   ***   
       RESET_FLAGS          IRESET             OFF      [  0]   ***   
       RESTART_CC           ICCRES         OFF          [  0]   ***   
       ROT_EVEC             ROTVEC              0               ***   
       SAVE_INTS            ISVINT              ON      [  1]   ***   
       SCALE_ON             ISTCRT              0               ***   
       SCF_CONV             ISCFCV          10D- 10             ***   
       SCF_DAMPING          IDAMP               0             x 10-3  
       SCF_EXPORDE          IRPPOR              6               ***   
       SCF_EXPSTAR          IRPPLS              5               ***   
       SCF_EXTRAPO          IRPP                ON      [  1]   ***   
       SCF_MAXCYC           ISCFCY            ***              cycles 
       SCF_NOSTOP           ISCFST         OFF          [  0]   ***   
       SCF_PRINT            ISCFPR              0               ***   
       SD_FIELD             IFINSD              0             x 10-6  
       SEQUENCE             ISEQUE         OFF          [  0]   ***   
       SOPERT               IPERSO         OFF          [  0]   ***   
       SPHERICAL            IDFGHI             ON       [  1]   ***   
       SPINORBIT            ISOCAL         OFF          [  0]   ***   
       SPINROTATIO          ISRCON         OFF          [  0]   ***   
       SPIN_FLIP            ISPFLP         OFF          [  0]   ***   
       SPIN_ORBIT           ISPORB         OFF          [  0]   ***   
       SPIN_SCAL            ISCSMP         OFF          [  0]   ***   
       SUBGROUP             ISUBGP         DEFAULT      [  0]   ***   
       SUBGRPAXIS           ISBXYZ         X            [  0]   ***   
       SYMMETRY             ISYM             ON         [  0]   ***   
       SYM_CHECK            ISYMCK         OVERRIDE     [  1]   ***   
       T3_EXTRAPOL          IT3EXT         ON           [  1]   ***   
       TAMP_SUM             IEVERY              5               ***   
       TESTSUITE            ITESTS         OFF          [  0]   ***   
       THERMOCH             ITHERM         OFF          [  0]   ***   
       TOL_CHOLESK          ITOLCH          10D-  4             ***   
       TRANGRAD             IRESRM         OFF          [  0]   ***   
       TRANS_INV            ITRAIN         USE          [  0]   ***   
       TREAT_PERT           ITREAT         SIMULTANEOUS [  0]   ***   
       UIJ_THRESHO          IUIJTH              1               ***   
       UNITS                IUNITS         ANGSTROM     [  0]   ***   
       UNOS                 IUNOS          OFF          [  0]   ***   
       UPDATE_HESS          IHUPDT         ON           [  1]   ***   
       VIBPHASE             ISETPH         STANDARD     [  0]   ***   
       VIBRATION            IVIB              NO        [  0]   ***   
       VIB_ALGORIT          IGEALG         STANDARD     [  0]   ***   
       VNATORB              IVNORB         OFF          [  0]   ***   
       VTRAN                IVTRAN         FULL/PARTIAL [  0]   ***   
       XFIELD               IXEFLD              0             x 10-6  
       XFORM_TOL            IXFTOL          10D- 18             ***   
       YFIELD               IYEFLD              0             x 10-6  
       ZFIELD               IZEFLD              0             x 10-6  
    -------------------------------------------------------------------
   1 entries found in Z-matrix 
   Job Title : TITLE                                                                           
  1  N          7    14.00307
 factor:   60.1997200000000     
   Rotational constants (in cm-1): 

   Rotational constants (in MHz): 

********************************************************************************
   The full molecular point group is I h .
   The largest Abelian subgroup of the full molecular point group is D2h .
   The computational point group is D2h .
********************************************************************************
  @GTFLGS-W, Keyword #SCF_DAMPING not known and is ignored.
  There are   59 basis functions.
 @GEOPT-W, Archive file not created for single-point calculation.
  @CHECKOUT-I, Total execution time (CPU/WALL):        0.21/       2.08 seconds.
--executable xjoda finished with status     0 in        2.29 seconds (walltime).
 --invoking executable--
/home/nike/cfour_v2.00beta/bin/xvmol
 Serial version of molecule started
********************************************************************************
                    Input from MOL file
********************************************************************************
INTGRL        1    0    1    0    0    0    0    0    0                         
         *** CFOUR Program System (Release V0.1) ***                            
TITLE                                                                           
    1    3 X  Y   Z   0.10E-08              0    0                              
   9999.00      3.00                                                            
          7.00000000    1    4    1    1    1    1                              
N #1   0.000000000000000   0.000000000000000   0.000000000000000                
   13    7                                                                      
   11420.0000000000       5.230000000000000E-004 -1.150000000000000E-004        
  0.000000000000000E+000  0.000000000000000E+000  0.000000000000000E+000        
  0.000000000000000E+000  0.000000000000000E+000                                
   1712.00000000000       4.045000000000000E-003 -8.950000000000000E-004        
  0.000000000000000E+000  0.000000000000000E+000  0.000000000000000E+000        
  0.000000000000000E+000  0.000000000000000E+000                                
   389.300000000000       2.077500000000000E-002 -4.624000000000000E-003        
  0.000000000000000E+000  0.000000000000000E+000  0.000000000000000E+000        
  0.000000000000000E+000  0.000000000000000E+000                                
   110.000000000000       8.072699999999999E-002 -1.852800000000000E-002        
  0.000000000000000E+000  0.000000000000000E+000  0.000000000000000E+000        
  0.000000000000000E+000  0.000000000000000E+000                                
   35.5700000000000       0.233074000000000      -5.733900000000000E-002        
  0.000000000000000E+000  0.000000000000000E+000  0.000000000000000E+000        
  0.000000000000000E+000  0.000000000000000E+000                                
   12.5400000000000       0.433501000000000      -0.132076000000000             
  0.000000000000000E+000  0.000000000000000E+000  0.000000000000000E+000        
  0.000000000000000E+000  0.000000000000000E+000                                
   4.64400000000000       0.347472000000000      -0.172510000000000             
  0.000000000000000E+000  0.000000000000000E+000  0.000000000000000E+000        
  0.000000000000000E+000  0.000000000000000E+000                                
   1.29300000000000       4.126200000000000E-002  0.151814000000000             
   1.00000000000000       0.000000000000000E+000  0.000000000000000E+000        
  0.000000000000000E+000  0.000000000000000E+000                                
  0.511800000000000      -8.508000000000000E-003  0.599944000000000             
  0.000000000000000E+000  0.000000000000000E+000  0.000000000000000E+000        
  0.000000000000000E+000  0.000000000000000E+000                                
  0.178700000000000       2.384000000000000E-003  0.387462000000000             
  0.000000000000000E+000   1.00000000000000       0.000000000000000E+000        
  0.000000000000000E+000  0.000000000000000E+000                                
   5.95200000000000       0.000000000000000E+000  0.000000000000000E+000        
  0.000000000000000E+000  0.000000000000000E+000   1.00000000000000             
  0.000000000000000E+000  0.000000000000000E+000                                
   16.2010000000000       0.000000000000000E+000  0.000000000000000E+000        
  0.000000000000000E+000  0.000000000000000E+000  0.000000000000000E+000        
   1.00000000000000       0.000000000000000E+000                                
  5.760000000000000E-002  0.000000000000000E+000  0.000000000000000E+000        
  0.000000000000000E+000  0.000000000000000E+000  0.000000000000000E+000        
  0.000000000000000E+000   1.00000000000000                                     
    8    6                                                                      
   26.6300000000000       1.467000000000000E-002  0.000000000000000E+000        
  0.000000000000000E+000  0.000000000000000E+000  0.000000000000000E+000        
  0.000000000000000E+000                                                        
   5.94800000000000       9.176400000000000E-002  0.000000000000000E+000        
  0.000000000000000E+000  0.000000000000000E+000  0.000000000000000E+000        
  0.000000000000000E+000                                                        
   1.74200000000000       0.298683000000000       0.000000000000000E+000        
  0.000000000000000E+000  0.000000000000000E+000  0.000000000000000E+000        
  0.000000000000000E+000                                                        
  0.555000000000000       0.498487000000000        1.00000000000000             
  0.000000000000000E+000  0.000000000000000E+000  0.000000000000000E+000        
  0.000000000000000E+000                                                        
  0.172500000000000       0.337023000000000       0.000000000000000E+000        
   1.00000000000000       0.000000000000000E+000  0.000000000000000E+000        
  0.000000000000000E+000                                                        
   11.8710000000000       0.000000000000000E+000  0.000000000000000E+000        
  0.000000000000000E+000   1.00000000000000       0.000000000000000E+000        
  0.000000000000000E+000                                                        
   44.8490000000000       0.000000000000000E+000  0.000000000000000E+000        
  0.000000000000000E+000  0.000000000000000E+000   1.00000000000000             
  0.000000000000000E+000                                                        
  4.910000000000000E-002  0.000000000000000E+000  0.000000000000000E+000        
  0.000000000000000E+000  0.000000000000000E+000  0.000000000000000E+000        
   1.00000000000000                                                             
    4    4                                                                      
   1.65400000000000        1.00000000000000       0.000000000000000E+000        
  0.000000000000000E+000  0.000000000000000E+000                                
  0.469000000000000       0.000000000000000E+000   1.00000000000000             
  0.000000000000000E+000  0.000000000000000E+000                                
   14.2000000000000       0.000000000000000E+000  0.000000000000000E+000        
   1.00000000000000       0.000000000000000E+000                                
  0.151000000000000       0.000000000000000E+000  0.000000000000000E+000        
  0.000000000000000E+000   1.00000000000000                                     
    2    2                                                                      
   1.09300000000000        1.00000000000000       0.000000000000000E+000        
  0.364000000000000       0.000000000000000E+000   1.00000000000000             
FINISH                                                                          
 
********************************************************************************
 One- and two-electron integrals over symmetry-adapted AOs are calculated.

  Spherical harmonics are used.
  
  Integrals less than  0.10E-13 are neglected.

  Nuclear repulsion energy :    0.0000000000 a.u.
  required memory for a1 array                5208952  words 
  required memory for a2 array                2664637  words 
 @GETMEM-I,  Allocated      75 MB of main memory.
  @MOLECU-I, One electron integrals (CPU/WALL):        0.03/       0.28 seconds.
  @TWOEL-I,       7249 integrals of symmetry type  I I I I
  @TWOEL-I,      48301 integrals of symmetry type  I J I J
  @TWOEL-I,      30259 integrals of symmetry type  I I J J
  @TWOEL-I,      80993 integrals of symmetry type  I J K L
  @TWOEL-I, Total number of 2-e integrals     166802.
  @MOLECU-I, Two electron integrals (CPU/WALL):        0.24/       1.10 seconds.
  @CHECKOUT-I, Total execution time (CPU/WALL):        0.28/       1.62 seconds.
--executable xvmol finished with status     0 in        1.79 seconds (walltime).
 --invoking executable--
/home/nike/cfour_v2.00beta/bin/xvmol2ja
 @GETMEM-I,  Allocated   30517 MB of main memory.
  @CHECKOUT-I, Total execution time (CPU/WALL):        0.00/       0.33 seconds.
--executable xvmol2ja finished with status     0 in        0.47 seconds (walltime).
 --invoking executable--
/home/nike/cfour_v2.00beta/bin/xvscf
  There are   59 functions in the AO basis.

  There are 8 irreducible representations.

       Irrep        # of functions
         1                 15
         2                 10
         3                 10
         4                  4
         5                 10
         6                  4
         7                  4
         8                  2


  Parameters for SCF calculation: 
        SCF reference function: ROHF  
  Maximum number of iterations: 9999
     Full symmetry point group: I h 
     Computational point group: D2h 
        Initial density matrix: MOREAD                 
     SCF convergence tolerance: 10**(-10)
  DIIS convergence acceleration:  ON
          Latest start for DIIS:   5
                     DIIS order:   6

     Alpha population by irrep:   2    1    1    0    0    0    0    0
      Beta population by irrep:   2    0    0    0    0    0    0    0


  Memory information:     195604 words required.
  Fock matrices are constructed from AO integral file.
 @GETMEM-I,  Allocated       1 MB of main memory.
  Initialization and symmetry analysis required      0.002 seconds.

 total no. of electrons in initial guess :  0.000000000000000E+000
 total no. of electrons in initial guess :  0.000000000000000E+000
  --------------------------------------------------------------------
  Iteration         Total Energy            Largest Density Difference
  --------------------------------------------------------------------
       0             0.000000000000000              0.0000000000D+00
   current occupation vector 
     2  1  1  0  0  0  0  0
     2  0  0  0  0  0  0  0
       1           -50.816157911371192              0.5978506365D+01
   current occupation vector 
     2  1  1  0  0  0  0  0
     2  0  0  0  0  0  0  0
       2           -52.887161905947600              0.5769339004D+01
   current occupation vector 
     2  1  1  0  0  0  0  0
     2  0  0  0  0  0  0  0
       3           -53.853739260039973              0.1323287510D+01
   current occupation vector 
     2  1  1  0  0  0  0  0
     2  0  0  0  0  0  0  0
       4           -53.883952024487250              0.2603031110D+00
   current occupation vector 
     2  1  1  0  0  0  0  0
     2  0  0  0  0  0  0  0
       5           -53.884736917063492              0.4378341207D-01
   current occupation vector 
     2  1  1  0  0  0  0  0
     2  0  0  0  0  0  0  0
       6           -53.884764307667254              0.1042304485D-01
   current occupation vector 
     2  1  1  0  0  0  0  0
     2  0  0  0  0  0  0  0
       7           -53.884765263570344              0.1354788626D-02
   current occupation vector 
     2  1  1  0  0  0  0  0
     2  0  0  0  0  0  0  0
       8           -53.884765419877631              0.3753123245D-03
   current occupation vector 
     2  1  1  0  0  0  0  0
     2  0  0  0  0  0  0  0
       9           -53.884765420114540              0.3422458743D-04
   current occupation vector 
     2  1  1  0  0  0  0  0
     2  0  0  0  0  0  0  0
      10           -53.884765420116175              0.1705398303D-05
   current occupation vector 
     2  1  1  0  0  0  0  0
     2  0  0  0  0  0  0  0
      11           -53.884765420116288              0.1649936010D-06
   current occupation vector 
     2  1  1  0  0  0  0  0
     2  0  0  0  0  0  0  0
      12           -53.884765420116246              0.1611189071D-07
   current occupation vector 
     2  1  1  0  0  0  0  0
     2  0  0  0  0  0  0  0
      13           -53.884765420116295              0.1226341251D-08
   current occupation vector 
     2  1  1  0  0  0  0  0
     2  0  0  0  0  0  0  0

  SCF has converged.

 Density matrix saved to file den.dat
 total alpha spin electron number:   4.00000000000000     
 total  beta spin electron number:   2.00000000000000     
     E(ROHF)=       -53.884765420116324              0.3172772808D-10

  Eigenvector printing suppressed.


       The average multiplicity is    3.0000000
  The expectation value of S**2 is    2.0000000

 @PUTMOS-I, Writing converged MOs to NEWMOS. 
 @PUTMOS-I, Symmetry   1 Full Blocks  3 Partial Blocksize   3
 @PUTMOS-I, Symmetry   2 Full Blocks  2 Partial Blocksize   2
 @PUTMOS-I, Symmetry   3 Full Blocks  2 Partial Blocksize   2
 @PUTMOS-I, Symmetry   4 Full Blocks  1 Partial Blocksize   0
 @PUTMOS-I, Symmetry   5 Full Blocks  2 Partial Blocksize   2
 @PUTMOS-I, Symmetry   6 Full Blocks  1 Partial Blocksize   0
 @PUTMOS-I, Symmetry   7 Full Blocks  1 Partial Blocksize   0
 @PUTMOS-I, Symmetry   8 Full Blocks  0 Partial Blocksize   2
  @DMPJOB-I, Rotating orbitals to semicanonical basis.
             *** Eigenvalues correspond to new basis. ***



 
  ORBITAL EIGENVALUES (ALPHA)  (1H = 27.2113838 eV)

       MO #        E(hartree)               E(eV)           FULLSYM    COMPSYM
       ----   --------------------   --------------------   -------   ---------
    1     1         -16.3213365067        -444.1261521329      Ag        Ag (1)
    2     2          -1.6132044265         -43.8975248299      Ag        Ag (1)
    3    26          -1.1094259022         -30.1890140443       u       B3u (3)
    4    16          -1.1094259022         -30.1890140443       u       B2u (2)
  +++++++++++++++++++++++++++++++++++++++++++++++++++++++++++++++++++++++++++++
    5    40          -0.4672672664         -12.7149889329      Au       B1u (5)
    6     3          -0.1254619465          -3.4139931813      Ag        Ag (1)
    7    27          -0.0792560699          -2.1566673384       u       B3u (3)
    8    17          -0.0792560699          -2.1566673384       u       B2u (2)
    9    41          -0.0702352458          -1.9111982307      Au       B1u (5)
   10     4           0.1559975695           4.2449097392      Ag        Ag (1)
   11    54           0.1565150128           4.2589900869       g       B2g (7)
   12    50           0.1565150128           4.2589900869       g       B3g (6)
   13     5           0.1582560172           4.3063652258       g        Ag (1)
   14    36           0.1582560172           4.3063652258       g       B1g (4)
   15    18           0.3641392061           9.9087317006       u       B2u (2)
   16    28           0.3641392061           9.9087317006       u       B3u (3)
   17    42           0.4079338011          11.1004432342      Au       B1u (5)
   18     6           0.4548102681          12.3760167717      Ag        Ag (1)
   19    37           1.0675303973          29.0489793799       g       B1g (4)
   20     7           1.0675303973          29.0489793799       g        Ag (1)
   21    55           1.0818246771          29.4379465134       g       B2g (7)
   22    51           1.0818246771          29.4379465134       g       B3g (6)
   23     8           1.0868475675          29.5746263139      Ag        Ag (1)
   24    43           1.0969039455          29.8482742743      Au       B1u (5)
   25    29           1.0988615277          29.9015427938       u       B3u (3)
   26    19           1.0988615277          29.9015427938       u       B2u (2)
   27    58           1.1047892999          30.0628456791       u        Au (8)
   28    44           1.1047892999          30.0628456791       u       B1u (5)
   29    30           1.1148001786          30.3352555430       u       B3u (3)
   30    20           1.1148001786          30.3352555430       u       B2u (2)
   31    21           2.6336773840          71.6660061533       u       B2u (2)
   32    31           2.6336773840          71.6660061533       u       B3u (3)
   33    45           2.6810080836          72.9539399854      Au       B1u (5)
   34     9           3.3261941953          90.5103469061      Ag        Ag (1)
   35    46           4.3058137238         117.1671498945      Au       B1u (5)
   36    22           4.3090297100         117.2546613294       u       B2u (2)
   37    32           4.3090297100         117.2546613294       u       B3u (3)
   38    47           4.3187081040         117.5180238217       u       B1u (5)
   39    59           4.3187081040         117.5180238217       u        Au (8)
   40    23           4.3349281799         117.9593945346       u       B2u (2)
   41    33           4.3349281799         117.9593945346       u       B3u (3)
   42    38           4.4237273811         120.3757436804       g       B1g (4)
   43    10           4.4237273811         120.3757436804       g        Ag (1)
   44    56           4.4328984043         120.6252999134       g       B2g (7)
   45    52           4.4328984043         120.6252999134       g       B3g (6)
   46    11           4.4361522077         120.7138404071      Ag        Ag (1)
   47    48          19.9304586676         542.3353605049      Au       B1u (5)
   48    34          19.9355252729         542.4732298456       u       B3u (3)
   49    24          19.9355252729         542.4732298456       u       B2u (2)
   50    12          20.7934508235         565.8185712921      Ag        Ag (1)
   51    13          38.4186617066        1045.4249495338      Ag        Ag (1)
   52    53          38.4234375567        1045.5549070229       g       B3g (6)
   53    57          38.4234375567        1045.5549070229       g       B2g (7)
   54    39          38.4378213831        1045.9463108450       g       B1g (4)
   55    14          38.4378213831        1045.9463108450       g        Ag (1)
   56    49         108.1463485837        2942.8117999965      Au       B1u (5)
   57    35         108.1637979622        2943.2866217331       u       B3u (3)
   58    25         108.1637979622        2943.2866217331       u       B2u (2)
   59    15         113.9399507717        3100.4637328334      Ag        Ag (1)


 
  ORBITAL EIGENVALUES ( BETA)  (1H = 27.2113838 eV)

       MO #        E(hartree)               E(eV)           FULLSYM    COMPSYM
       ----   --------------------   --------------------   -------   ---------
    1     1         -16.2492335236        -442.1641301844      Ag        Ag (1)
    2     2          -1.3125075083         -35.7151455737      Ag        Ag (1)
  +++++++++++++++++++++++++++++++++++++++++++++++++++++++++++++++++++++++++++++
    3    40          -0.3983212932         -10.8388735930      Au       B1u (5)
    4    26          -0.3317144292          -9.0264086520       u       B3u (3)
    5    16          -0.3317144292          -9.0264086520       u       B2u (2)
    6     3          -0.1149909955          -3.1290641148      Ag        Ag (1)
    7    41          -0.0646316599          -1.7587169047      Au       B1u (5)
    8    27          -0.0532483190          -1.4489604453       u       B3u (3)
    9    17          -0.0532483190          -1.4489604453       u       B2u (2)
   10     4           0.1659814275           4.5165843301      Ag        Ag (1)
   11    50           0.1702324888           4.6322615918       g       B3g (6)
   12    54           0.1702324888           4.6322615918       g       B2g (7)
   13    36           0.1824377857           4.9643846104       g       B1g (4)
   14     5           0.1824377857           4.9643846104       g        Ag (1)
   15    42           0.4300866453          11.7032527798      Au       B1u (5)
   16    18           0.4691515908          12.7662640071       u       B2u (2)
   17    28           0.4691515908          12.7662640071       u       B3u (3)
   18     6           0.4979192162          13.5490709040      Ag        Ag (1)
   19    43           1.1099209447          30.2024848349      Au       B1u (5)
   20    29           1.1133502973          30.2958022668       u       B3u (3)
   21    19           1.1133502973          30.2958022668       u       B2u (2)
   22    58           1.1237048242          30.5775632717       u        Au (8)
   23    44           1.1237048242          30.5775632717       u       B1u (5)
   24     7           1.1395891433          31.0097975755      Ag        Ag (1)
   25    30           1.1412607410          31.0552840604       u       B3u (3)
   26    20           1.1412607410          31.0552840604       u       B2u (2)
   27    51           1.1528138940          31.3696613418       g       B3g (6)
   28    55           1.1528138940          31.3696613418       g       B2g (7)
   29    37           1.1916418638          32.4262241301       g       B1g (4)
   30     8           1.1916418638          32.4262241301       g        Ag (1)
   31    45           2.7180456061          73.9617822265      Au       B1u (5)
   32    31           2.7884846403          75.8785258219       u       B3u (3)
   33    21           2.7884846403          75.8785258219       u       B2u (2)
   34     9           3.4070740568          92.7111998618      Ag        Ag (1)
   35    46           4.3531786624         118.4560154175      Au       B1u (5)
   36    22           4.3617325515         118.6887785775       u       B2u (2)
   37    32           4.3617325515         118.6887785775       u       B3u (3)
   38    47           4.3875816585         119.3921685504       u       B1u (5)
   39    59           4.3875816585         119.3921685504       u        Au (8)
   40    23           4.4314046289         120.5846522170       u       B2u (2)
   41    33           4.4314046289         120.5846522170       u       B3u (3)
   42    10           4.5146876720         122.8508990671      Ag        Ag (1)
   43    52           4.5351745263         123.4083747249       g       B3g (6)
   44    56           4.5351745263         123.4083747249       g       B2g (7)
   45    11           4.5995316610         125.1596214184       g        Ag (1)
   46    38           4.5995316610         125.1596214184       g       B1g (4)
   47    48          19.9517732446         542.9153596390      Au       B1u (5)
   48    24          20.0102136995         544.5056052888       u       B2u (2)
   49    34          20.0102136995         544.5056052888       u       B3u (3)
   50    12          20.8414736697         567.1253393907      Ag        Ag (1)
   51    13          38.4486018105        1046.2396611926      Ag        Ag (1)
   52    57          38.4626350204        1046.6215242532       g       B2g (7)
   53    53          38.4626350204        1046.6215242532       g       B3g (6)
   54    39          38.5049800691        1047.7737916260       g       B1g (4)
   55    14          38.5049800691        1047.7737916260       g        Ag (1)
   56    49         108.1522603327        2942.9726668685      Au       B1u (5)
   57    35         108.1802443285        2943.7341501201       u       B2u (3)
   58    25         108.1802443285        2943.7341501201       u       B3u (2)
   59    15         113.9523767618        3100.8018612190      Ag        Ag (1)


  VSCF finished.

  @CHECKOUT-I, Total execution time (CPU/WALL):        0.21/       0.57 seconds.
--executable xvscf finished with status     0 in        0.73 seconds (walltime).
 --invoking executable--
/home/nike/cfour_v2.00beta/bin/xvtran
 @GETMEM-I,  Allocated   30517 MB of main memory.
  Full UHF integral transformation
  Transformation of IIII integrals :
  2 passes through the AO integral file were required.
        7249 AO integrals were read.
       12051 MO integrals (Spin case AAAA) were written to HF2AA.
       12051 MO integrals (Spin case BBBB) were written to HF2BB.
       23784 MO integrals (Spin case AABB) were written to HF2AB.
  Transformation of IIJJ integrals :
  2 passes through the AO integral file were required.
       30259 AO integrals were read.
       38670 MO integrals (Spin case AAAA) were written to HF2AA.
       38670 MO integrals (Spin case BBBB) were written to HF2BB.
       77340 MO integrals (Spin case AABB) were written to HF2AB.
  Transformation of IJIJ integrals :
  2 passes through the AO integral file were required.
       48301 AO integrals were read.
       63606 MO integrals (Spin case AAAA) were written to HF2AA.
       63606 MO integrals (Spin case BBBB) were written to HF2BB.
      125760 MO integrals (Spin case AABB) were written to HF2AB.
  Transformation of IJKL integrals :
  2 passes through the AO integral file were required.
       80993 AO integrals were read.
       90960 MO integrals (Spin case AAAA) were written to HF2AA.
       90960 MO integrals (Spin case BBBB) were written to HF2BB.
      181920 MO integrals (Spin case AABB) were written to HF2AB.
  Summary of active molecular orbitals: 
------------------------------------------------------------------------
                         * Spin case alpha *
 
  Index      Eigenvalue    Symmetry    Index      Eigenvalue    Symmetry
------------------------------------------------------------------------
     1       -16.3213365        1        31         2.6336774        3
     2        -1.6132044        1        32         4.3090297        3
     3        -1.1094259        2        33         4.3349282        3
     4        -1.1094259        3        34        19.9355253        3
     5        -0.1254619        1        35       108.1637980        3
     6         0.1559976        1        36         0.1582560        4
     7         0.1582560        1        37         1.0675304        4
     8         0.4548103        1        38         4.4237274        4
     9         1.0675304        1        39        38.4378214        4
    10         1.0868476        1        40        -0.4672673        5
    11         3.3261942        1        41        -0.0702352        5
    12         4.4237274        1        42         0.4079338        5
    13         4.4361522        1        43         1.0969039        5
    14        20.7934508        1        44         1.1047893        5
    15        38.4186617        1        45         2.6810081        5
    16        38.4378214        1        46         4.3058137        5
    17       113.9399508        1        47         4.3187081        5
    18        -0.0792561        2        48        19.9304587        5
    19         0.3641392        2        49       108.1463486        5
    20         1.0988615        2        50         0.1565150        6
    21         1.1148002        2        51         1.0818247        6
    22         2.6336774        2        52         4.4328984        6
    23         4.3090297        2        53        38.4234376        6
    24         4.3349282        2        54         0.1565150        7
    25        19.9355253        2        55         1.0818247        7
    26       108.1637980        2        56         4.4328984        7
    27        -0.0792561        3        57        38.4234376        7
    28         0.3641392        3        58         1.1047893        8
    29         1.0988615        3        59         4.3187081        8
    30         1.1148002        3
------------------------------------------------------------------------
------------------------------------------------------------------------
                         * Spin case beta *
 
  Index      Eigenvalue    Symmetry    Index      Eigenvalue    Symmetry
------------------------------------------------------------------------
     1       -16.2492335        1        31         2.7884846        3
     2        -1.3125075        1        32         4.3617326        3
     3        -0.1149910        1        33         4.4314046        3
     4         0.1659814        1        34        20.0102137        3
     5         0.1824378        1        35       108.1802443        3
     6         0.4979192        1        36         0.1824378        4
     7         1.1395891        1        37         1.1916419        4
     8         1.1916419        1        38         4.5995317        4
     9         3.4070741        1        39        38.5049801        4
    10         4.5146877        1        40        -0.3983213        5
    11         4.5995317        1        41        -0.0646317        5
    12        20.8414737        1        42         0.4300866        5
    13        38.4486018        1        43         1.1099209        5
    14        38.5049801        1        44         1.1237048        5
    15       113.9523768        1        45         2.7180456        5
    16        -0.3317144        2        46         4.3531787        5
    17        -0.0532483        2        47         4.3875817        5
    18         0.4691516        2        48        19.9517732        5
    19         1.1133503        2        49       108.1522603        5
    20         1.1412607        2        50         0.1702325        6
    21         2.7884846        2        51         1.1528139        6
    22         4.3617326        2        52         4.5351745        6
    23         4.4314046        2        53        38.4626350        6
    24        20.0102137        2        54         0.1702325        7
    25       108.1802443        2        55         1.1528139        7
    26        -0.3317144        3        56         4.5351745        7
    27        -0.0532483        3        57        38.4626350        7
    28         0.4691516        3        58         1.1237048        8
    29         1.1133503        3        59         4.3875817        8
    30         1.1412607        3
------------------------------------------------------------------------
  @CHECKOUT-I, Total execution time (CPU/WALL):        0.21/       8.30 seconds.
--executable xvtran finished with status     0 in        8.44 seconds (walltime).
 --invoking executable--
/home/nike/cfour_v2.00beta/bin/xintprc
 @GETMEM-I,  Allocated   30517 MB of main memory.
  Processing integrals for CCSD calculation.
  @GMOIAA-I, Processing MO integrals for spin case AA.
  @GMOIAA-I, Generation of integral list completed.
                      TYPE                NUMBER
                      ----               --------
                      PPPP                154180
                      PPPH                 44876
                      PPHH                  3505
                      PHPH                  2318
                      PHHH                   386
                      HHHH                    22

                     TOTAL                205287
  @GMOIAA-I, Processing MO integrals for spin case BB.
  @GMOIAA-I, Generation of integral list completed.
                      TYPE                NUMBER
                      ----               --------
                      PPPP                177547
                      PPPH                 25690
                      PPHH                  1099
                      PHPH                   867
                      PHHH                    78
                      HHHH                     6

                     TOTAL                205287
  @GMOIAB-I, Processing MO integrals for spin case AB.
                      TYPE                NUMBER
                      ----               --------
                      PPPP                329253
                      PPPH1H               48240
                      PPPH2H               23954
                      PPHH                  3680
                      PHPH1P                 807
                      PHPH2P                2505
                      PHHH1P                 132
                      PHHH2P                 218
                      HHHH                    15

                     TOTAL                408804
            ----------------------------------------------
                     Projected spin multiplicities: 
            ----------------------------------------------
             <0|S^2|0>                  =    2.0000000000.
             <0|S^2 T2|0>               =    0.0000000000.
             Projected <0|S^2 exp(T)|0> =    2.0000000000.
             Approximate spin mult.     =    3.0000000000.
            ----------------------------------------------
   Largest T2 amplitudes for spin case AA:
   i   j   a   b             i   j   a   b             i   j   a   b
-----------------------------------------------------------------------------
[  4   3  37   9]-0.01599 [  4   3  28  19]-0.01441 [  3   2  51  40]-0.01254
[  4   2  55  40]-0.01254 [  4   3  31  22]-0.01009 [  4   3  28  22]-0.00931
[  4   3  31  19]-0.00931 [  4   3  36   9]-0.00880 [  4   3  37   7]-0.00880
[  3   2  19   8]-0.00877 [  4   2  28   8]-0.00877 [  4   3  38  12]-0.00805
[  4   3  55  51]-0.00791 [  4   3  37  12]-0.00774 [  4   3  38   9]-0.00774
-----------------------------------------------------------------------------
   Norm of T2AA vector (     1187 symmetry allowed elements):  0.0530541064.
-----------------------------------------------------------------------------
   Largest T2 amplitudes for spin case BB:
   i   j   a   b             i   j   a   b             i   j   a   b
-----------------------------------------------------------------------------
[  2   1  45  40] 0.00160 [  2   1  48  40]-0.00158 [  2   1  31  26] 0.00154
[  2   1  21  16] 0.00154 [  2   1  34  26]-0.00151 [  2   1  24  16]-0.00151
[  2   1  24  21]-0.00132 [  2   1  34  31]-0.00132 [  2   1  48  45]-0.00132
[  2   1  34  28]-0.00112 [  2   1  24  18]-0.00112 [  2   1  48  42]-0.00107
[  2   1  31  28] 0.00085 [  2   1  21  18] 0.00085 [  2   1  45  42] 0.00079
-----------------------------------------------------------------------------
   Norm of T2BB vector (      232 symmetry allowed elements):  0.0053754746.
-----------------------------------------------------------------------------
   Largest T2 amplitudes for spin case AB:
       _       _                 _       _                 _       _
   i   j   a   b             i   j   a   b             i   j   a   b
-----------------------------------------------------------------------------
[  2   2  40  40]-0.06311 [  3   2  51  40]-0.02425 [  4   2  55  40]-0.02425
[  3   2  37  26]-0.02335 [  3   2   9  16]-0.02335 [  4   2   9  26] 0.02335
[  4   2  37  16]-0.02335 [  2   2  40  42]-0.01761 [  3   2  19   6]-0.01540
[  4   2  28   6]-0.01540 [  2   2  40  41]-0.01506 [  2   2  42  40]-0.01504
[  3   2  50  40]-0.01378 [  4   2  54  40]-0.01378 [  3   2  36  26]-0.01360
-----------------------------------------------------------------------------
   Norm of T2AB vector (     3680 symmetry allowed elements):  0.1312271666.
-----------------------------------------------------------------------------
  @CHECKOUT-I, Total execution time (CPU/WALL):        0.17/       3.23 seconds.
--executable xintprc finished with status     0 in        5.31 seconds (walltime).
 --invoking executable--
/home/nike/cfour_v2.00beta/bin/xint
 @GETMEM-I,  Allocated   30517 MB of main memory.
  @CHECKOUT-I, Total execution time (CPU/WALL):        2.80/       3.16 seconds.
--executable xint finished with status     0 in       16.56 seconds (walltime).
 --invoking executable--
/home/nike/MRCC/dmrcc
 **********************************************************************
                          MRCC program system
 **********************************************************************
 
                              Written by
    Mihaly Kallay, Zoltan Rolik, Jozsef Csontos, Istvan Ladjanszki,
       Lorant Szegedy, Bence Ladoczki, Gyula Samu, Klara Petrov,
        Mate Farkas, Peter Nagy, David Mester, and Bence Hegely
 
        Department of Physical Chemistry and Materials Science
            Budapest University of Technology and Economics
                  Budapest P.O.Box 91, H-1521 Hungary
 
                              www.mrcc.hu

 ************************ 2018-04-02 01:48:50 *************************
 Executing minp...

 Reading input from MINP...
 
 Input file:
 
# N+ 2Z
basis=aCVTZ-EMSL
iface=cfour
uncontract=off
calc=CC(6)
mem=32GB
core=corr
itol=18
scftol=13
cctol=7
ccmaxit=999
scfmaxit=9999
scfiguess=ao
scftype=ROHF
rohftype=semicanonical
rest=2
charge=+1
refdet=serialno
1,2
3,4

#symm=1
mult=3
#occ=3,0,0,0,0,1,0,0/1,0,0,0,0,1,0,0
geom
N

#Li 1 R

#R=3.065

#unit=angstroms

tprint=0.01
verbosity=3
nstate=4

 
 
 Checking keyword combinations...
 
 Keywords:
 
 active=none
 agrid=ld0006-ld0590
 basis=acvtz-emsl
 basopt=off
 bpcompo=0.985
 bpcompv=0.98
 bpdfo=0.985
 bpocc=0.985
 bppdo=0.985
 bppdv=0.98
 bpedo=0.985
 bpedv=0.98
 calc=cc(6)
 ccmaxit=999
 ccprog=mrcc
 cctol=7
 charge=+1
 cialg=disk
 ciguess=off
 cmpgrp=auto
 core=corr
 corembed=off
 dboc=off
 dendec=cholesky
 dens=0
 dfalg=invsqrt
 dfbasis_cor=none
 dfbasis_scf=none
 dfintran=ovirt
 dft=off
 diag=david
 domrad=10.d0
 drpaalg=fit
 ecp=auto
 edisp=off
 embed=off
 epert=none
 eps=0.975
 excrad=0.d0
 excrad_fin=0.000000000D+00
 freq=off
 gauss=spher
 geom=zmat
 gopt=off
 ghost=none
 gtol=7
 grtol=10
 hamilton=dc
 iface=cfour
 intalg=auto
 itol=18
 lcorthr=loose
 lccrest=off
 lmp2dens=on
 lnoepso=3e-5
 lnoepsv=1e-6
 localcc=off
 locintrf=disk
 maxact=off
 maxex=0
 bfbasis=none
 mem=32gb
 molden=on
 mulmet=0
 mult=3
 nacto=0
 nactv=0
 naf_cor=off
 naf_scf=off
 nafalg=albe
 naftyp=
 nchol=auto
 ndeps=1e-3
 nstate=4
 nsing=0
 ntrip=0
 occ=
 optalg=
 optmaxit=50
 optetol=1e-6
 optgtol=1e-4
 optstol=1e-3
 orblocc=off
 orbloco=off
 orblocv=off
 osveps=1e-3
 ovirt=off
 ovosnorb=80.0
 ptfreq=0.0
 popul=off
 pressure=100000
 qmmm=off
 refdet=serialno
 rest=2
 rgrid=log3
 rohftype=semicanonical
 scspe=1.d0
 scsps=1.2d0
 scspt=0.33333333333333
 scfalg=auto
 scfdamp=off
 scfdiis=on
 scfdiis_end=9999
 scfdiis_start=1
 scfdiis_step=1
 scfdtol=17
 scfext=10
 scfiguess=ao
 scflshift=off
 scfmaxit=9999
 scftype=rohf
 scftol=13
 spairtol=1e-4
 symm=
 talg=occ
 temp=298.15
 test=off
 tprint=0.01
 uncontract=off
 unit=angs
 verbosity=3
 wpairtol=0.100000000E-05

 ************************ 2018-04-02 01:48:50 *************************
 Executing goldstone...

 Generation of CC equations in terms of H and T...
 Generation of antisymmetrized Goldstone diagrams...
 Number of diagrams in T^1 equations:    15
 Number of diagrams in T^2 equations:    38
 Number of diagrams in T^3 equations:    54
 Number of diagrams in T^4 equations:    81
 Number of diagrams in T^5 equations:   105
 Number of diagrams in T^6 equations:   135
 Translation of diagrams to factorized equations...
 Optimizing intermediate calculation...
 Optimizing right-hand EOMCC calculation...
 Number of floating-point operations per iteration step:   2.1066E+13
 Probable CPU time per iteration step (hours):    210.66
 Required memory (Mbytes):  108609.6
 Number of intermediates:                                 485
 Number of intermediates to be stored:                    181
 Length of intermediate file (Mbytes):  130836.0

 ************************ 2018-04-02 01:48:58 *************************
 Executing xmrcc...

 **********************************************************************
 CC(                     6 ) calculation 
 
 
 Allocation of****** Mbytes of memory...
 Number of spinorbitals:                   118
 Number of alpha electrons:                        4
 Number of beta electrons:                         2
 z-component of spin:  1.0
 Spatial symmetry:                      1
 Convergence criterion:  1.0E-07
 Spatial symmetry of ground state:                      4
 Construction of occupation graphs...
 Number of                     0 -fold excitations:                      0
 Number of                     1 -fold excitations:                     34
 Number of                     2 -fold excitations:                   4475
 Number of                     3 -fold excitations:                 186242
 Number of                     4 -fold excitations:                3331517
 Number of                     5 -fold excitations:               25823182
 Number of                     6 -fold excitations:               68028264
 Total number of configurations:               97373714
 Number of ground state excitations: 
 Number of                     0 -fold excitations:                      1
 Number of                     1 -fold excitations:                     70
 Number of                     2 -fold excitations:                   5099
 Number of                     3 -fold excitations:                 187856
 Number of                     4 -fold excitations:                3319274
 Number of                     5 -fold excitations:               25781224
 Number of                     6 -fold excitations:               68035092
 Total number of configurations:               97328616
 Calculation of coupling coefficients...
 Length of intermediate file (Mbytes):   53073.4
 
 ======================================================================
 
 ======================================================================
 
 ======================================================================
 
 ======================================================================
 
 Memory requirements /Mbyte/: 
               Minimal        Optimal
 Real*8:     583444.0738    583444.0738
 Integer:       139.9883
 Total:      583584.0621    583584.0621
 

 ************************ 2018-04-02 01:49:15 *************************
 Executing goldstone...

 Generation of MRCC equations in terms of H and T...
 Generation of antisymmetrized Goldstone diagrams...
 Number of diagrams in T^1 equations:    15
 Number of diagrams in T^2 equations:    38
 Number of diagrams in T^3 equations:    54
 Number of diagrams in T^4 equations:    81
 Number of diagrams in T^5 equations:   105
 Number of diagrams in T^6 equations:   135
 Translation of diagrams to factorized equations...
 Number of restricted diagrams in T^1 equations:     30
 Number of restricted diagrams in T^2 equations:    129
 Number of restricted diagrams in T^3 equations:    306
 Number of restricted diagrams in T^4 equations:    674
 Number of restricted diagrams in T^5 equations:   1282
 Number of restricted diagrams in T^6 equations:   2288
 Optimizing intermediate calculation...
 Optimizing right-hand EOMCC calculation...
 Number of floating-point operations per iteration step:   1.3697E+13
 Probable CPU time per iteration step (hours):    136.97
 Required memory (Mbytes):    1633.8
 Number of intermediates:                                3317
 Number of intermediates to be stored:                   1029
 Length of intermediate file (Mbytes):   35429.5

 ************************ 2018-04-02 01:50:34 *************************
 Executing xmrcc...

 **********************************************************************
 MRCC(                     6 ) calculation 
 
 
 Allocation of1633.8 Mbytes of memory...
 Number of spinorbitals:                   118
 Number of alpha electrons:                        4
 Number of beta electrons:                         2
 Number of active particles:                    56
 Number of active holes:                         0
 z-component of spin:  1.0
 Spatial symmetry:                      1
 Convergence criterion:  1.0E-07
 Spatial symmetry of ground state:                      4
 Construction of occupation graphs...
 Number of                     0 -fold excitations:                      0
 Number of                     1 -fold excitations:                     34
 Number of                     2 -fold excitations:                   4475
 Number of                     3 -fold excitations:                 186242
 Number of                     4 -fold excitations:                3331517
 Number of                     5 -fold excitations:               25823182
 Number of                     6 -fold excitations:               68028264
 Total number of configurations:               97373714
 Number of ground state excitations: 
 Number of                     0 -fold excitations:                      1
 Number of                     1 -fold excitations:                     70
 Number of                     2 -fold excitations:                   5099
 Number of                     3 -fold excitations:                 187856
 Number of                     4 -fold excitations:                3319274
 Number of                     5 -fold excitations:               25781224
 Number of                     6 -fold excitations:               68035092
 Total number of configurations:               97328616
 Calculation of coupling coefficients...
 Length of intermediate file (Mbytes):   27754.8
 
 ======================================================================
 
 ======================================================================
 
 ======================================================================
 
 ======================================================================
 
 Memory requirements /Mbyte/: 
               Minimal        Optimal
 Real*8:       8437.9075      8437.9075
 Integer:       185.4525
 Total:        8623.3600      8623.3600
 

 ************************ 2018-04-02 01:53:25 *************************
 Executing goldstone...

 Generation of MRCC equations in terms of H and T...
 Generation of antisymmetrized Goldstone diagrams...
 Number of diagrams in T^1 equations:     8
 Translation of diagrams to factorized equations...
 Number of restricted diagrams in T^1 equations:     12
 Optimizing intermediate calculation...
 Optimizing right-hand EOMCC calculation...
 Number of floating-point operations per iteration step:   2.2117E+03
 Probable CPU time per iteration step (hours):      0.00
 Required memory (Mbytes):    1293.1
 Number of intermediates:                                  52
 Number of intermediates to be stored:                     34
 Length of intermediate file (Mbytes):      13.7

 ************************ 2018-04-02 01:53:26 *************************
 Executing xmrcc...

 **********************************************************************
 MRCC(                     1 ) calculation 
 
 
 Allocation of1293.1 Mbytes of memory...
 Number of spinorbitals:                   118
 Number of alpha electrons:                        4
 Number of beta electrons:                         2
 Number of active particles:                    56
 Number of active holes:                         0
 z-component of spin:  1.0
 Spatial symmetry:                      1
 Convergence criterion:  1.0E-07
 Spatial symmetry of ground state:                      4
 Construction of occupation graphs...
 Number of                     0 -fold excitations:                      0
 Number of                     1 -fold excitations:                     34
 Total number of configurations:                     34
 Number of ground state excitations: 
 Number of                     0 -fold excitations:                      1
 Number of                     1 -fold excitations:                     70
 Total number of configurations:                     71
 Calculation of coupling coefficients...
 Length of intermediate file (Mbytes):      12.1
 
 ======================================================================
 
 ======================================================================
 
 ======================================================================
 
 ======================================================================
 
 Memory requirements /Mbyte/: 
               Minimal        Optimal
 Real*8:          1.6200        92.5051
 Integer:         3.9003
 Total:           5.5204        96.4055
 

 ************************ 2018-04-02 01:53:27 *************************
 Executing mrcc...

 **********************************************************************
 LR-CCS calculation                                                     
 
 
 OpenMP parallel version is running.
 Number of CPUs:  32
 Allocation of   92.5 Mbytes of memory...
 Number of spinorbitals: 118
 Number of alpha electrons:  4
 Number of beta  electrons:  2
 Number of active particles:                    56
 Number of active holes:                         0
 z-component of spin:  1.0
 Spatial symmetry: 1
 Convergence criterion:  1.0E-07
 Spatial symmetry of ground state:                      4
 Construction of occupation graphs...
 Number of excitations for irrep 1: 
 Number of 0-fold excitations: 1
 Number of 1-fold excitations: 70
 Total number of determinants: 71
 Number of excitations for irrep 4: 
 Number of 0-fold excitations: 0
 Number of 1-fold excitations: 34
 Total number of determinants: 34
 Calculation of coupling coefficients...
 Initial cluster amplitudes are generated.
 Length of intermediate file (Mbytes):      12.1
 Reading integral list from unit 55...
 Sorting integrals...
 Sorting integrals...
 Sorting integrals...
 Sorting integrals...
 Energy of reference determinant [au]:     -53.884765420116
 Calculation of diagonal elements of Hamiltonian...
 Calculation of MP denominators...
 
 Starting CC iteration...
 ======================================================================
 Norm of residual vector:     0.12432675
 CPU time [min]:     0.606                   Wall time [min]:     0.157
 
 Iteration  1  CC energy:   -53.88897467  Energy decrease:   0.00420925
 ======================================================================
 Norm of residual vector:     0.02606369
 CPU time [min]:     0.622                   Wall time [min]:     0.157
 
 Iteration  2  CC energy:   -53.89034321  Energy decrease:   0.00136854
 ======================================================================
 Norm of residual vector:     0.00214452
 CPU time [min]:     0.636                   Wall time [min]:     0.158
 
 Iteration  3  CC energy:   -53.89035476  Energy decrease:   0.00001155
 ======================================================================
 Norm of residual vector:     0.00026474
 CPU time [min]:     0.651                   Wall time [min]:     0.158
 
 Iteration  4  CC energy:   -53.89035625  Energy decrease:   0.00000149
 ======================================================================
 Norm of residual vector:     0.00002219
 CPU time [min]:     0.667                   Wall time [min]:     0.159
 
 Iteration  5  CC energy:   -53.89035614  Energy decrease:   0.00000011
 ======================================================================
 Norm of residual vector:     0.00000204
 CPU time [min]:     0.685                   Wall time [min]:     0.160
 
 Iteration  6  CC energy:   -53.89035616  Energy decrease:   0.00000002
 ======================================================================
 Norm of residual vector:     0.00000012
 CPU time [min]:     0.703                   Wall time [min]:     0.160
 
 Iteration  7  CC energy:   -53.89035616  Energy decrease:   2.2318E-09
 ======================================================================
 Norm of residual vector:     0.00000001
 CPU time [min]:     0.716                   Wall time [min]:     0.161
 
 Iteration  8  CC energy:   -53.89035616  Energy decrease:   1.1904E-10
 ======================================================================
 
 Iteration has converged in  8 steps.
 
 Final results:
 Total CCS energy [au]:              -53.890356158305
 Spin multiplicity:                     2
 
 
 
 Dominant cluster amplitudes
 Printing threshold:  1.00E-02
 
    1.000000  Reference determinant                                     
    0.010621  2b -> 42b                                                 
    0.018960  2b -> 6b                                                  
   -0.016411  2b -> 10b                                                 
   -0.020951  2b -> 18b                                                 
    0.025346  2b -> 19b                                                 
   -0.015586  2a -> 6a                                                  
    0.013627  2a -> 10a                                                 
    0.018002  2a -> 18a                                                 
   -0.022288  2a -> 23a                                                 
 
 Starting right-hand LR-CC iteration for root                      2 ...
 ======================================================================
 Norm of residual vector:     0.09098031      Convergence:   1.00000000
 CPU time [min]:     0.767                   Wall time [min]:     0.162
 
 Iteration  1  CI energy:   -53.07766131  Energy decrease:   0.81269485
 ======================================================================
 Norm of residual vector:     0.05559296      Convergence:   0.47246881
 CPU time [min]:     0.791                   Wall time [min]:     0.163
 
 Iteration  2  CI energy:   -53.09248765  Energy decrease:   0.01482634
 ======================================================================
 Norm of residual vector:     0.02943976      Convergence:   0.21489766
 CPU time [min]:     0.808                   Wall time [min]:     0.164
 
 Iteration  3  CI energy:   -53.10129418  Energy decrease:   0.00880654
 ======================================================================
 Norm of residual vector:     0.04922548      Convergence:   0.12076075
 CPU time [min]:     0.824                   Wall time [min]:     0.164
 
 Iteration  4  CI energy:   -53.10360707  Energy decrease:   0.00231289
 ======================================================================
 Norm of residual vector:     0.01026305      Convergence:   0.06299444
 CPU time [min]:     0.841                   Wall time [min]:     0.165
 
 Iteration  5  CI energy:   -53.09844402  Energy decrease:   0.00516305
 ======================================================================
 Norm of residual vector:     0.00056648      Convergence:   0.00380671
 CPU time [min]:     0.858                   Wall time [min]:     0.166
 
 Iteration  6  CI energy:   -53.09847145  Energy decrease:   0.00002743
 ======================================================================
 Norm of residual vector:     0.00005587      Convergence:   0.00038531
 CPU time [min]:     0.876                   Wall time [min]:     0.166
 
 Iteration  7  CI energy:   -53.09847161  Energy decrease:   0.00000016
 ======================================================================
 Norm of residual vector:     0.00000185      Convergence:   0.00001412
 CPU time [min]:     0.896                   Wall time [min]:     0.167
 
 Iteration  8  CI energy:   -53.09847161  Energy decrease:   6.0461E-10
 ======================================================================
 Norm of residual vector:     0.0000E+00      Convergence:   1.3335E-06
 CPU time [min]:     0.918                   Wall time [min]:     0.168
 
 Iteration  9  CI energy:   -53.09847161  Energy decrease:   1.2754E-11
 ======================================================================
 
 Iteration has converged in  9 steps.
 
 Final results:
 Total LR-CCS energy [au]:           -53.098471606820
 Excitation energy [eV]:          21.5483
 Excitation energy [cm^-1]:   173798.58
 Absorption wavelength [nm]:      57.54
 Spin multiplicity:                     2
 
 
 
 Dominant CI coefficients
 Printing threshold:  1.00E-02
 
   -0.681217  3a -> 8a                                                  
   -0.188694  3a -> 15a                                                 
   -0.018363  3a -> 31a                                                 
    0.681217  4a -> 7a                                                  
    0.188694  4a -> 16a                                                 
    0.018363  4a -> 32a                                                 
 
 Starting right-hand LR-CC iteration for root                      3 ...
 ======================================================================
 Norm of residual vector:     0.09098031      Convergence:   1.00000000
 CPU time [min]:     0.930                   Wall time [min]:     0.168
 
 Iteration  1  CI energy:   -53.07766131  Energy decrease:   0.81269485
 ======================================================================
 Norm of residual vector:     0.05559296      Convergence:   0.47246881
 CPU time [min]:     0.944                   Wall time [min]:     0.169
 
 Iteration  2  CI energy:   -53.09248765  Energy decrease:   0.01482634
 ======================================================================
 Norm of residual vector:     0.02943976      Convergence:   0.21489766
 CPU time [min]:     0.958                   Wall time [min]:     0.169
 
 Iteration  3  CI energy:   -53.10129418  Energy decrease:   0.00880654
 ======================================================================
 Norm of residual vector:     0.04922548      Convergence:   0.12076075
 CPU time [min]:     0.973                   Wall time [min]:     0.170
 
 Iteration  4  CI energy:   -53.10360707  Energy decrease:   0.00231289
 ======================================================================
 Norm of residual vector:     0.01026305      Convergence:   0.06299444
 CPU time [min]:     0.990                   Wall time [min]:     0.170
 
 Iteration  5  CI energy:   -53.09844402  Energy decrease:   0.00516305
 ======================================================================
 Norm of residual vector:     0.00056648      Convergence:   0.00380671
 CPU time [min]:     1.008                   Wall time [min]:     0.171
 
 Iteration  6  CI energy:   -53.09847145  Energy decrease:   0.00002743
 ======================================================================
 Norm of residual vector:     0.00005587      Convergence:   0.00038531
 CPU time [min]:     1.029                   Wall time [min]:     0.172
 
 Iteration  7  CI energy:   -53.09847161  Energy decrease:   0.00000016
 ======================================================================
 Norm of residual vector:     0.00000185      Convergence:   0.00001412
 CPU time [min]:     1.052                   Wall time [min]:     0.172
 
 Iteration  8  CI energy:   -53.09847161  Energy decrease:   6.0460E-10
 ======================================================================
 Norm of residual vector:     0.0000E+00      Convergence:   1.3335E-06
 CPU time [min]:     1.078                   Wall time [min]:     0.173
 
 Iteration  9  CI energy:   -53.09847161  Energy decrease:   1.2747E-11
 ======================================================================
 
 Iteration has converged in  9 steps.
 
 Final results:
 Total LR-CCS energy [au]:           -53.098471606820
 Excitation energy [eV]:          21.5483
 Excitation energy [cm^-1]:   173798.58
 Absorption wavelength [nm]:      57.54
 Spin multiplicity:                     2
 
 
 
 Dominant CI coefficients
 Printing threshold:  1.00E-02
 
    0.681217  3a -> 8a                                                  
    0.188694  3a -> 15a                                                 
    0.018363  3a -> 31a                                                 
   -0.681217  4a -> 7a                                                  
   -0.188694  4a -> 16a                                                 
   -0.018363  4a -> 32a                                                 
 
 Starting right-hand LR-CC iteration for root                      4 ...
 ======================================================================
 Norm of residual vector:     0.16712238      Convergence:   1.00000000
 CPU time [min]:     1.089                   Wall time [min]:     0.174
 
 Iteration  1  CI energy:   -52.79757465  Energy decrease:   1.09278151
 ======================================================================
 Norm of residual vector:     0.12383821      Convergence:   0.68689080
 CPU time [min]:     1.103                   Wall time [min]:     0.174
 
 Iteration  2  CI energy:   -52.78498138  Energy decrease:   0.01259327
 ======================================================================
 Norm of residual vector:     0.01261708      Convergence:   0.22650630
 CPU time [min]:     1.119                   Wall time [min]:     0.175
 
 Iteration  3  CI energy:   -52.77592622  Energy decrease:   0.00905516
 ======================================================================
 Norm of residual vector:     0.01572225      Convergence:   0.00395931
 CPU time [min]:     1.140                   Wall time [min]:     0.175
 
 Iteration  4  CI energy:   -52.77592759  Energy decrease:   0.00000137
 ======================================================================
 Norm of residual vector:     0.00085061      Convergence:   0.00775754
 CPU time [min]:     1.163                   Wall time [min]:     0.176
 
 Iteration  5  CI energy:   -52.77586321  Energy decrease:   0.00006438
 ======================================================================
 Norm of residual vector:     0.00020201      Convergence:   0.00085490
 CPU time [min]:     1.189                   Wall time [min]:     0.177
 
 Iteration  6  CI energy:   -52.77586367  Energy decrease:   0.00000046
 ======================================================================
 Norm of residual vector:     0.00002390      Convergence:   0.00043938
 CPU time [min]:     1.219                   Wall time [min]:     0.178
 
 Iteration  7  CI energy:   -52.77586373  Energy decrease:   0.00000006
 ======================================================================
 Norm of residual vector:     0.00000265      Convergence:   0.00001484
 CPU time [min]:     1.252                   Wall time [min]:     0.179
 
 Iteration  8  CI energy:   -52.77586373  Energy decrease:   2.8511E-10
 ======================================================================
 Norm of residual vector:     0.00000050      Convergence:   0.00000412
 CPU time [min]:     1.290                   Wall time [min]:     0.181
 
 Iteration  9  CI energy:   -52.77586373  Energy decrease:   2.2304E-11
 ======================================================================
 Norm of residual vector:     0.0000E+00      Convergence:   1.5452E-07
 CPU time [min]:     1.327                   Wall time [min]:     0.182
 
[...]
 
 Starting right-hand LR-CC iteration for root                      3 ...
 ======================================================================
 Norm of residual vector:     0.00075729      Convergence:   1.00000000
 CPU time [min]:124720.081                   Wall time [min]: 15224.651
 
 Iteration  1  CI energy:   -53.26936152  Energy decrease:   0.76796270
 ======================================================================
 Norm of residual vector:     0.00003423      Convergence:   0.00001047
 CPU time [min]:140089.273                   Wall time [min]: 17080.444
 
 Iteration  2  CI energy:   -53.26936153  Energy decrease:   0.00000001
 ======================================================================
 Norm of residual vector:     0.00000229      Convergence:   0.00000077
 CPU time [min]:155346.723                   Wall time [min]: 18869.647
 
 Iteration  3  CI energy:   -53.26936154  Energy decrease:   3.0528E-09
 ======================================================================
 Norm of residual vector:     0.00000037      Convergence:   0.00000034
 CPU time [min]:170610.025                   Wall time [min]: 20719.103
 
 Iteration  4  CI energy:   -53.26936153  Energy decrease:   1.9841E-09
 ======================================================================
 Norm of residual vector:     0.0000E+00      Convergence:   1.4316E-07
 CPU time [min]:185971.179                   Wall time [min]: 22541.925
 
 Iteration  5  CI energy:   -53.26936153  Energy decrease:   2.0900E-10
 ======================================================================
 
 Iteration has converged in  5 steps.
 
 Final results:
 Total LR-CC(6) energy [au]:         -53.269361534512
 Excitation energy [eV]:          20.8973
 Excitation energy [cm^-1]:   168548.34
 Absorption wavelength [nm]:      59.33
 Spin multiplicity:                     2
 
 
 
 Dominant CI coefficients
 Printing threshold:  1.00E-02
 
   -0.541502  3a -> 8a                                                  
   -0.142200  3a -> 15a                                                 
   -0.013806  3a -> 31a                                                 
    0.541502  4a -> 7a                                                  
    0.142200  4a -> 16a                                                 
    0.013806  4a -> 32a                                                 
    0.010924  3a 2b -> 8a 34b                                           
   -0.011397  3a 2b -> 14a 3b                                           
    0.035144  4a 2b -> 6a 3b                                            
   -0.011397  4a 2b -> 13a 3b                                           
   -0.018156  4a 2b -> 18a 3b                                           
   -0.010924  4a 2b -> 7a 34b                                           
   -0.070084  2a 2b -> 8a 3b                                            
   -0.019304  2a 2b -> 15a 3b                                           
    0.027961  3a 4a -> 5a 33a                                           
   -0.037597  3a 4a -> 9a 33a                                           
   -0.010268  3a 4a -> 17a 33a                                          
   -0.010392  2a 3a -> 8a 34a                                           
    0.010392  2a 4a -> 7a 34a                                           
   -0.035144  3a 2b -> 6a 4b                                            
   -0.011397  3a 2b -> 13a 4b                                           
    0.018156  3a 2b -> 18a 4b                                           
    0.027816  3a 2b -> 8a 6b                                            
   -0.035938  3a 2b -> 8a 18b                                           
    0.011927  3a 2b -> 8a 23b                                           
    0.011927  3a 2b -> 7a 20b                                           
    0.011507  3a 2b -> 9a 21b                                           
   -0.011599  3a 2b -> 11a 5b                                           
   -0.011927  4a 2b -> 8a 20b                                           
   -0.027816  4a 2b -> 7a 6b                                            
    0.035938  4a 2b -> 7a 18b                                           
    0.011927  4a 2b -> 7a 23b                                           
    0.011397  4a 2b -> 14a 4b                                           
   -0.011507  4a 2b -> 9a 22b                                           
    0.011599  4a 2b -> 12a 5b                                           
   -0.022005  2a 2b -> 8a 7b                                            
   -0.026463  2a 2b -> 8a 16b                                           
    0.070084  2a 2b -> 7a 4b                                            
    0.019304  2a 2b -> 16a 4b                                           
    0.022005  2a 2b -> 7a 8b                                            
    0.026463  2a 2b -> 7a 15b                                           
    0.522296  3a 4a -> 5a 9a                                            
   -0.043479  3a 4a -> 8a 15a                                           
   -0.043479  3a 4a -> 7a 16a                                           
    0.178867  3a 4a -> 5a 17a                                           
   -0.095145  3a 4a -> 9a 17a                                           
    0.011034  3a 4a -> 6a 18a                                           
   -0.020540  3a 4a -> 8a 31a                                           
   -0.020540  3a 4a -> 7a 32a                                           
    0.019120  2a 3a -> 6a 8a                                            
    0.027202  2a 3a -> 8a 18a                                           
   -0.019120  2a 4a -> 6a 7a                                            
   -0.027202  2a 4a -> 7a 18a                                           
   -0.011073  3a 4a 2b -> 5a 9a 34b                                     
   -0.012926  3a 4a 2b -> 5a 9a 42b                                     
    0.015051  3a 4a 2b -> 9a 22a 3b                                     
    0.067643  2a 4a 2b -> 5a 9a 3b                                      
    0.023975  2a 4a 2b -> 5a 17a 3b                                     
   -0.011662  2a 4a 2b -> 9a 17a 3b                                     
   -0.010677  2a 3a 4a -> 5a 9a 34a                                     
   -0.027604  3a 4a 2b -> 5a 9a 6b                                      
    0.014527  3a 4a 2b -> 5a 9a 10b                                     
    0.035635  3a 4a 2b -> 5a 9a 18b                                     
   -0.026588  3a 4a 2b -> 5a 9a 19b                                     
   -0.010297  3a 4a 2b -> 5a 17a 19b                                    
    0.015051  3a 4a 2b -> 9a 21a 4b                                     
    0.035749  3a 4a 2b -> 5a 6a 5b                                      
   -0.010840  3a 4a 2b -> 5a 10a 5b                                     
   -0.011584  3a 4a 2b -> 9a 10a 5b                                     
   -0.018793  3a 4a 2b -> 5a 18a 5b                                     
    0.017991  3a 4a 2b -> 9a 23a 5b                                     
   -0.067643  2a 3a 2b -> 5a 9a 4b                                      
   -0.023975  2a 3a 2b -> 5a 17a 4b                                     
    0.011662  2a 3a 2b -> 9a 17a 4b                                     
   -0.021288  2a 3a 2b -> 5a 9a 8b                                      
   -0.025718  2a 3a 2b -> 5a 9a 15b                                     
    0.021288  2a 4a 2b -> 5a 9a 7b                                      
    0.025718  2a 4a 2b -> 5a 9a 16b                                     
    0.018883  2a 3a 4a -> 5a 6a 9a                                      
    0.027074  2a 3a 4a -> 5a 9a 18a                                     
    0.015226  2a 3a 4a -> 5a 9a 23a                                     
 
 Starting right-hand LR-CC iteration for root                      4 ...
 ======================================================================
 Norm of residual vector:     0.00077608      Convergence:   1.00000000
 CPU time [min]:201311.518                   Wall time [min]: 24387.705
 
 Iteration  1  CI energy:   -52.94815524  Energy decrease:   1.08916898
 ======================================================================
 Norm of residual vector:     0.00003444      Convergence:   0.00001063
 CPU time [min]:216617.837                   Wall time [min]: 26028.844
 
 Iteration  2  CI energy:   -52.94815526  Energy decrease:   0.00000002
 ======================================================================
 Norm of residual vector:     0.00003358      Convergence:   0.00000245
 CPU time [min]:231688.049                   Wall time [min]: 27456.021
 
 Iteration  3  CI energy:   -52.94815525  Energy decrease:   2.0578E-09
 ======================================================================
 Norm of residual vector:     0.00000234      Convergence:   0.00000080
 CPU time [min]:246733.037                   Wall time [min]: 28854.785
 
 Iteration  4  CI energy:   -52.94815526  Energy decrease:   3.7551E-09
 ======================================================================
 Norm of residual vector:     0.00000225      Convergence:   0.00000047
 CPU time [min]:261776.064                   Wall time [min]: 30215.887
 
 Iteration  5  CI energy:   -52.94815526  Energy decrease:   8.4050E-11
 ======================================================================
 Norm of residual vector:     0.00000035      Convergence:   0.00000035
 CPU time [min]:276698.215                   Wall time [min]: 31421.251
 
 Iteration  6  CI energy:   -52.94815526  Energy decrease:   1.7093E-09
 ======================================================================
 Norm of residual vector:     0.00000042      Convergence:   0.00000028
 CPU time [min]:291419.712                   Wall time [min]: 32535.784
 
 Iteration  7  CI energy:   -52.94815526  Energy decrease:   1.5801E-10
 ======================================================================
 Norm of residual vector:     0.00000046      Convergence:   0.00000030
 CPU time [min]:306150.293                   Wall time [min]: 33621.473
 
 Iteration  8  CI energy:   -52.94815525  Energy decrease:   6.0568E-10
 ======================================================================
 Norm of residual vector:     0.00000130      Convergence:   0.00000062
 CPU time [min]:320856.169                   Wall time [min]: 34687.222
 
 Iteration  9  CI energy:   -52.94815526  Energy decrease:   2.1484E-09
 ======================================================================
 Norm of residual vector:     0.00000061      Convergence:   0.00000019
 CPU time [min]:335561.053                   Wall time [min]: 35768.060
 
 Iteration 10  CI energy:   -52.94815526  Energy decrease:   1.0160E-09
 ======================================================================
 Norm of residual vector:     0.00000081      Convergence:   0.00000038
 CPU time [min]:350013.418                   Wall time [min]: 36756.082
 
 Iteration 11  CI energy:   -52.94815525  Energy decrease:   1.0324E-09
 ======================================================================
 Norm of residual vector:     0.0000E+00      Convergence:   8.4271E-08
 CPU time [min]:364570.176                   Wall time [min]: 37762.505
 
 Iteration 12  CI energy:   -52.94815526  Energy decrease:   6.3072E-10
 ======================================================================
 
 Iteration has converged in 12 steps.
 
 Final results:
 Total LR-CC(6) energy [au]:         -52.948155255532
 Excitation energy [eV]:          29.6378
 Excitation energy [cm^-1]:   239044.97
 Absorption wavelength [nm]:      41.83
 Spin multiplicity:                     2
 
 Dominant CI coefficients
 Printing threshold:  1.00E-02
 
    0.145077  3a -> 8a                                                  
   -0.532465  3a -> 15a                                                 
   -0.033897  3a -> 31a                                                 
   -0.145077  4a -> 7a                                                  
    0.532466  4a -> 16a                                                 
    0.033897  4a -> 32a                                                 
   -0.018139  3a 2b -> 14a 3b                                           
    0.073676  4a 2b -> 6a 3b                                            
    0.010981  4a 2b -> 10a 3b                                           
   -0.018139  4a 2b -> 13a 3b                                           
   -0.056943  4a 2b -> 18a 3b                                           
    0.016628  2a 2b -> 8a 3b                                            
   -0.071418  2a 2b -> 15a 3b                                           
    0.047489  3a 4a -> 5a 33a                                           
    0.018961  3a 4a -> 9a 33a                                           
   -0.034373  3a 4a -> 17a 33a                                          
   -0.073676  3a 2b -> 6a 4b                                            
   -0.010981  3a 2b -> 10a 4b                                           
   -0.018139  3a 2b -> 13a 4b                                           
    0.056943  3a 2b -> 18a 4b                                           
   -0.018935  3a 2b -> 6a 8b                                            
    0.014438  3a 2b -> 18a 8b                                           
   -0.018507  3a 2b -> 6a 15b                                           
    0.013242  3a 2b -> 18a 15b                                          
   -0.011468  3a 2b -> 8a 6b                                            
    0.022272  3a 2b -> 15a 6b                                           
    0.014422  3a 2b -> 8a 18b                                           
   -0.028659  3a 2b -> 15a 18b                                          
    0.012426  3a 2b -> 15a 23b                                          
    0.012426  3a 2b -> 16a 20b                                          
    0.012081  3a 2b -> 17a 21b                                          
   -0.018465  3a 2b -> 11a 5b                                           
    0.018935  4a 2b -> 6a 7b                                            
   -0.014438  4a 2b -> 18a 7b                                           
    0.018507  4a 2b -> 6a 16b                                           
   -0.013242  4a 2b -> 18a 16b                                          
   -0.012426  4a 2b -> 15a 20b                                          
    0.011468  4a 2b -> 7a 6b                                            
   -0.022272  4a 2b -> 16a 6b                                           
   -0.014422  4a 2b -> 7a 18b                                           
    0.028659  4a 2b -> 16a 18b                                          
    0.012426  4a 2b -> 16a 23b                                          
    0.018139  4a 2b -> 14a 4b                                           
   -0.012081  4a 2b -> 17a 22b                                          
    0.018465  4a 2b -> 12a 5b                                           
   -0.021882  2a 2b -> 15a 7b                                           
   -0.025558  2a 2b -> 15a 16b                                          
   -0.016628  2a 2b -> 7a 4b                                            
    0.071418  2a 2b -> 16a 4b                                           
    0.021882  2a 2b -> 16a 8b                                           
    0.025558  2a 2b -> 16a 15b                                          
   -0.160884  3a 4a -> 5a 9a                                            
    0.041006  3a 4a -> 8a 15a                                           
    0.041006  3a 4a -> 7a 16a                                           
    0.510961  3a 4a -> 5a 17a                                           
    0.131165  3a 4a -> 9a 17a                                           
   -0.021565  3a 4a -> 15a 31a                                          
   -0.021565  3a 4a -> 16a 32a                                          
    0.013174  2a 3a -> 6a 15a                                           
   -0.011770  2a 3a -> 8a 18a                                           
    0.018401  2a 3a -> 15a 18a                                          
   -0.013174  2a 4a -> 6a 16a                                           
    0.011770  2a 4a -> 7a 18a                                           
   -0.018401  2a 4a -> 16a 18a                                          
   -0.012623  3a 4a 2b -> 5a 17a 42b                                    
    0.016817  3a 4a 2b -> 5a 12a 3b                                     
   -0.011378  3a 4a 2b -> 12a 17a 3b                                    
    0.014288  3a 4a 2b -> 17a 22a 3b                                    
   -0.018840  2a 4a 2b -> 5a 9a 3b                                      
    0.068779  2a 4a 2b -> 5a 17a 3b                                     
    0.016792  2a 4a 2b -> 9a 17a 3b                                     
    0.012369  3a 4a 2b -> 5a 9a 6b                                      
   -0.021567  3a 4a 2b -> 5a 17a 6b                                     
    0.014647  3a 4a 2b -> 5a 17a 10b                                    
   -0.015715  3a 4a 2b -> 5a 9a 18b                                     
    0.027627  3a 4a 2b -> 5a 17a 18b                                    
   -0.026852  3a 4a 2b -> 5a 17a 19b                                    
    0.016817  3a 4a 2b -> 5a 11a 4b                                     
   -0.011378  3a 4a 2b -> 11a 17a 4b                                    
    0.014288  3a 4a 2b -> 17a 21a 4b                                    
    0.074122  3a 4a 2b -> 5a 6a 5b                                      
   -0.012772  3a 4a 2b -> 6a 9a 5b                                      
   -0.019260  3a 4a 2b -> 5a 10a 5b                                     
   -0.010063  3a 4a 2b -> 6a 17a 5b                                     
    0.013222  3a 4a 2b -> 10a 17a 5b                                    
   -0.056599  3a 4a 2b -> 5a 18a 5b                                     
   -0.010402  3a 4a 2b -> 9a 18a 5b                                     
    0.016911  3a 4a 2b -> 17a 23a 5b                                    
    0.014821  3a 4a 2b -> 5a 6a 9b                                      
   -0.011165  3a 4a 2b -> 5a 18a 9b                                     
    0.016152  3a 4a 2b -> 5a 6a 17b                                     
   -0.011521  3a 4a 2b -> 5a 18a 17b                                    
    0.018840  2a 3a 2b -> 5a 9a 4b                                      
   -0.068779  2a 3a 2b -> 5a 17a 4b                                     
   -0.016792  2a 3a 2b -> 9a 17a 4b                                     
   -0.021069  2a 3a 2b -> 5a 17a 8b                                     
   -0.024641  2a 3a 2b -> 5a 17a 15b                                    
    0.021069  2a 4a 2b -> 5a 17a 7b                                     
    0.024641  2a 4a 2b -> 5a 17a 16b                                    
   -0.010089  2a 3a 4a -> 5a 6a 9a                                      
    0.012398  2a 3a 4a -> 5a 6a 17a                                     
   -0.012537  2a 3a 4a -> 5a 9a 18a                                     
    0.017839  2a 3a 4a -> 5a 17a 18a                                    
    0.013843  2a 3a 4a -> 5a 17a 23a                                    
 
 ************************ 2018-06-06 08:20:43 *************************
                      Normal termination of mrcc.
 **********************************************************************
--- SharcNET Job Epilogue ---
Job completed successfully.
               jobid: 1545898
               resid: 3025266
         exit status: 0
      allocated time: 2267070
           user time: 20313600
         system time: 1560870
peak rss=32973721600; peak vsz=33437450240 (bytes)
atime=2267070; utime=20313600; stime=1560870; exit=0
