 --invoking executable--
/home/nike/cfour_v2.00beta/bin/xjoda


   *************************************************************************
         <<<     CCCCCC     CCCCCC   |||     CCCCCC     CCCCCC   >>>
       <<<      CCC        CCC       |||    CCC        CCC         >>>
      <<<      CCC        CCC        |||   CCC        CCC            >>>
    <<<        CCC        CCC        |||   CCC        CCC              >>>
      <<<      CCC        CCC        |||   CCC        CCC            >>>
       <<<      CCC        CCC       |||    CCC        CCC         >>>
         <<<     CCCCCC     CCCCCC   |||     CCCCCC     CCCCCC   >>>
   *************************************************************************

     ****************************************************************
     * CFOUR Coupled-Cluster techniques for Computational Chemistry *
     ****************************************************************
 

   Department of Chemistry                Institut fuer Physikalische Chemie
   University of Texas at Austin          Universitaet Mainz
   Austin, TX  78712, USA                 D-55099 Mainz, Germany
 
                       Version 2.00beta
 
                     wob102                                            
                     Mon Apr  2 01:53:12 EDT 2018                      
                     integer*8 version is running
 
********************************************************************************
*                          Input from ZMAT file                                *
********************************************************************************
TITLE                                                                           
N                                                                               
                                                                                
*ACES2(CALC=CCSD                                                                
INPUT_MRCC=OFF                                                                  
CC_PROG=MRCC                                                                    
XFORM_TOL=18                                                                    
SAVE_INTS=ON                                                                    
SCF_EXPORDER=6                                                                  
SCF_EXPSTART=5                                                                  
#SCF_DAMPING=1000                                                               
SCF_EXTRAPOLATION=ON                                                            
SCF_CONV=10                                                                     
SCF_MAXCYC=9999                                                                 
CC_CONV=10                                                                      
CC_MAXCYC=999                                                                   
T3_EXTRAPOL=ON                                                                  
REFERENCE=ROHF                                                                  
CHARGE=+1                                                                       
MULT=3                                                                          
ABCDTYPE=STANDARD                                                               
OCCUPATION=2-1-1-0-0-0-0-0/2-0-0-0-0-0-0-0                                      
MEM=32                                                                          
MEM_UNIT=GB                                                                     
BASIS=SPECIAL)                                                                  
                                                                                
N:aCV5Z-EMSL                                                                    
                                                                                
********************************************************************************
  @GTFLGS-W, Keyword #SCF_DAMPING not known and is ignored.
    -------------------------------------------------------------------
                    CFOUR Control Parameters 
    -------------------------------------------------------------------
        External           Internal           Value            Units
          Name               Name
    -------------------------------------------------------------------
       ABCDTYPE             IABCDT         STANDARD     [  0]   ***   
       ANHARMONIC           IANHAR         OFF          [  0]   ***   
       ANH_ALGORIT          IANALG         STANDARD     [  0]   ***   
       ANH_DERIVAT          IANDER         SECOND       [  1]   ***   
       ANH_STEPSIZ          ICUBST             50000          x 10-6  
       ANH_SYMMETR          IANHSM         ABELIAN      [  0]   ***   
       AO_LADDERS           IAOLAD         SINGLEPASS   [  1]   ***   
       BASIS                IBASIS         SPECIAL      [  0]   ***   
       BREIT                IBREIT         OFF          [  0]   ***   
       BRUCK_CONV           IBRTOL          10D-  4             ***   
       BRUECKNER            IBRKNR             OFF      [  0]   ***   
       BUFFERSIZE           IBUFFS            600               ***   
       CACHE_RECS           ICHREC             10               ***   
       CALCLEVEL            ICLLVL           CCSD       [ 10]   ***   
       CCORBOPT             ICCORB             OFF      [  0] x 0.01  
       CC_CONV              ICCCNV          10D- 10             ***   
       CC_EXPORDER          ICCEOR              5               ***   
       CC_EXTRAPOL          ICCEXT             DIIS     [  1]   ***   
       CC_MAXCYC            ICCCYC            999              cycles 
       CC_PROGRAM           ICCPRO         MRCC         [  2]   ***   
       CHARGE               ICHRGE              1               ***   
       CHOLESKY             ICHOLE         OFF          [  0]   ***   
       CIS_CONV             ICISTL              5               ***   
       COMM_SIZE            IPSIZE            ***               ***   
       CONSTANT             ICONST         OLD          [  1]   ***   
       CONTINUUM            ICONTU         NONE         [  0]   ***   
       CONTRACTION          ICNTYP          GENERAL     [  1]   ***   
       COORDINATES          ICOORD         INTERNAL     [  0]   ***   
       CPHF_CONVER          ICPHFT          10D- 16             ***   
       CPHF_MAXCYC          ICPHFC             64              cycles 
       CUBIC                ICUBIC         OFF          [  0]   ***   
       CURVILINEAR          ICURVY            OFF       [  0]   ***   
       DBOC                 IDBOC          OFF          [  0]   ***   
       DCT                  IDCT           OFF          [  0]   ***   
       DERIV_LEV            IDRLVL            ZERO      [  0]   ***   
       DIAG_MRCC            IEOMST          10D-  0             ***   
       DIFF_TYPE            IDIFTY         RELAXED      [  0]   ***   
       DIRECT               IDIRCT         OFF          [  0]   ***   
       DROPMO               IDRPMO      NONE         
       ECP                  IECP           OFF          [  0]   ***   
       EIGENVECTOR          IVEC                1               ***   
       EL_ANHARM            IELANH         OFF          [  0]   ***   
       EOMFOLLOW            IEOMSR         ENERGY       [  0]   ***   
       EOM_MRCC             IMRCCE         NEW          [  1]   ***   
       EOM_NONIT            EOMNON         OFF          [  0]   ***   
       EOM_NSING            IEOMSI          10D-  0             ***   
       EOM_NSTATES          IMRCCD         DAVIDSON     [  0]   ***   
       EOM_NTRIP            IEOMTR          10D-  0             ***   
       EOM_ORDER            IEXORD         ENERGY       [  0]   ***   
       ESTATE_CONV          IEXTOL          10D-  5             ***   
       ESTATE_DIAG          IEXDIG         ITERATIVE    [  0]   ***   
       ESTATE_LOCK          IESLOC         ON           [  1]   ***   
       ESTATE_MAXC          IEXMXC             20               ***   
       ESTATE_PROP          IEXPRP         OFF          [  0]   ***   
       EVAL_HESS            IRECAL              0            # of cyc.
       EXCITATION           IEXCIT              0               ***   
       EXCITE               IEXCIT         NONE         [  0]   ***   
       FCGRADNEW            IFCGNW         OFF          [  0]   ***   
       FC_FIELD             IFINFC              0             x 10-6  
       FD_CALTYPE           IFDCAL         GRADONLY     [  0]   ***   
       FD_PROJECT           IFDPRJ         OFF          [  1]   ***   
       FD_STEPSIZE          IDISFD              0            10-4 bohr
       FD_USEGROUP          IFDGRP         FULL         [  0]   ***   
       FILE_RECSIZ          IFLREC              4096           words  
       FINITE_PERT          IFIPER              0             x 10-6  
       FIXGEOM              IFIXGM         OFF          [  0]   ***   
       FOCK                 IFOCK          AO           [  1]   ***   
       FREQ_ALGORI          IVIALG         STANDARD     [  0]   ***   
       FROZEN_CORE          IFROCO         OFF          [  0]   ***   
       FROZEN_VIRT          IFROVI         OFF          [  0]   ***   
       GAMMA_ABCD           IGABCD         STORE        [  0]   ***   
       GAMMA_ABCI           IGABCI         STORE        [  0]   ***   
       GENBAS_1             IGNBS1              0               ***   
       GENBAS_2             IGNBS2              0               ***   
       GENBAS_3             IGNBS3              0               ***   
       GENBAS_4             IGNBS4              0               ***   
       GEO_CONV             ICONTL              5              H/bohr 
       GEO_MAXCYC           IOPTCY             50               ***   
       GEO_MAXSTEP          IMXSTP            300            millibohr
       GEO_METHOD           INR            SINGLE_POINT [  5]   ***   
       GIAO                 IGIAO          OFF          [  1]   ***   
       GIMIC                IGIMIC         OFF          [  0]   ***   
       GRID                 IGRID          OFF          [  0]   ***   
       GRID_ALGO            IGALGO         SERIAL       [  0]   ***   
       GUESS                IGUESS            MOREAD    [  0]   ***   
       HBAR                 IHBAR              OFF      [  0]   ***   
       HESS_TYPE            IHESTP         SCF          [  0]   ***   
       HF2_FILE             IHF2Fl         USE          [  1]   ***   
       HFSTABILITY          ISTABL         OFF          [  0]   ***   
       INCORE               INCORE             OFF      [  0]   ***   
       INPUT_MRCC           IMRCC          OFF          [  0]   ***   
       INTEGRALS            INTTYP             VMOL     [  1]   ***   
       JODA_PRINT           IJPRNT              0               ***   
       LINDEP_TOL           ILINDP              8               ***   
       LINEQ_CONV           IZTACN          10D-  7           cycles  
       LINEQ_EXPOR          ILMAXD              5               ***   
       LINEQ_MAXCY          ILMAXC             50               ***   
       LINEQ_TYPE           ILTYPE         DIIS         [  1]   ***   
       LOCK_ORBOCC          ILOCOC             OFF      [  0]   ***   
       MEMORY_SIZE          IMEMSZ         *********           words  
       MEM_UNIT             IMEMU          GB           [  3]   ***   
       MRCC                 IMRCCC         OFF          [  0]   ***   
       MULTIPLICTY          IMULTP              3               ***   
       NEGEVAL              IDIE             ABORT      [  0]   ***   
       NEWNORM              INEWNO         OFF          [  0]   ***   
       NON-HF               INONHF              ON      [  1]   ***   
       NTOP_TAMP            ITOPT2             15               ***   
       NUC_MODEL            INUCMO         POINT        [  0]   ***   
       OCCUPATION           IOCCU  A   2,  1,  1,  0,  0,  0,  0,  0,
                                   B   2,  0,  0,  0,  0,  0,  0,  0,
       OPEN-SHELL           IOPEN          SPIN-ORBITAL [  0]   ***   
       ORBITALS             IORBTP         SEMICANONICAL[  1]   ***   
       PARALLEL             IPARAL         ON           [  1]   ***   
       PARA_INT             IPINTS         ON           [  1]   ***   
       PARA_PRINT           IPPRIN              0               ***   
       PERT_ORB             IPTORB         STANDARD     [  0]   ***   
       POINTS               IGRDFD              0               ***   
       PRINT                IPRNT               0               ***   
       PROPS                IPROPS             OFF      [  0]   ***   
       PROP_INTEGR          IINTYP         INTERNAL     [  0]   ***   
       PSI                  IPSI           OFF          [  0]   ***   
       QUARTIC              IQUART         OFF          [  0]   ***   
       RAMAN_INT            IRAMIN         OFF          [  0]   ***   
       RAMAN_ORB            IRAMRE         UNRELAXED    [  0]   ***   
       RDO                  IRDOFM             OFF      [  0]   ***   
       REFERENCE            IREFNC             ROHF     [  2]   ***   
       RELATIVIST           IRELAT         OFF          [  0]   ***   
       RELAX_DENS           IRDENS             OFF      [  0]   ***   
       RESET_FLAGS          IRESET             OFF      [  0]   ***   
       RESTART_CC           ICCRES         OFF          [  0]   ***   
       ROT_EVEC             ROTVEC              0               ***   
       SAVE_INTS            ISVINT              ON      [  1]   ***   
       SCALE_ON             ISTCRT              0               ***   
       SCF_CONV             ISCFCV          10D- 10             ***   
       SCF_DAMPING          IDAMP               0             x 10-3  
       SCF_EXPORDE          IRPPOR              6               ***   
       SCF_EXPSTAR          IRPPLS              5               ***   
       SCF_EXTRAPO          IRPP                ON      [  1]   ***   
       SCF_MAXCYC           ISCFCY            ***              cycles 
       SCF_NOSTOP           ISCFST         OFF          [  0]   ***   
       SCF_PRINT            ISCFPR              0               ***   
       SD_FIELD             IFINSD              0             x 10-6  
       SEQUENCE             ISEQUE         OFF          [  0]   ***   
       SOPERT               IPERSO         OFF          [  0]   ***   
       SPHERICAL            IDFGHI             ON       [  1]   ***   
       SPINORBIT            ISOCAL         OFF          [  0]   ***   
       SPINROTATIO          ISRCON         OFF          [  0]   ***   
       SPIN_FLIP            ISPFLP         OFF          [  0]   ***   
       SPIN_ORBIT           ISPORB         OFF          [  0]   ***   
       SPIN_SCAL            ISCSMP         OFF          [  0]   ***   
       SUBGROUP             ISUBGP         DEFAULT      [  0]   ***   
       SUBGRPAXIS           ISBXYZ         X            [  0]   ***   
       SYMMETRY             ISYM             ON         [  0]   ***   
       SYM_CHECK            ISYMCK         OVERRIDE     [  1]   ***   
       T3_EXTRAPOL          IT3EXT         ON           [  1]   ***   
       TAMP_SUM             IEVERY              5               ***   
       TESTSUITE            ITESTS         OFF          [  0]   ***   
       THERMOCH             ITHERM         OFF          [  0]   ***   
       TOL_CHOLESK          ITOLCH          10D-  4             ***   
       TRANGRAD             IRESRM         OFF          [  0]   ***   
       TRANS_INV            ITRAIN         USE          [  0]   ***   
       TREAT_PERT           ITREAT         SIMULTANEOUS [  0]   ***   
       UIJ_THRESHO          IUIJTH              1               ***   
       UNITS                IUNITS         ANGSTROM     [  0]   ***   
       UNOS                 IUNOS          OFF          [  0]   ***   
       UPDATE_HESS          IHUPDT         ON           [  1]   ***   
       VIBPHASE             ISETPH         STANDARD     [  0]   ***   
       VIBRATION            IVIB              NO        [  0]   ***   
       VIB_ALGORIT          IGEALG         STANDARD     [  0]   ***   
       VNATORB              IVNORB         OFF          [  0]   ***   
       VTRAN                IVTRAN         FULL/PARTIAL [  0]   ***   
       XFIELD               IXEFLD              0             x 10-6  
       XFORM_TOL            IXFTOL          10D- 18             ***   
       YFIELD               IYEFLD              0             x 10-6  
       ZFIELD               IZEFLD              0             x 10-6  
    -------------------------------------------------------------------
   1 entries found in Z-matrix 
   Job Title : TITLE                                                                           
  1  N          7    14.00307
 factor:   60.1997200000000     
   Rotational constants (in cm-1): 

   Rotational constants (in MHz): 

********************************************************************************
   The full molecular point group is I h .
   The largest Abelian subgroup of the full molecular point group is D2h .
   The computational point group is D2h .
********************************************************************************
  @GTFLGS-W, Keyword #SCF_DAMPING not known and is ignored.
  There are  181 basis functions.
 @GEOPT-W, Archive file not created for single-point calculation.
  @CHECKOUT-I, Total execution time (CPU/WALL):        0.24/       1.15 seconds.
--executable xjoda finished with status     0 in        1.30 seconds (walltime).
 --invoking executable--
/home/nike/cfour_v2.00beta/bin/xvmol
 Serial version of molecule started
********************************************************************************
                    Input from MOL file
********************************************************************************
INTGRL        1    0    1    0    0    0    0    0    0                         
         *** CFOUR Program System (Release V0.1) ***                            
TITLE                                                                           
    1    3 X  Y   Z   0.10E-08              0    0                              
   9999.00      3.00                                                            
          7.00000000    1    6    1    1    1    1    1    1                    
N #1   0.000000000000000   0.000000000000000   0.000000000000000                
   19   11                                                                      
   129200.000000000       2.500000000000000E-005 -6.000000000000000E-006        
  0.000000000000000E+000  0.000000000000000E+000  0.000000000000000E+000        
  0.000000000000000E+000  0.000000000000000E+000  0.000000000000000E+000        
  0.000000000000000E+000  0.000000000000000E+000  0.000000000000000E+000        
   19350.0000000000       1.970000000000000E-004 -4.300000000000000E-005        
  0.000000000000000E+000  0.000000000000000E+000  0.000000000000000E+000        
  0.000000000000000E+000  0.000000000000000E+000  0.000000000000000E+000        
  0.000000000000000E+000  0.000000000000000E+000  0.000000000000000E+000        
   4404.00000000000       1.032000000000000E-003 -2.270000000000000E-004        
  0.000000000000000E+000  0.000000000000000E+000  0.000000000000000E+000        
  0.000000000000000E+000  0.000000000000000E+000  0.000000000000000E+000        
  0.000000000000000E+000  0.000000000000000E+000  0.000000000000000E+000        
   1248.00000000000       4.325000000000000E-003 -9.580000000000000E-004        
  0.000000000000000E+000  0.000000000000000E+000  0.000000000000000E+000        
  0.000000000000000E+000  0.000000000000000E+000  0.000000000000000E+000        
  0.000000000000000E+000  0.000000000000000E+000  0.000000000000000E+000        
   408.000000000000       1.538000000000000E-002 -3.416000000000000E-003        
  0.000000000000000E+000  0.000000000000000E+000  0.000000000000000E+000        
  0.000000000000000E+000  0.000000000000000E+000  0.000000000000000E+000        
  0.000000000000000E+000  0.000000000000000E+000  0.000000000000000E+000        
   148.200000000000       4.686700000000000E-002 -1.066700000000000E-002        
  0.000000000000000E+000  0.000000000000000E+000  0.000000000000000E+000        
  0.000000000000000E+000  0.000000000000000E+000  0.000000000000000E+000        
  0.000000000000000E+000  0.000000000000000E+000  0.000000000000000E+000        
   58.5000000000000       0.120116000000000      -2.827900000000000E-002        
  0.000000000000000E+000  0.000000000000000E+000  0.000000000000000E+000        
  0.000000000000000E+000  0.000000000000000E+000  0.000000000000000E+000        
  0.000000000000000E+000  0.000000000000000E+000  0.000000000000000E+000        
   24.5900000000000       0.245695000000000      -6.401999999999999E-002        
  0.000000000000000E+000  0.000000000000000E+000  0.000000000000000E+000        
  0.000000000000000E+000  0.000000000000000E+000  0.000000000000000E+000        
  0.000000000000000E+000  0.000000000000000E+000  0.000000000000000E+000        
   10.8100000000000       0.361379000000000      -0.113932000000000             
  0.000000000000000E+000  0.000000000000000E+000  0.000000000000000E+000        
  0.000000000000000E+000  0.000000000000000E+000  0.000000000000000E+000        
  0.000000000000000E+000  0.000000000000000E+000  0.000000000000000E+000        
   4.88200000000000       0.287283000000000      -0.146995000000000             
  0.000000000000000E+000  0.000000000000000E+000  0.000000000000000E+000        
  0.000000000000000E+000  0.000000000000000E+000  0.000000000000000E+000        
  0.000000000000000E+000  0.000000000000000E+000  0.000000000000000E+000        
   2.19500000000000       7.017100000000000E-002 -7.251000000000000E-003        
   1.00000000000000       0.000000000000000E+000  0.000000000000000E+000        
  0.000000000000000E+000  0.000000000000000E+000  0.000000000000000E+000        
  0.000000000000000E+000  0.000000000000000E+000  0.000000000000000E+000        
  0.871500000000000       1.831000000000000E-003  0.366183000000000             
  0.000000000000000E+000   1.00000000000000       0.000000000000000E+000        
  0.000000000000000E+000  0.000000000000000E+000  0.000000000000000E+000        
  0.000000000000000E+000  0.000000000000000E+000  0.000000000000000E+000        
  0.350400000000000       8.350000000000000E-004  0.547908000000000             
  0.000000000000000E+000  0.000000000000000E+000   1.00000000000000             
  0.000000000000000E+000  0.000000000000000E+000  0.000000000000000E+000        
  0.000000000000000E+000  0.000000000000000E+000  0.000000000000000E+000        
  0.139700000000000      -6.000000000000000E-006  0.216645000000000             
  0.000000000000000E+000  0.000000000000000E+000  0.000000000000000E+000        
   1.00000000000000       0.000000000000000E+000  0.000000000000000E+000        
  0.000000000000000E+000  0.000000000000000E+000  0.000000000000000E+000        
   12.2750000000000       0.000000000000000E+000  0.000000000000000E+000        
  0.000000000000000E+000  0.000000000000000E+000  0.000000000000000E+000        
  0.000000000000000E+000   1.00000000000000       0.000000000000000E+000        
  0.000000000000000E+000  0.000000000000000E+000  0.000000000000000E+000        
   27.8270000000000       0.000000000000000E+000  0.000000000000000E+000        
  0.000000000000000E+000  0.000000000000000E+000  0.000000000000000E+000        
  0.000000000000000E+000  0.000000000000000E+000   1.00000000000000             
  0.000000000000000E+000  0.000000000000000E+000  0.000000000000000E+000        
   63.0850000000000       0.000000000000000E+000  0.000000000000000E+000        
  0.000000000000000E+000  0.000000000000000E+000  0.000000000000000E+000        
  0.000000000000000E+000  0.000000000000000E+000  0.000000000000000E+000        
   1.00000000000000       0.000000000000000E+000  0.000000000000000E+000        
   143.013000000000       0.000000000000000E+000  0.000000000000000E+000        
  0.000000000000000E+000  0.000000000000000E+000  0.000000000000000E+000        
  0.000000000000000E+000  0.000000000000000E+000  0.000000000000000E+000        
  0.000000000000000E+000   1.00000000000000       0.000000000000000E+000        
  5.180000000000000E-002  0.000000000000000E+000  0.000000000000000E+000        
  0.000000000000000E+000  0.000000000000000E+000  0.000000000000000E+000        
  0.000000000000000E+000  0.000000000000000E+000  0.000000000000000E+000        
  0.000000000000000E+000  0.000000000000000E+000   1.00000000000000             
   13   10                                                                      
   147.000000000000       8.920000000000000E-004  0.000000000000000E+000        
  0.000000000000000E+000  0.000000000000000E+000  0.000000000000000E+000        
  0.000000000000000E+000  0.000000000000000E+000  0.000000000000000E+000        
  0.000000000000000E+000  0.000000000000000E+000                                
   34.7600000000000       7.082000000000000E-003  0.000000000000000E+000        
  0.000000000000000E+000  0.000000000000000E+000  0.000000000000000E+000        
  0.000000000000000E+000  0.000000000000000E+000  0.000000000000000E+000        
  0.000000000000000E+000  0.000000000000000E+000                                
   11.0000000000000       3.281600000000000E-002  0.000000000000000E+000        
  0.000000000000000E+000  0.000000000000000E+000  0.000000000000000E+000        
  0.000000000000000E+000  0.000000000000000E+000  0.000000000000000E+000        
  0.000000000000000E+000  0.000000000000000E+000                                
   3.99500000000000       0.108209000000000       0.000000000000000E+000        
  0.000000000000000E+000  0.000000000000000E+000  0.000000000000000E+000        
  0.000000000000000E+000  0.000000000000000E+000  0.000000000000000E+000        
  0.000000000000000E+000  0.000000000000000E+000                                
   1.58700000000000       0.248094000000000        1.00000000000000             
  0.000000000000000E+000  0.000000000000000E+000  0.000000000000000E+000        
  0.000000000000000E+000  0.000000000000000E+000  0.000000000000000E+000        
  0.000000000000000E+000  0.000000000000000E+000                                
  0.653300000000000       0.374513000000000       0.000000000000000E+000        
   1.00000000000000       0.000000000000000E+000  0.000000000000000E+000        
  0.000000000000000E+000  0.000000000000000E+000  0.000000000000000E+000        
  0.000000000000000E+000  0.000000000000000E+000                                
  0.268600000000000       0.348414000000000       0.000000000000000E+000        
  0.000000000000000E+000   1.00000000000000       0.000000000000000E+000        
  0.000000000000000E+000  0.000000000000000E+000  0.000000000000000E+000        
  0.000000000000000E+000  0.000000000000000E+000                                
  0.106700000000000       0.128340000000000       0.000000000000000E+000        
  0.000000000000000E+000  0.000000000000000E+000   1.00000000000000             
  0.000000000000000E+000  0.000000000000000E+000  0.000000000000000E+000        
  0.000000000000000E+000  0.000000000000000E+000                                
   10.7600000000000       0.000000000000000E+000  0.000000000000000E+000        
  0.000000000000000E+000  0.000000000000000E+000  0.000000000000000E+000        
   1.00000000000000       0.000000000000000E+000  0.000000000000000E+000        
  0.000000000000000E+000  0.000000000000000E+000                                
   27.1800000000000       0.000000000000000E+000  0.000000000000000E+000        
  0.000000000000000E+000  0.000000000000000E+000  0.000000000000000E+000        
  0.000000000000000E+000   1.00000000000000       0.000000000000000E+000        
  0.000000000000000E+000  0.000000000000000E+000                                
   68.6560000000000       0.000000000000000E+000  0.000000000000000E+000        
  0.000000000000000E+000  0.000000000000000E+000  0.000000000000000E+000        
  0.000000000000000E+000  0.000000000000000E+000   1.00000000000000             
  0.000000000000000E+000  0.000000000000000E+000                                
   173.425000000000       0.000000000000000E+000  0.000000000000000E+000        
  0.000000000000000E+000  0.000000000000000E+000  0.000000000000000E+000        
  0.000000000000000E+000  0.000000000000000E+000  0.000000000000000E+000        
   1.00000000000000       0.000000000000000E+000                                
  3.690000000000000E-002  0.000000000000000E+000  0.000000000000000E+000        
  0.000000000000000E+000  0.000000000000000E+000  0.000000000000000E+000        
  0.000000000000000E+000  0.000000000000000E+000  0.000000000000000E+000        
  0.000000000000000E+000   1.00000000000000                                     
    8    8                                                                      
   4.64700000000000        1.00000000000000       0.000000000000000E+000        
  0.000000000000000E+000  0.000000000000000E+000  0.000000000000000E+000        
  0.000000000000000E+000  0.000000000000000E+000  0.000000000000000E+000        
   1.81300000000000       0.000000000000000E+000   1.00000000000000             
  0.000000000000000E+000  0.000000000000000E+000  0.000000000000000E+000        
  0.000000000000000E+000  0.000000000000000E+000  0.000000000000000E+000        
  0.707000000000000       0.000000000000000E+000  0.000000000000000E+000        
   1.00000000000000       0.000000000000000E+000  0.000000000000000E+000        
  0.000000000000000E+000  0.000000000000000E+000  0.000000000000000E+000        
  0.276000000000000       0.000000000000000E+000  0.000000000000000E+000        
  0.000000000000000E+000   1.00000000000000       0.000000000000000E+000        
  0.000000000000000E+000  0.000000000000000E+000  0.000000000000000E+000        
   14.0530000000000       0.000000000000000E+000  0.000000000000000E+000        
  0.000000000000000E+000  0.000000000000000E+000   1.00000000000000             
  0.000000000000000E+000  0.000000000000000E+000  0.000000000000000E+000        
   39.0810000000000       0.000000000000000E+000  0.000000000000000E+000        
  0.000000000000000E+000  0.000000000000000E+000  0.000000000000000E+000        
   1.00000000000000       0.000000000000000E+000  0.000000000000000E+000        
   108.685000000000       0.000000000000000E+000  0.000000000000000E+000        
  0.000000000000000E+000  0.000000000000000E+000  0.000000000000000E+000        
  0.000000000000000E+000   1.00000000000000       0.000000000000000E+000        
  9.710000000000001E-002  0.000000000000000E+000  0.000000000000000E+000        
  0.000000000000000E+000  0.000000000000000E+000  0.000000000000000E+000        
  0.000000000000000E+000  0.000000000000000E+000   1.00000000000000             
    6    6                                                                      
   2.94200000000000        1.00000000000000       0.000000000000000E+000        
  0.000000000000000E+000  0.000000000000000E+000  0.000000000000000E+000        
  0.000000000000000E+000                                                        
   1.20400000000000       0.000000000000000E+000   1.00000000000000             
  0.000000000000000E+000  0.000000000000000E+000  0.000000000000000E+000        
  0.000000000000000E+000                                                        
  0.493000000000000       0.000000000000000E+000  0.000000000000000E+000        
   1.00000000000000       0.000000000000000E+000  0.000000000000000E+000        
  0.000000000000000E+000                                                        
   14.3570000000000       0.000000000000000E+000  0.000000000000000E+000        
  0.000000000000000E+000   1.00000000000000       0.000000000000000E+000        
  0.000000000000000E+000                                                        
   52.6900000000000       0.000000000000000E+000  0.000000000000000E+000        
  0.000000000000000E+000  0.000000000000000E+000   1.00000000000000             
  0.000000000000000E+000                                                        
  0.192000000000000       0.000000000000000E+000  0.000000000000000E+000        
  0.000000000000000E+000  0.000000000000000E+000  0.000000000000000E+000        
   1.00000000000000                                                             
    4    4                                                                      
   2.51100000000000        1.00000000000000       0.000000000000000E+000        
  0.000000000000000E+000  0.000000000000000E+000                                
  0.942000000000000       0.000000000000000E+000   1.00000000000000             
  0.000000000000000E+000  0.000000000000000E+000                                
   41.1200000000000       0.000000000000000E+000  0.000000000000000E+000        
   1.00000000000000       0.000000000000000E+000                                
  0.436000000000000       0.000000000000000E+000  0.000000000000000E+000        
  0.000000000000000E+000   1.00000000000000                                     
    2    2                                                                      
   1.76800000000000        1.00000000000000       0.000000000000000E+000        
  0.788000000000000       0.000000000000000E+000   1.00000000000000             
FINISH                                                                          
 
********************************************************************************
 One- and two-electron integrals over symmetry-adapted AOs are calculated.

  Spherical harmonics are used.
  
  Integrals less than  0.10E-13 are neglected.

  Nuclear repulsion energy :    0.0000000000 a.u.
  required memory for a1 array               20241832  words 
  required memory for a2 array               27939203  words 
 @GETMEM-I,  Allocated     382 MB of main memory.
  @MOLECU-I, One electron integrals (CPU/WALL):        0.24/       0.25 seconds.
  @TWOEL-I,     353805 integrals of symmetry type  I I I I
  @TWOEL-I,    3159625 integrals of symmetry type  I J I J
  @TWOEL-I,    1813133 integrals of symmetry type  I I J J
  @TWOEL-I,    7382552 integrals of symmetry type  I J K L
  @TWOEL-I, Total number of 2-e integrals   12709115.
  @MOLECU-I, Two electron integrals (CPU/WALL):       70.87/      89.67 seconds.
  @CHECKOUT-I, Total execution time (CPU/WALL):       71.22/      90.07 seconds.
--executable xvmol finished with status     0 in       90.21 seconds (walltime).
 --invoking executable--
/home/nike/cfour_v2.00beta/bin/xvmol2ja
 @GETMEM-I,  Allocated   30517 MB of main memory.
  @CHECKOUT-I, Total execution time (CPU/WALL):        0.02/       0.91 seconds.
--executable xvmol2ja finished with status     0 in        1.32 seconds (walltime).
 --invoking executable--
/home/nike/cfour_v2.00beta/bin/xvscf
  There are  181 functions in the AO basis.

  There are 8 irreducible representations.

       Irrep        # of functions
         1                 39
         2                 28
         3                 28
         4                 16
         5                 28
         6                 16
         7                 16
         8                 10


  Parameters for SCF calculation: 
        SCF reference function: ROHF  
  Maximum number of iterations: 9999
     Full symmetry point group: I h 
     Computational point group: D2h 
        Initial density matrix: MOREAD                 
     SCF convergence tolerance: 10**(-10)
  DIIS convergence acceleration:  ON
          Latest start for DIIS:   5
                     DIIS order:   6

     Alpha population by irrep:   2    1    1    0    0    0    0    0
      Beta population by irrep:   2    0    0    0    0    0    0    0


  Memory information:    2018302 words required.
  Fock matrices are constructed from AO integral file.
 @GETMEM-I,  Allocated      15 MB of main memory.
  Initialization and symmetry analysis required      0.003 seconds.

 total no. of electrons in initial guess :  0.000000000000000E+000
 total no. of electrons in initial guess :  0.000000000000000E+000
  --------------------------------------------------------------------
  Iteration         Total Energy            Largest Density Difference
  --------------------------------------------------------------------
       0             0.000000000000000              0.0000000000D+00
   current occupation vector 
     2  1  1  0  0  0  0  0
     2  0  0  0  0  0  0  0
       1           -50.667758489919137              0.1074926886D+02
   current occupation vector 
     2  1  1  0  0  0  0  0
     2  0  0  0  0  0  0  0
       2           -52.795026044419593              0.1054871248D+02
   current occupation vector 
     2  1  1  0  0  0  0  0
     2  0  0  0  0  0  0  0
       3           -53.852313310572882              0.1348217052D+01
   current occupation vector 
     2  1  1  0  0  0  0  0
     2  0  0  0  0  0  0  0
       4           -53.887151513986367              0.3676364921D+00
   current occupation vector 
     2  1  1  0  0  0  0  0
     2  0  0  0  0  0  0  0
       5           -53.887957980622922              0.6417680903D-01
   current occupation vector 
     2  1  1  0  0  0  0  0
     2  0  0  0  0  0  0  0
       6           -53.887988969944580              0.8359880178D-02
   current occupation vector 
     2  1  1  0  0  0  0  0
     2  0  0  0  0  0  0  0
       7           -53.887990976353500              0.2266693077D-02
   current occupation vector 
     2  1  1  0  0  0  0  0
     2  0  0  0  0  0  0  0
       8           -53.887991205238571              0.5070588924D-03
   current occupation vector 
     2  1  1  0  0  0  0  0
     2  0  0  0  0  0  0  0
       9           -53.887991206704669              0.2873490779D-04
   current occupation vector 
     2  1  1  0  0  0  0  0
     2  0  0  0  0  0  0  0
      10           -53.887991206723378              0.4856480703D-05
   current occupation vector 
     2  1  1  0  0  0  0  0
     2  0  0  0  0  0  0  0
      11           -53.887991206723818              0.5417658373D-06
   current occupation vector 
     2  1  1  0  0  0  0  0
     2  0  0  0  0  0  0  0
      12           -53.887991206723761              0.1704334096D-07
   current occupation vector 
     2  1  1  0  0  0  0  0
     2  0  0  0  0  0  0  0
      13           -53.887991206723818              0.1722077169D-08
   current occupation vector 
     2  1  1  0  0  0  0  0
     2  0  0  0  0  0  0  0
      14           -53.887991206723804              0.2531617693D-09
   current occupation vector 
     2  1  1  0  0  0  0  0
     2  0  0  0  0  0  0  0
      15           -53.887991206723868              0.1663700705D-09
   current occupation vector 
     2  1  1  0  0  0  0  0
     2  0  0  0  0  0  0  0
      16           -53.887991206724067              0.1486339940D-09
   current occupation vector 
     2  1  1  0  0  0  0  0
     2  0  0  0  0  0  0  0
      17           -53.887991206724159              0.1212925316D-09
   current occupation vector 
     2  1  1  0  0  0  0  0
     2  0  0  0  0  0  0  0
      18           -53.887991206724330              0.8060092593D-09
   current occupation vector 
     2  1  1  0  0  0  0  0
     2  0  0  0  0  0  0  0

  SCF has converged.

 Density matrix saved to file den.dat
 total alpha spin electron number:   4.00000000000001     
 total  beta spin electron number:   2.00000000000002     
     E(ROHF)=       -53.887991206724422              0.6782197026D-10

  Eigenvector printing suppressed.


       The average multiplicity is    3.0000000
  The expectation value of S**2 is    2.0000000

 @PUTMOS-I, Writing converged MOs to NEWMOS. 
 @PUTMOS-I, Symmetry   1 Full Blocks  9 Partial Blocksize   3
 @PUTMOS-I, Symmetry   2 Full Blocks  7 Partial Blocksize   0
 @PUTMOS-I, Symmetry   3 Full Blocks  7 Partial Blocksize   0
 @PUTMOS-I, Symmetry   4 Full Blocks  4 Partial Blocksize   0
 @PUTMOS-I, Symmetry   5 Full Blocks  7 Partial Blocksize   0
 @PUTMOS-I, Symmetry   6 Full Blocks  4 Partial Blocksize   0
 @PUTMOS-I, Symmetry   7 Full Blocks  4 Partial Blocksize   0
 @PUTMOS-I, Symmetry   8 Full Blocks  2 Partial Blocksize   2
  @DMPJOB-I, Rotating orbitals to semicanonical basis.
             *** Eigenvalues correspond to new basis. ***

  @PRJDEN-I, Basis set contains h and/or higher angular momentum functions.
             Analysis of density matrix symmetry not available.
             Check irreps of the molecular orbitals in the full point group
             for presence of an asymmetric solution.

 
  ORBITAL EIGENVALUES (ALPHA)  (1H = 27.2113838 eV)

       MO #        E(hartree)               E(eV)           FULLSYM    COMPSYM
       ----   --------------------   --------------------   -------   ---------
    1     1         -16.3207634201        -444.1105576521      Ag        Ag (1)
    2     2          -1.6128489339         -43.8878513834      Ag        Ag (1)
    3    68          -1.1101361597         -30.2083411332       u       B3u (3)
    4    40          -1.1101361597         -30.2083411332       u       B2u (2)
  +++++++++++++++++++++++++++++++++++++++++++++++++++++++++++++++++++++++++++++
    5   112          -0.4673105704         -12.7161672953      Au       B1u (5)
    6     3          -0.1326558387          -3.6097489415      Ag        Ag (1)
    7    41          -0.0907269663          -2.4688063021       u       B2u (2)
    8    69          -0.0907269663          -2.4688063021       u       B3u (3)
    9   113          -0.0847300785          -2.3056226883      Au       B1u (5)
   10     4           0.0542657890           1.4766472115      Ag        Ag (1)
   11   156           0.0550598121           1.4982536803       g       B2g (7)
   12   140           0.0550598121           1.4982536803       g       B3g (6)
   13     5           0.0577403597           1.5711950895       g        Ag (1)
   14    96           0.0577403597           1.5711950895       g       B1g (4)
   15    42           0.1317420237           3.5848827731       u       B2u (2)
   16    70           0.1317420237           3.5848827731       u       B3u (3)
   17   114           0.1532569919           4.1703348309      Au       B1u (5)
   18     6           0.2513357950           6.8391947845      Ag        Ag (1)
   19   115           0.4924171854          13.3993530314      Au       B1u (5)
   20    43           0.4935498190          13.4301735589       u       B2u (2)
   21    71           0.4935498190          13.4301735589       u       B3u (3)
   22   172           0.4969793537          13.5234959442       u        Au (8)
   23   116           0.4969793537          13.5234959442       u       B1u (5)
   24    44           0.5027867872          13.6815242464       u       B2u (2)
   25    72           0.5027867872          13.6815242464       u       B3u (3)
   26    97           0.5811306967          15.8133704383       g       B1g (4)
   27     7           0.5811306967          15.8133704383       g        Ag (1)
   28   157           0.5867347070          15.9658633133       g       B2g (7)
   29   141           0.5867347070          15.9658633133       g       B3g (6)
   30     8           0.5888842485          16.0243553126      Ag        Ag (1)
   31    45           0.9171301449          24.9563803860       u       B2u (2)
   32    73           0.9171301449          24.9563803860       u       B3u (3)
   33   117           0.9547150034          25.9791163950      Au       B1u (5)
   34     9           1.7147476684          46.6606569580      Ag        Ag (1)
   35    10           1.7791384003          48.4128178789      Ag        Ag (1)
   36   142           1.7805152980          48.4502851695       g       B3g (6)
   37   158           1.7805152980          48.4502851695       g       B2g (7)
   38    98           1.7846589004          48.5630383245       g       B1g (4)
   39    11           1.7846589004          48.5630383245       g        Ag (1)
   40   143           1.7915944895          48.7517653034       g       B3g (6)
   41   159           1.7915944895          48.7517653034       g       B2g (7)
   42    12           1.8013374760          49.0168854486       g        Ag (1)
   43    99           1.8013374760          49.0168854486       g       B1g (4)
   44   118           1.8836600414          51.2569963730      Au       B1u (5)
   45    74           1.8859314120          51.3188035102       u       B3u (3)
   46    46           1.8859314120          51.3188035102       u       B2u (2)
   47   173           1.8927792607          51.5051429493       u        Au (8)
   48   119           1.8927792607          51.5051429493       u       B1u (5)
   49    47           1.9042823548          51.8181580573       u       B2u (2)
   50    75           1.9042823548          51.8181580573       u       B3u (3)
   51   100           2.0093306255          54.6766668701       g       B1g (4)
   52    13           2.0093306255          54.6766668702       g        Ag (1)
   53   144           2.0203053665          54.9753047609       g       B3g (6)
   54   160           2.0203053665          54.9753047609       g       B2g (7)
   55    14           2.0245855646          55.0917748747      Ag        Ag (1)
   56    76           3.2370048416          88.0833811709       u       B3u (3)
   57    48           3.2370048416          88.0833811709       u       B2u (2)
   58   120           3.2541007577          88.5485847062      Au       B1u (5)
   59   121           4.2818740861         116.5157192244      Au       B1u (5)
   60    49           4.2833870484         116.5568890207       u       B2u (2)
   61    77           4.2833870484         116.5568890207       u       B3u (3)
   62   174           4.2879307820         116.6805303002       u        Au (8)
   63   122           4.2879307820         116.6805303002       u       B1u (5)
   64    78           4.2955198791         116.8870401338       u       B3u (3)
   65    50           4.2955198791         116.8870401338       u       B2u (2)
   66   123           4.3061788342         117.1770850534               B1u (5)
   67   175           4.3061788342         117.1770850534                Au (8)
   68    51           4.3199423092         117.5516082539       u       B2u (2)
   69    79           4.3199423092         117.5516082539       u       B3u (3)
   70    15           5.1489094806         140.1089521283      Ag        Ag (1)
   71   145           5.1516522089         140.1835855621       g       B3g (6)
   72   161           5.1516522089         140.1835855621       g       B2g (7)
   73   101           5.1598862674         140.4076456864       g       B1g (4)
   74    16           5.1598862674         140.4076456864       g        Ag (1)
   75   146           5.1736240033         140.7814684930       g       B3g (6)
   76   162           5.1736240033         140.7814684930       g       B2g (7)
   77   102           5.1928690560         141.3051530069       g       B1g (4)
   78    17           5.1928690560         141.3051530069       g        Ag (1)
   79   124           5.2539762358         142.9679639318      Au       B1u (5)
   80    52           5.2578263517         143.0727309116       u       B2u (2)
   81    80           5.2578263517         143.0727309116       u       B3u (3)
   82   176           5.2693960536         143.3875585111       u        Au (8)
   83   125           5.2693960536         143.3875585111       u       B1u (5)
   84    53           5.2887500409         143.9142072886       u       B2u (2)
   85    81           5.2887500409         143.9142072886       u       B3u (3)
   86    18           5.8864749020         160.1791279031      Ag        Ag (1)
   87   163           5.8886587432         160.2385532438       g       B2g (7)
   88   147           5.8886587432         160.2385532438       g       B3g (6)
   89   103           5.8954248484         160.4226683293       g       B1g (4)
   90    19           5.8954248484         160.4226683293       g        Ag (1)
   91    20           6.6557131239         181.1111644069      Ag        Ag (1)
   92   126           9.6981491726         263.9000594746      Au       B1u (5)
   93    82           9.7177552925         264.4335691297       u       B3u (3)
   94    54           9.7177552925         264.4335691298       u       B2u (2)
   95   127          11.8058111505         321.2524585175      Au       B1u (5)
   96    55          11.8085443662         321.3268330996       u       B2u (2)
   97    83          11.8085443662         321.3268330996       u       B3u (3)
   98   128          11.8167499408         321.5501181397       u       B1u (5)
   99   177          11.8167499408         321.5501181397       u        Au (8)
  100    56          11.8304457052         321.9227988418       u       B2u (2)
  101    84          11.8304457052         321.9227988418       u       B3u (3)
  102   129          11.8496615392         322.4456882765               B1u (5)
  103   178          11.8496615392         322.4456882765                Au (8)
  104    85          11.8744396118         323.1199339193       u       B3u (3)
  105    57          11.8744396118         323.1199339193       u       B2u (2)
  106   130          13.8443480715         376.7238691045      Au       B1u (5)
  107    86          13.8500952262         376.8802571391       u       B3u (3)
  108    58          13.8500952262         376.8802571391       u       B2u (2)
  109   179          13.8673596904         377.3500471001       u        Au (8)
  110   131          13.8673596904         377.3500471001       u       B1u (5)
  111    87          13.8962143433         378.1352221351       u       B3u (3)
  112    59          13.8962143433         378.1352221351       u       B2u (2)
  113    21          14.0091940400         381.2095560249      Ag        Ag (1)
  114   164          14.0133610502         381.3229461402       g       B2g (7)
  115   148          14.0133610502         381.3229461402       g       B3g (6)
  116   104          14.0258706435         381.6633494848       g       B1g (4)
  117    22          14.0258706435         381.6633494848       g        Ag (1)
  118   165          14.0467478980         382.2314484683       g       B2g (7)
  119   149          14.0467478980         382.2314484683       g       B3g (6)
  120   105          14.0760326991         383.0283284327       g       B1g (4)
  121    23          14.0760326991         383.0283284327       g        Ag (1)
  122    24          16.4929052194         448.7947742258      Ag        Ag (1)
  123   150          16.5019818577         449.0417621125       g       B3g (6)
  124   166          16.5019818577         449.0417621125       g       B2g (7)
  125   106          16.5293823828         449.7873683199       g       B1g (4)
  126    25          16.5293823828         449.7873683199       g        Ag (1)
  127    26          21.5779757230         587.1665794485      Ag        Ag (1)
  128   132          28.5050136062         775.6608660199      Au       B1u (5)
  129    88          28.5433148235         776.7030951449       u       B3u (3)
  130    60          28.5433148235         776.7030951450       u       B2u (2)
  131    27          49.4624681298        1345.9422049448      Ag        Ag (1)
  132   167          49.4727524076        1346.2220543730       g       B2g (7)
  133   151          49.4727524076        1346.2220543730       g       B3g (6)
  134   107          49.5035784951        1347.0608748728       g       B1g (4)
  135    28          49.5035784951        1347.0608748728       g        Ag (1)
  136   133          57.8029255783        1572.8975938047      Au       B1u (5)
  137    61          57.8082042335        1573.0412333187       u       B2u (2)
  138    89          57.8082042335        1573.0412333187       u       B3u (3)
  139   180          57.8240415377        1573.4721882811       u        Au (8)
  140   134          57.8240415377        1573.4721882811       u       B1u (5)
  141    62          57.8504414933        1574.1905676065       u       B2u (2)
  142    90          57.8504414933        1574.1905676066       u       B3u (3)
  143    29          62.9293662747        1712.3951392230      Ag        Ag (1)
  144   135          81.7883188643        2225.5733365755      Au       B1u (5)
  145    91          81.8231661064        2226.5215782549       u       B3u (3)
  146    63          81.8231661064        2226.5215782550       u       B2u (2)
  147    30         149.6719037119        4072.7796189123      Ag        Ag (1)
  148   168         149.6791193419        4072.9759661879       g       B2g (7)
  149   152         149.6791193419        4072.9759661879       g       B3g (6)
  150   108         149.7007310694        4073.5640512015       g       B1g (4)
  151    31         149.7007310694        4073.5640512015       g        Ag (1)
  152    32         169.5038817760        4612.4351859164      Ag        Ag (1)
  153    33         208.3262471025        5668.8454695991      Ag        Ag (1)
  154   153         208.3284735596        5668.9060545771       g       B3g (6)
  155   169         208.3284735596        5668.9060545771       g       B2g (7)
  156   109         208.3351531633        5669.0878158364       g       B1g (4)
  157    34         208.3351531633        5669.0878158365       g        Ag (1)
  158   154         208.3462866110        5669.3907723549       g       B3g (6)
  159   170         208.3462866110        5669.3907723549       g       B2g (7)
  160   110         208.3618750653        5669.8149557702       g       B1g (4)
  161    35         208.3618750653        5669.8149557702       g        Ag (1)
  162   136         228.8050196918        6226.1012106795      Au       B1u (5)
  163    64         228.8273073282        6226.7076881081       u       B2u (2)
  164    92         228.8273073282        6226.7076881081       u       B3u (3)
  165   137         235.5273151379        6409.0241722135      Au       B1u (5)
  166    93         235.5301853456        6409.1022745353       u       B3u (3)
  167    65         235.5301853456        6409.1022745353       u       B2u (2)
  168   138         235.5387992468        6409.3366707084       u       B1u (5)
  169   181         235.5387992468        6409.3366707085       u        Au (8)
  170    66         235.5531669475        6409.7276357258       u       B2u (2)
  171    94         235.5531669475        6409.7276357258       u       B3u (3)
  172    36         447.3316736781       12172.5138671110      Ag        Ag (1)
  173    37         456.0074717135       12408.5943373932      Ag        Ag (1)
  174   171         456.0110157708       12408.6907760956       g       B3g (7)
  175   155         456.0110157708       12408.6907760956       g       B2g (6)
  176    38         456.0216774175       12408.9808942564       g        Ag (1)
  177   111         456.0216774175       12408.9808942565       g       B1g (4)
  178   139         643.0595730537       17498.5408612197      Au       B1u (5)
  179    95         643.0703028355       17498.8328334301       u       B3u (3)
  180    67         643.0703028355       17498.8328334301       u       B2u (2)
  181    39        1567.6995774135       42659.2749147935      Ag        Ag (1)


 
  ORBITAL EIGENVALUES ( BETA)  (1H = 27.2113838 eV)

       MO #        E(hartree)               E(eV)           FULLSYM    COMPSYM
       ----   --------------------   --------------------   -------   ---------
    1     1         -16.2485879963        -442.1465644932      Ag        Ag (1)
    2     2          -1.3120148236         -35.7017389425      Ag        Ag (1)
  +++++++++++++++++++++++++++++++++++++++++++++++++++++++++++++++++++++++++++++
    3   112          -0.3983391766         -10.8393602253      Au       B1u (5)
    4    40          -0.3317083944          -9.0262444349       u       B2u (2)
    5    68          -0.3317083944          -9.0262444349       u       B3u (3)
    6     3          -0.1238575699          -3.3703358745      Ag        Ag (1)
    7   113          -0.0809121553          -2.2017317125      Au       B1u (5)
    8    69          -0.0730576247          -1.9879990659       u       B3u (3)
    9    41          -0.0730576247          -1.9879990659       u       B2u (2)
   10     4           0.0582804337           1.5858912505      Ag        Ag (1)
   11   140           0.0605685391           1.6481537650       g       B3g (6)
   12   156           0.0605685391           1.6481537650       g       B2g (7)
   13     5           0.0673712180           1.8332640711       g        Ag (1)
   14    96           0.0673712180           1.8332640711       g       B1g (4)
   15   114           0.1643326070           4.4717176435      Au       B1u (5)
   16    42           0.1850281626           5.0348723490       u       B2u (2)
   17    70           0.1850281626           5.0348723490       u       B3u (3)
   18     6           0.2781214139           7.5680685429      Ag        Ag (1)
   19   115           0.4952978752          13.4777405858      Au       B1u (5)
   20    71           0.4967579663          13.5174716861       u       B3u (3)
   21    43           0.4967579663          13.5174716861       u       B2u (2)
   22   172           0.5011588511          13.6372258520       u        Au (8)
   23   116           0.5011588511          13.6372258520       u       B1u (5)
   24    44           0.5086054310          13.8398575967       u       B2u (2)
   25    72           0.5086054310          13.8398575967       u       B3u (3)
   26     7           0.6164154845          16.7735183422      Ag        Ag (1)
   27   157           0.6242871399          16.9877169771       g       B2g (7)
   28   141           0.6242871399          16.9877169771       g       B3g (6)
   29    97           0.6475231002          17.6199996128       g       B1g (4)
   30     8           0.6475231002          17.6199996128       g        Ag (1)
   31   117           0.9770978437          26.5881844554      Au       B1u (5)
   32    73           1.0197984410          27.7501267955       u       B3u (3)
   33    45           1.0197984410          27.7501267955       u       B2u (2)
   34     9           1.7759365125          48.3256900797      Ag        Ag (1)
   35    10           1.7851573788          48.5766026137      Ag        Ag (1)
   36   158           1.7868661167          48.6230997351       g       B2g (7)
   37   142           1.7868661167          48.6230997351       g       B3g (6)
   38    98           1.7920157004          48.7632270353       g       B1g (4)
   39    11           1.7920157004          48.7632270353       g        Ag (1)
   40   159           1.8006607889          48.9984718561       g       B2g (7)
   41   143           1.8006607889          48.9984718561       g       B3g (6)
   42    12           1.8129047622          49.3316473127       g        Ag (1)
   43    99           1.8129047622          49.3316473127       g       B1g (4)
   44   118           1.9035433199          51.7980478937      Au       B1u (5)
   45    74           1.9080952605          51.9219124981       u       B3u (3)
   46    46           1.9080952605          51.9219124981       u       B2u (2)
   47   173           1.9218163302          52.2952817916       u        Au (8)
   48   119           1.9218163302          52.2952817916       u       B1u (5)
   49    47           1.9449977950          52.9260815277       u       B2u (2)
   50    75           1.9449977950          52.9260815277       u       B3u (3)
   51    13           2.0822589243          56.6611467998      Ag        Ag (1)
   52   144           2.0975692921          57.0777630945       g       B3g (6)
   53   160           2.0975692921          57.0777630945       g       B2g (7)
   54   100           2.1436006885          58.3303410918       g       B1g (4)
   55    14           2.1436006885          58.3303410918       g        Ag (1)
   56   120           3.2839333449          89.3603706867      Au       B1u (5)
   57    76           3.3502047300          91.1637067830       u       B3u (3)
   58    48           3.3502047300          91.1637067830       u       B2u (2)
   59   121           4.2910389897         116.7651089323      Au       B1u (5)
   60    49           4.2928902689         116.8154848035       u       B2u (2)
   61    77           4.2928902689         116.8154848035       u       B3u (3)
   62   174           4.2984516225         116.9668169305       u        Au (8)
   63   122           4.2984516225         116.9668169305       u       B1u (5)
   64    78           4.3077458692         117.2197262438       u       B3u (3)
   65    50           4.3077458692         117.2197262438       u       B2u (2)
   66   123           4.3208119551         117.5752725217               B1u (5)
   67   175           4.3208119551         117.5752725217                Au (8)
   68    51           4.3377064031         118.0349938320       u       B2u (2)
   69    79           4.3377064031         118.0349938320       u       B3u (3)
   70    15           5.1709108201         140.7076390213      Ag        Ag (1)
   71   145           5.1749160798         140.8166276810       g       B3g (6)
   72   161           5.1749160798         140.8166276810       g       B2g (7)
   73   101           5.1869635542         141.1444561309       g       B1g (4)
   74    16           5.1869635542         141.1444561309       g        Ag (1)
   75   146           5.2071587897         141.6939964363       g       B3g (6)
   76   162           5.2071587897         141.6939964363       g       B2g (7)
   77    17           5.2357088259         142.4708824303       g        Ag (1)
   78   102           5.2357088259         142.4708824303       g       B1g (4)
   79   124           5.2953044568         144.0925620150      Au       B1u (5)
   80    52           5.3038343952         144.3246734423       u       B2u (2)
   81    80           5.3038343952         144.3246734423       u       B3u (3)
   82   125           5.3295508548         145.0244538968       u       B1u (5)
   83   176           5.3295508548         145.0244538968       u        Au (8)
   84    53           5.3729229252         146.2046679498       u       B2u (2)
   85    81           5.3729229252         146.2046679498       u       B3u (3)
   86    18           5.9469623725         161.8250756783      Ag        Ag (1)
   87   147           5.9674447222         162.3824287573       g       B3g (6)
   88   163           5.9674447222         162.3824287573       g       B2g (7)
   89   103           6.0296916408         164.0762535521       g       B1g (4)
   90    19           6.0296916408         164.0762535521       g        Ag (1)
   91    20           6.7221243110         182.9183047103      Ag        Ag (1)
   92   126           9.7257129120         264.6501069670      Au       B1u (5)
   93    82           9.8042042797         266.7859657001       u       B3u (3)
   94    54           9.8042042797         266.7859657002       u       B2u (2)
   95   127          11.8285420991         321.8709990852      Au       B1u (5)
   96    55          11.8321254799         321.9685078355       u       B2u (2)
   97    83          11.8321254799         321.9685078355       u       B3u (3)
   98   128          11.8428868139         322.2613386236       u       B1u (5)
   99   177          11.8428868139         322.2613386236       u        Au (8)
  100    56          11.8608600031         322.7504139738       u       B2u (2)
  101    84          11.8608600031         322.7504139738       u       B3u (3)
  102   129          11.8861026580         323.4373015468               B1u (5)
  103   178          11.8861026580         323.4373015468                Au (8)
  104    85          11.9186978481         324.3242617738       u       B3u (3)
  105    57          11.9186978481         324.3242617738       u       B2u (2)
  106   130          13.8882400642         377.9182309668      Au       B1u (5)
  107    86          13.8989000953         378.2083051627       u       B3u (3)
  108    58          13.8989000953         378.2083051627       u       B2u (2)
  109   179          13.9309775824         379.0811779764       u        Au (8)
  110   131          13.9309775824         379.0811779764       u       B1u (5)
  111    87          13.9847948403         380.5456200388       u       B3u (3)
  112    59          13.9847948403         380.5456200388       u       B2u (2)
  113    21          14.0440889634         382.1590951784      Ag        Ag (1)
  114   164          14.0503334630         382.3290166547       g       B2g (7)
  115   148          14.0503334630         382.3290166547       g       B3g (6)
  116   104          14.0690991787         382.8396577481       g       B1g (4)
  117    22          14.0690991787         382.8396577481       g        Ag (1)
  118   165          14.1004854582         383.6937218454       g       B2g (7)
  119   149          14.1004854582         383.6937218454       g       B3g (6)
  120   105          14.1446673533         384.8959723496       g       B1g (4)
  121    23          14.1446673533         384.8959723496       g        Ag (1)
  122    24          16.5345611359         449.9282893584      Ag        Ag (1)
  123   150          16.5554561853         450.4968725671       g       B3g (6)
  124   166          16.5554561853         450.4968725671       g       B2g (7)
  125   106          16.6186014051         452.2151413801       g        Ag (4)
  126    25          16.6186014051         452.2151413801       g       B1g (1)
  127    26          21.6203147621         588.3186832920      Ag        Ag (1)
  128   132          28.5224505189         776.1353485457      Au       B1u (5)
  129    88          28.5914835144         778.0138318802       u       B3u (3)
  130    60          28.5914835144         778.0138318804       u       B2u (2)
  131    27          49.4822109712        1346.4794349780      Ag        Ag (1)
  132   167          49.4978767644        1346.9057228916       g       B2g (7)
  133   151          49.4978767644        1346.9057228916       g       B3g (6)
  134   107          49.5448279817        1348.1833304859       g       B1g (4)
  135    28          49.5448279817        1348.1833304859       g        Ag (1)
  136   133          57.8246588137        1573.4889852161      Au       B1u (5)
  137    61          57.8324106334        1573.6999229559       u       B2u (2)
  138    89          57.8324106334        1573.6999229560       u       B3u (3)
  139   180          57.8556717071        1574.3328889623       u        Au (8)
  140   134          57.8556717071        1574.3328889623       u       B1u (5)
  141    62          57.8944593481        1575.3883543476       u       B2u (2)
  142    90          57.8944593481        1575.3883543476       u       B3u (3)
  143    29          62.9489379020        1712.9277102858      Ag        Ag (1)
  144   135          81.7963425273        2225.7916715480      Au       B1u (5)
  145    91          81.8434524691        2227.0735982560       u       B3u (3)
  146    63          81.8434524691        2227.0735982562       u       B2u (2)
  147    30         149.6786830295        4072.9640935240      Ag        Ag (1)
  148   168         149.6876501841        4073.2081022119       g       B2g (7)
  149   152         149.6876501842        4073.2081022120       g       B3g (6)
  150   108         149.7145017461        4073.9387703705       g       B1g (4)
  151    31         149.7145017461        4073.9387703705       g        Ag (1)
  152    32         169.5115084696        4612.6427188023      Ag        Ag (1)
  153    33         208.3330138557        5669.0296023175      Ag        Ag (1)
  154   153         208.3356597162        5669.1015998429       g       B3g (6)
  155   169         208.3356597162        5669.1015998430       g       B2g (7)
  156   109         208.3435976624        5669.3176023447       g       B1g (4)
  157    34         208.3435976624        5669.3176023448       g        Ag (1)
  158   170         208.3568287892        5669.6776396126       g       B2g (7)
  159   154         208.3568287892        5669.6776396127       g       B3g (6)
  160   110         208.3753549226        5670.1817613413       g       B1g (4)
  161    35         208.3753549226        5670.1817613413       g        Ag (1)
  162   136         228.8079433374        6226.1807671223      Au       B1u (5)
  163    64         228.8342944650        6226.8978177704       u       B2u (2)
  164    92         228.8342944650        6226.8978177704       u       B3u (3)
  165   137         235.5322447544        6409.1583139006      Au       B1u (5)
  166    65         235.5356595491        6409.2512351881       u       B2u (2)
  167    93         235.5356595491        6409.2512351881       u       B3u (3)
  168   138         235.5459086201        6409.5301265942       u       B1u (5)
  169   181         235.5459086201        6409.5301265943       u        Au (8)
  170    94         235.5630064829        6409.9953830998       u       B3u (3)
  171    66         235.5630064829        6409.9953830999       u       B2u (2)
  172    36         447.3342233491       12172.5832471858      Ag        Ag (1)
  173    37         456.0092818137       12408.6435927246      Ag        Ag (1)
  174   155         456.0132714297       12408.7521556955       g       B3g (6)
  175   171         456.0132714297       12408.7521556955       g       B2g (7)
  176    38         456.0252770581       12409.0788454585       g        Ag (1)
  177   111         456.0252770581       12409.0788454586       g       B1g (4)
  178   139         643.0604437051       17498.5645528493      Au       B1u (5)
  179    95         643.0723079489       17498.8873953394       u       B3u (3)
  180    67         643.0723079489       17498.8873953394       u       B2u (2)
  181    39        1567.7004890355       42659.2997212886      Ag        Ag (1)


  VSCF finished.

  @CHECKOUT-I, Total execution time (CPU/WALL):        4.14/       7.83 seconds.
--executable xvscf finished with status     0 in        8.01 seconds (walltime).
 --invoking executable--
/home/nike/cfour_v2.00beta/bin/xvtran
 @GETMEM-I,  Allocated   30517 MB of main memory.
  Full UHF integral transformation
  Transformation of IIII integrals :
  2 passes through the AO integral file were required.
      353805 AO integrals were read.
      581941 MO integrals (Spin case AAAA) were written to HF2AA.
      581941 MO integrals (Spin case BBBB) were written to HF2BB.
     1161421 MO integrals (Spin case AABB) were written to HF2AB.
  Transformation of IIJJ integrals :
  2 passes through the AO integral file were required.
     1813133 AO integrals were read.
     2447550 MO integrals (Spin case AAAA) were written to HF2AA.
     2447550 MO integrals (Spin case BBBB) were written to HF2BB.
     4895100 MO integrals (Spin case AABB) were written to HF2AB.
  Transformation of IJIJ integrals :
  2 passes through the AO integral file were required.
     3159625 AO integrals were read.
     4535271 MO integrals (Spin case AAAA) were written to HF2AA.
     4535271 MO integrals (Spin case BBBB) were written to HF2BB.
     9056532 MO integrals (Spin case AABB) were written to HF2AB.
  Transformation of IJKL integrals :
  2 passes through the AO integral file were required.
     7382552 AO integrals were read.
     9564672 MO integrals (Spin case AAAA) were written to HF2AA.
     9564672 MO integrals (Spin case BBBB) were written to HF2BB.
    19129342 MO integrals (Spin case AABB) were written to HF2AB.
  Summary of active molecular orbitals: 
------------------------------------------------------------------------
                         * Spin case alpha *
 
  Index      Eigenvalue    Symmetry    Index      Eigenvalue    Symmetry
------------------------------------------------------------------------
     1       -16.3207634        1        92       228.8273073        3
     2        -1.6128489        1        93       235.5301853        3
     3        -1.1101362        2        94       235.5531669        3
     4        -1.1101362        3        95       643.0703028        3
     5        -0.1326558        1        96         0.0577404        4
     6         0.0542658        1        97         0.5811307        4
     7         0.0577404        1        98         1.7846589        4
     8         0.2513358        1        99         1.8013375        4
     9         0.5811307        1       100         2.0093306        4
    10         0.5888842        1       101         5.1598863        4
    11         1.7147477        1       102         5.1928691        4
    12         1.7791384        1       103         5.8954248        4
    13         1.7846589        1       104        14.0258706        4
    14         1.8013375        1       105        14.0760327        4
    15         2.0093306        1       106        16.5293824        4
    16         2.0245856        1       107        49.5035785        4
    17         5.1489095        1       108       149.7007311        4
    18         5.1598863        1       109       208.3351532        4
    19         5.1928691        1       110       208.3618751        4
    20         5.8864749        1       111       456.0216774        4
    21         5.8954248        1       112        -0.4673106        5
    22         6.6557131        1       113        -0.0847301        5
    23        14.0091940        1       114         0.1532570        5
    24        14.0258706        1       115         0.4924172        5
    25        14.0760327        1       116         0.4969794        5
    26        16.4929052        1       117         0.9547150        5
    27        16.5293824        1       118         1.8836600        5
    28        21.5779757        1       119         1.8927793        5
    29        49.4624681        1       120         3.2541008        5
    30        49.5035785        1       121         4.2818741        5
    31        62.9293663        1       122         4.2879308        5
    32       149.6719037        1       123         4.3061788        5
    33       149.7007311        1       124         5.2539762        5
    34       169.5038818        1       125         5.2693961        5
    35       208.3262471        1       126         9.6981492        5
    36       208.3351532        1       127        11.8058112        5
    37       208.3618751        1       128        11.8167499        5
    38       447.3316737        1       129        11.8496615        5
    39       456.0074717        1       130        13.8443481        5
    40       456.0216774        1       131        13.8673597        5
    41      1567.6995774        1       132        28.5050136        5
    42        -0.0907270        2       133        57.8029256        5
    43         0.1317420        2       134        57.8240415        5
    44         0.4935498        2       135        81.7883189        5
    45         0.5027868        2       136       228.8050197        5
    46         0.9171301        2       137       235.5273151        5
    47         1.8859314        2       138       235.5387992        5
    48         1.9042824        2       139       643.0595731        5
    49         3.2370048        2       140         0.0550598        6
    50         4.2833870        2       141         0.5867347        6
    51         4.2955199        2       142         1.7805153        6
    52         4.3199423        2       143         1.7915945        6
    53         5.2578264        2       144         2.0203054        6
    54         5.2887500        2       145         5.1516522        6
    55         9.7177553        2       146         5.1736240        6
    56        11.8085444        2       147         5.8886587        6
    57        11.8304457        2       148        14.0133611        6
    58        11.8744396        2       149        14.0467479        6
    59        13.8500952        2       150        16.5019819        6
    60        13.8962143        2       151        49.4727524        6
    61        28.5433148        2       152       149.6791193        6
    62        57.8082042        2       153       208.3284736        6
    63        57.8504415        2       154       208.3462866        6
    64        81.8231661        2       155       456.0110158        6
    65       228.8273073        2       156         0.0550598        7
    66       235.5301853        2       157         0.5867347        7
    67       235.5531669        2       158         1.7805153        7
    68       643.0703028        2       159         1.7915945        7
    69        -0.0907270        3       160         2.0203054        7
    70         0.1317420        3       161         5.1516522        7
    71         0.4935498        3       162         5.1736240        7
    72         0.5027868        3       163         5.8886587        7
    73         0.9171301        3       164        14.0133611        7
    74         1.8859314        3       165        14.0467479        7
    75         1.9042824        3       166        16.5019819        7
    76         3.2370048        3       167        49.4727524        7
    77         4.2833870        3       168       149.6791193        7
    78         4.2955199        3       169       208.3284736        7
    79         4.3199423        3       170       208.3462866        7
    80         5.2578264        3       171       456.0110158        7
    81         5.2887500        3       172         0.4969794        8
    82         9.7177553        3       173         1.8927793        8
    83        11.8085444        3       174         4.2879308        8
    84        11.8304457        3       175         4.3061788        8
    85        11.8744396        3       176         5.2693961        8
    86        13.8500952        3       177        11.8167499        8
    87        13.8962143        3       178        11.8496615        8
    88        28.5433148        3       179        13.8673597        8
    89        57.8082042        3       180        57.8240415        8
    90        57.8504415        3       181       235.5387992        8
    91        81.8231661        3
------------------------------------------------------------------------
------------------------------------------------------------------------
                         * Spin case beta *
 
  Index      Eigenvalue    Symmetry    Index      Eigenvalue    Symmetry
------------------------------------------------------------------------
     1       -16.2485880        1        92       228.8342945        3
     2        -1.3120148        1        93       235.5356595        3
     3        -0.1238576        1        94       235.5630065        3
     4         0.0582804        1        95       643.0723079        3
     5         0.0673712        1        96         0.0673712        4
     6         0.2781214        1        97         0.6475231        4
     7         0.6164155        1        98         1.7920157        4
     8         0.6475231        1        99         1.8129048        4
     9         1.7759365        1       100         2.1436007        4
    10         1.7851574        1       101         5.1869636        4
    11         1.7920157        1       102         5.2357088        4
[...]
 Number of diagrams in T^5 equations:    99
 Translation of diagrams to factorized equations...
 Number of restricted diagrams in T^1 equations:     30
 Number of restricted diagrams in T^2 equations:    129
 Number of restricted diagrams in T^3 equations:    306
 Number of restricted diagrams in T^4 equations:    669
 Number of restricted diagrams in T^5 equations:   1238
 Optimizing intermediate calculation...
 Number of floating-point operations per iteration step:   1.3796E+15
 Probable CPU time per iteration step (hours):  13795.80
 Required memory (Mbytes):  130733.2
 Number of intermediates:                                 708
 Number of intermediates to be stored:                    233
 Length of intermediate file (Mbytes):  102230.8

 ************************ 2018-07-24 08:32:55 *************************
 Executing xmrcc...

 **********************************************************************
 MRCC(                     5 ) calculation 
 
 
 Allocation of****** Mbytes of memory...
 Number of spinorbitals:                   362
 Number of alpha electrons:                        4
 Number of beta electrons:                         2
 Number of active particles:                   192
 Number of active holes:                         0
 Spin multiplicity:                     2
 z-component of spin:  1.0
 Spatial symmetry:                      4
 Convergence criterion:  1.0E-07
 Construction of occupation graphs...
 Number of                     0 -fold excitations:                      1
 Number of                     1 -fold excitations:                    202
 Number of                     2 -fold excitations:                  49025
 Number of                     3 -fold excitations:                6105908
 Number of                     4 -fold excitations:              353928791
 Number of                     5 -fold excitations:             9005273410
 Total number of configurations:             9365357337
 Calculation of coupling coefficients...
 Length of intermediate file (Mbytes):   90076.0
 
 ======================================================================
 
 Memory requirements /Mbyte/: 
               Minimal        Optimal
 Real*8:     246406.6906    246406.6906
 Integer:     14949.9075
 Total:      261356.5981    261356.5981
 

 ************************ 2018-07-24 08:45:47 *************************
 Executing goldstone...

 Generation of MRCC equations in terms of H and T...
 Generation of antisymmetrized Goldstone diagrams...
 Number of diagrams in T^1 equations:    15
 Number of diagrams in T^2 equations:    38
 Number of diagrams in T^3 equations:    54
 Number of diagrams in T^4 equations:    80
 Number of diagrams in T^5 equations:    99
 Translation of diagrams to factorized equations...
 Number of restricted diagrams in T^1 equations:     30
 Number of restricted diagrams in T^2 equations:    129
 Number of restricted diagrams in T^3 equations:    306
 Number of restricted diagrams in T^4 equations:    669
 Number of restricted diagrams in T^5 equations:   1238
 Optimizing intermediate calculation...
 Number of floating-point operations per iteration step:   1.3576E+15
 Probable CPU time per iteration step (hours):  13576.14
 Required memory (Mbytes):  130733.2
 Number of intermediates:                                 708
 Number of intermediates to be stored:                    233
 Length of intermediate file (Mbytes):  101815.5

 ************************ 2018-07-24 08:46:12 *************************
 Executing xmrcc...

 **********************************************************************
 MRCC(                     5 ) calculation 
 
 
 Allocation of****** Mbytes of memory...
 Number of spinorbitals:                   362
 Number of alpha electrons:                        4
 Number of beta electrons:                         2
 Number of active particles:                   194
 Number of active holes:                         0
 Spin multiplicity:                     2
 z-component of spin:  1.0
 Spatial symmetry:                      4
 Convergence criterion:  1.0E-07
 Construction of occupation graphs...
 Number of                     0 -fold excitations:                      1
 Number of                     1 -fold excitations:                    202
 Number of                     2 -fold excitations:                  49025
 Number of                     3 -fold excitations:                6105908
 Number of                     4 -fold excitations:              353928791
 Number of                     5 -fold excitations:             9005273410
 Total number of configurations:             9365357337
 Calculation of coupling coefficients...
 Length of intermediate file (Mbytes):   90141.8
 
 ======================================================================
 
 Memory requirements /Mbyte/: 
               Minimal        Optimal
 Real*8:     237402.9573    237402.9573
 Integer:     14949.9075
 Total:      252352.8648    252352.8648
 

 ************************ 2018-07-24 08:59:23 *************************
 Executing goldstone...

 Generation of MRCC equations in terms of H and T...
 Generation of antisymmetrized Goldstone diagrams...
 Number of diagrams in T^1 equations:    15
 Number of diagrams in T^2 equations:    38
 Number of diagrams in T^3 equations:    54
 Number of diagrams in T^4 equations:    80
 Number of diagrams in T^5 equations:    99
 Translation of diagrams to factorized equations...
 Number of restricted diagrams in T^1 equations:     30
 Number of restricted diagrams in T^2 equations:    129
 Number of restricted diagrams in T^3 equations:    306
 Number of restricted diagrams in T^4 equations:    669
 Number of restricted diagrams in T^5 equations:   1238
 Optimizing intermediate calculation...
 Number of floating-point operations per iteration step:   1.3528E+15
 Probable CPU time per iteration step (hours):  13528.18
 Required memory (Mbytes):  130733.2
 Number of intermediates:                                 709
 Number of intermediates to be stored:                    233
 Length of intermediate file (Mbytes):  101400.5

 ************************ 2018-07-24 08:59:52 *************************
 Executing xmrcc...

 **********************************************************************
 MRCC(                     5 ) calculation 
 
 
 Allocation of****** Mbytes of memory...
 Number of spinorbitals:                   362
 Number of alpha electrons:                        4
 Number of beta electrons:                         2
 Number of active particles:                   196
 Number of active holes:                         0
 Spin multiplicity:                     2
 z-component of spin:  1.0
 Spatial symmetry:                      4
 Convergence criterion:  1.0E-07
 Construction of occupation graphs...
 Number of                     0 -fold excitations:                      1
 Number of                     1 -fold excitations:                    202
 Number of                     2 -fold excitations:                  49025
 Number of                     3 -fold excitations:                6105908
 Number of                     4 -fold excitations:              353928791
 Number of                     5 -fold excitations:             9005273410
 Total number of configurations:             9365357337
 Calculation of coupling coefficients...
 Length of intermediate file (Mbytes):   90206.4
 
 ======================================================================
 
 Memory requirements /Mbyte/: 
               Minimal        Optimal
 Real*8:     238828.0039    238828.0039
 Integer:     14949.9128
 Total:      253777.9166    253777.9166
 

 ************************ 2018-07-24 09:12:10 *************************
 Executing goldstone...

 Generation of MRCC equations in terms of H and T...
 Generation of antisymmetrized Goldstone diagrams...
 Number of diagrams in T^1 equations:    15
 Number of diagrams in T^2 equations:    38
 Number of diagrams in T^3 equations:    54
 Number of diagrams in T^4 equations:    80
 Number of diagrams in T^5 equations:    99
 Translation of diagrams to factorized equations...
 Number of restricted diagrams in T^1 equations:     60
 Number of restricted diagrams in T^2 equations:    438
 Number of restricted diagrams in T^3 equations:   1426
 Number of restricted diagrams in T^4 equations:   3697
 Number of restricted diagrams in T^5 equations:   6714
 Optimizing intermediate calculation...
 Number of floating-point operations per iteration step:   5.0250E+14
 Probable CPU time per iteration step (hours):   5024.98
 Required memory (Mbytes):  130733.2
 Number of intermediates:                                2673
 Number of intermediates to be stored:                    779
 Length of intermediate file (Mbytes):   75806.7

 ************************ 2018-07-24 09:14:35 *************************
 Executing xmrcc...

 **********************************************************************
 MRCC(                     5 ) calculation 
 
 
 Allocation of****** Mbytes of memory...
 Number of spinorbitals:                   362
 Number of alpha electrons:                        4
 Number of beta electrons:                         2
 Number of active particles:                   194
 Number of active holes:                         4
 Spin multiplicity:                     2
 z-component of spin:  1.0
 Spatial symmetry:                      4
 Convergence criterion:  1.0E-07
 Construction of occupation graphs...
 Number of                     0 -fold excitations:                      1
 Number of                     1 -fold excitations:                    202
 Number of                     2 -fold excitations:                  49025
 Number of                     3 -fold excitations:                6105908
 Number of                     4 -fold excitations:              353928791
 Number of                     5 -fold excitations:             9005273410
 Total number of configurations:             9365357337
 Calculation of coupling coefficients...
 Length of intermediate file (Mbytes):  132662.4
 
 ======================================================================
 
 Memory requirements /Mbyte/: 
               Minimal        Optimal
 Real*8:     118790.9613    118790.9613
 Integer:     15046.7765
 Total:      133837.7378    133837.7378
 
 The number of active orbitals has been changed!
 It is dangerous to restart the program!

 ************************ 2018-07-24 09:27:57 *************************
 Executing mrcc...

 **********************************************************************
 CCSDTQP calculation                                                    
 
 
 OpenMP parallel version is running.
 Number of CPUs:  20
 Allocation of******* Mbytes of memory...
 Number of spinorbitals: 362
 Number of alpha electrons:  4
 Number of beta  electrons:  2
 Number of active particles:                   194
 Number of active holes:                         4
 Spin multiplicity: 2
 z-component of spin:  1.0
 Spatial symmetry: 4
 Convergence criterion:  1.0E-07
 Construction of occupation graphs...
 Number of 0-fold excitations: 1
 Number of 1-fold excitations: 202
 Number of 2-fold excitations: 49025
 Number of 3-fold excitations: 6105908
 Number of 4-fold excitations: 353928791
 Number of 5-fold excitations: 9005273410
 Total number of determinants: 9365357337
 Calculation of coupling coefficients...
 Initial cluster amplitudes are read from unit 16.
 Length of intermediate file (Mbytes):  132662.4
 Reading integral list from unit 55...
 Sorting integrals...
 Sorting integrals...
 Sorting integrals...
 Sorting integrals...
 Energy of reference determinant [au]:     -53.887991206724
 Calculation of MP denominators...
 
 Starting CC iteration...
 ======================================================================
 Norm of residual vector:     0.00240451
 CPU time [min]:409824.112                   Wall time [min]: 24907.521
 
 Iteration  1  CC energy:   -54.05192809  Energy decrease:   1.2360E-10
 ======================================================================
 
 Fatal error in mrcc.
 Program will stop.
 
 ************************ 2018-08-31 08:27:47 *************************
                   Error at the termination of mrcc.
 **********************************************************************
--- SharcNET Job Epilogue ---
Job returned with status 1.
               jobid: 1557775
               resid: 3034801
         exit status: 1
      allocated time: 3289560
           user time: 48892200
         system time: 2832340
peak rss=238370684928; peak vsz=240835215360 (bytes)
atime=3289560; utime=48892200; stime=2832340; exit=1


 **********************************************************************
                          MRCC program system
 **********************************************************************
 
                              Written by
    Mihaly Kallay, Zoltan Rolik, Jozsef Csontos, Istvan Ladjanszki,
       Lorant Szegedy, Bence Ladoczki, Gyula Samu, Klara Petrov,
        Mate Farkas, Peter Nagy, David Mester, and Bence Hegely
 
        Department of Physical Chemistry and Materials Science
            Budapest University of Technology and Economics
                  Budapest P.O.Box 91, H-1521 Hungary
 
                              www.mrcc.hu

 ************************ 2018-12-19 13:06:07 *************************
 Executing minp...

 Reading input from MINP...
 
 Input file:
 
# N+ 4Z
basis=aCV5Z-EMSL
iface=cfour
uncontract=off
calc=CC(4)(5)
mem=222GB
core=corr
itol=18
scftol=13
cctol=7
ccmaxit=999
scfmaxit=9999
scfiguess=ao
scftype=ROHF
rohftype=semicanonical
rest=1
charge=+1
refdet=serialno
1,2
3,4

symm=4
mult=3
#occ=3,0,0,0,0,1,0,0/1,0,0,0,0,1,0,0
geom
N

#Li 1 R

#R=3.065

#unit=angstroms

tprint=0.01
verbosity=3
#nstate=4

 
 
 Checking keyword combinations...
 
 Keywords:
 
 active=none
 agrid=ld0006-ld0590
 basis=acv5z-emsl
 basopt=off
 bpcompo=0.985
 bpcompv=0.98
 bpdfo=0.985
 bpocc=0.985
 bppdo=0.985
 bppdv=0.98
 bpedo=0.985
 bpedv=0.98
 calc=cc(4)(5)
 ccmaxit=999
 ccprog=mrcc
 cctol=7
 charge=+1
 cialg=disk
 ciguess=off
 cmpgrp=auto
 core=corr
 corembed=off
 dboc=off
 dendec=cholesky
 dens=0
 dfalg=invsqrt
 dfbasis_cor=none
 dfbasis_scf=none
 dfintran=ovirt
 dft=off
 diag=david
 domrad=10.d0
 drpaalg=fit
 ecp=auto
 edisp=off
 embed=off
 epert=none
 eps=0.975
 excrad=0.d0
 excrad_fin=0.000000000D+00
 freq=off
 gauss=spher
 geom=zmat
 gopt=off
 ghost=none
 gtol=7
 grtol=10
 hamilton=dc
 iface=cfour
 intalg=auto
 itol=18
 lcorthr=loose
 lccrest=off
 lmp2dens=on
 lnoepso=3e-5
 lnoepsv=1e-6
 localcc=off
 locintrf=disk
 maxact=off
 maxex=0
 bfbasis=none
 mem=222gb
 molden=on
 mulmet=0
 mult=3
 nacto=0
 nactv=0
 naf_cor=off
 naf_scf=off
 nafalg=albe
 naftyp=
 nchol=auto
 ndeps=1e-3
 nstate=1
 nsing=0
 ntrip=0
 occ=
 optalg=
 optmaxit=50
 optetol=1e-6
 optgtol=1e-4
 optstol=1e-3
 orblocc=off
 orbloco=off
 orblocv=off
 osveps=1e-3
 ovirt=off
 ovosnorb=80.0
 ptfreq=0.0
 popul=off
 pressure=100000
 qmmm=off
 refdet=serialno
 rest=1
 rgrid=log3
 rohftype=semicanonical
 scspe=1.d0
 scsps=1.2d0
 scspt=0.33333333333333
 scfalg=auto
 scfdamp=off
 scfdiis=on
 scfdiis_end=9999
 scfdiis_start=1
 scfdiis_step=1
 scfdtol=17
 scfext=10
 scfiguess=ao
 scflshift=off
 scfmaxit=9999
 scftype=rohf
 scftol=13
 spairtol=1e-4
 symm=4
 talg=occ
 temp=298.15
 test=off
 tprint=0.01
 uncontract=off
 unit=angs
 verbosity=3
 wpairtol=0.100000000E-05

 ************************ 2018-12-19 13:07:23 *************************
 Executing goldstone...

 Generation of CC equations in terms of H and T...
 Generation of antisymmetrized Goldstone diagrams...
 Number of diagrams in T^1 equations:    15
 Number of diagrams in T^2 equations:    38
 Number of diagrams in T^3 equations:    54
 Number of diagrams in T^4 equations:    77
 Number of diagrams in T^5 equations:     8
 Translation of diagrams to factorized equations...
 Optimizing intermediate calculation...
 Number of floating-point operations per iteration step:   2.9077E+14
 Probable CPU time per iteration step (hours):   2907.69
 Required memory (Mbytes):  265075.2
 Number of intermediates:                                 119
 Number of intermediates to be stored:                     52
 Length of intermediate file (Mbytes):   24162.9

 ************************ 2018-12-19 13:07:24 *************************
 Executing xmrcc...

 **********************************************************************
 CC(4)(5) calculation 
 
 
 Allocation of****** Mbytes of memory...
 Number of spinorbitals:                   362
 Number of alpha electrons:                        4
 Number of beta electrons:                         2
 Spin multiplicity:                     2
 z-component of spin:  1.0
 Spatial symmetry:                      4
 Convergence criterion:  1.0E-07
 Construction of occupation graphs...
 Number of                     0 -fold excitations:                      1
 Number of                     1 -fold excitations:                    202
 Number of                     2 -fold excitations:                  49025
 Number of                     3 -fold excitations:                6105908
 Number of                     4 -fold excitations:              353928791
 Total number of configurations:              360083927
 Calculation of coupling coefficients...
 Length of intermediate file (Mbytes):   15531.8
 
 ======================================================================
 
 Spin case  1   Alpha:  3   Beta:  2
 Number of excitations:             7237016836
 Spin case  2   Alpha:  4   Beta:  1
 Number of excitations:             1768256574
 Number of                     5 -fold excitations:             9005273410
 
 Memory requirements /Mbyte/: 
               Minimal        Optimal
 Real*8:      78284.8372     78284.8372
 Integer:     14820.7985
 Total:       93105.6357     93105.6357
 

 ************************ 2018-12-19 13:15:57 *************************
 Executing mrcc...

 **********************************************************************
 CCSDTQ(P) calculation                                                  
 
 
 OpenMP parallel version is running.
 Number of CPUs:  20
 Allocation of78284.8 Mbytes of memory...
 Number of spinorbitals: 362
 Number of alpha electrons:  4
 Number of beta  electrons:  2
 Spin multiplicity: 2
 z-component of spin:  1.0
 Spatial symmetry: 4
 Convergence criterion:  1.0E-07
 Construction of occupation graphs...
 Number of 0-fold excitations: 1
 Number of 1-fold excitations: 202
 Number of 2-fold excitations: 49025
 Number of 3-fold excitations: 6105908
 Number of 4-fold excitations: 353928791
 Total number of determinants: 360083927
 Calculation of coupling coefficients...
 Initial cluster amplitudes are read from unit 16.
 Length of intermediate file (Mbytes):   15531.8
 Reading integral list from unit 55...
 Sorting integrals...
 Sorting integrals...
 Sorting integrals...
 Sorting integrals...
 Energy of reference determinant [au]:     -53.887991206724
 Calculation of MP denominators...
 
 Starting CC iteration...
 ======================================================================
 Norm of residual vector:    56.41339192
 CPU time [min]:  1032.539                   Wall time [min]:   123.383
 
 Iteration  1  CC energy:   -54.02985888  Energy decrease:   0.14240792
 ======================================================================
 Norm of residual vector:     0.95739934
 CPU time [min]:  2018.408                   Wall time [min]:   218.881
 
 Iteration  2  CC energy:   -54.04334326  Energy decrease:   0.01348438
 ======================================================================
--- SharcNET Job Epilogue ---
Job returned with status 38.
               jobid: 1647573
               resid: 3126676
         exit status: 38
      allocated time: 19648.1
           user time: 147420
         system time: 34185.9
peak rss=212130754560; peak vsz=212130754560 (bytes)
atime=19648.1; utime=147420; stime=34185.9; exit=38


