 **********************************************************************
                          MRCC program system
 **********************************************************************
 
                              Written by
 Mihaly Kallay, Peter R. Nagy, David Mester, Zoltan Rolik, Gyula Samu,
   Jozsef Csontos, Jozsef Csoka, P. Bernat Szabo, Laszlo Gyevi-Nagy,
    Bence Hegely, Istvan Ladjanszki, Lorant Szegedy, Bence Ladoczki,
       Klara Petrov, Mate Farkas, Pal D. Mezei, and Adam Ganyecz
 
        Department of Physical Chemistry and Materials Science
            Budapest University of Technology and Economics
                  Budapest P.O.Box 91, H-1521 Hungary
 
                              www.mrcc.hu
 
                    Release date: February 22, 2020

 ************************ 2021-07-31 17:07:40 *************************
 Executing minp...

 Reading input from MINP...
 
 Input file:
 
#
#TITLE
basis=def2-TZVPP
uncontract=off
#iface=cfour
calc=CC(3)(4)
mem=56GB
#core=1
#core=frozen
itol=18
scftol=13
cctol=5
ccmaxit=999
scfmaxit=9999
scftype=RHF
rohftype=semicanonical
scfiguess=ao
#rest=1
charge=+0
mult=1
#symm=1
#occ=3,0,0,0,0,1,2,2/3,0,0,0,0,1,1,1

#refdet=serialno
#1
#2,3

unit=angs
geom=xyz
2

B 0.0000 0.0000 0.0000
N 0.0000 0.0000 1.281

#Li 1 R

#R=3.065


tprint=0.01
verbosity=3
#nstate=4


 
 
 Checking keyword combinations...
 
 Keywords:
 
 active=none
 agrid=ld0006-ld0590
 basis=def2-tzvpp
 basis_sm=none
 basopt=off
 bfbasis=none
 bfgsmem=10
 bfgstol=1.0d-3
 bpcompo=0.985
 bpcompv=0.98
 bpdfo=0.985
 bpocc=0.985
 bppdo=0.985
 bppdv=0.98
 bpedo=0.985
 bpedv=0.98
 calc=cc(3)(4)
 ccmaxit=999
 ccprog=mrcc
 ccsdalg=disk
 ccsdmkl=seq
 ccsdrest=off
 ccsdthreads=2
 cctol=5
 charge=+0
 cialg=disk
 ciguess=off
 cmpgrp=auto
 core=frozen
 corembed=off
 csapprox=off
 dboc=off
 dendec=cholesky
 dens=0
 dfalg=lineq
 dfbasis_cor=none
 dfbasis_scf=none
 dfintran=ovirt
 dft=off
 dhexc=adc(2)
 diag=david
 docc=
 domrad=10.d0
 drpaalg=fit
 dual=off
 ecp=auto
 edisp=off
 edisp_embed=off
 embed=off
 epert=none
 eps=0.975
 excrad=0.d0
 excrad_fin=0.000000000D+00
 fmm=off
 fmmord=8
 freq=off
 gauss=spher
 geom=xyz
 gopt=off
 ghost=none
 gtol=7
 grdens=off
 grtol=10
 hamilton=dc
 iface=none
 intalg=auto
 itol=18
 laptol=1.d-2
 lccoporder=trffirst
 lcorthr=normal
 lccrest=off
 lmp2dens=on
 lnoepso=0.d0
 lnoepsv=1e-6
 localcc=off
 localcorrsymm=off
 locintrf=disk
 mact=
 maxact=off
 maxdim=100
 maxex=0
 maxmicroit=100
 mcscfiguess=hf
 mem=56gb
 molden=on
 mpitasks=1
 mulmet=0
 mult=1
 nacto=0
 nactv=0
 naf_cor=off
 naf_scf=off
 nafalg=albe
 naftyp=
 nchol=auto
 ndeps=1e-3
 nstate=1
 nsing=0
 ntrip=0
 occ=
 oniom=off
 oniom_eechg=off
 oniom_pcm=off
 optalg=
 optmaxit=50
 optetol=1e-6
 optex=   0
 optgtol=1e-4
 optstol=1e-3
 orblocc=off
 orbloce=off
 orbloco=off
 orblocv=off
 orblocguess=cholesky
 osveps=1e-3
 ovirt=off
 ovltol=1e-7
 ovosnorb=80.0
 pcm=off
 popul=off
 pressure=100000
 pssp=off
 ptfreq=0.0
 ptthreads=2
 qscf=off
 qmmm=off
 redcost_exc=off
 redcost_tddft=off
 refdet=none
 rest=0
 rgrid=log3
 rohfcore=semicanonical
 rohftype=semicanonical
 scfalg=auto
 scfdamp=off
 scfdiis=on
 scfdiis_end=9999
 scfdiis_start=1
 scfdiis_step=1
 scfdtol=14
 scfext=10
 scfguessdens=
 scfiguess=ao
 scflshift=off
 scfmaxit=9999
 scftype=rhf
 scftol=13
 scspe=1.d0
 scsph=1.d0
 scsps=1.2d0
 scspt=0.33333333333333
 scspv=1.d0
 spairtol=1e-4
 subminp=top
 symm=
 talg=occ
 temp=298.15
 test=off
 theodore=off
 tlmo=0.999
 tpao=0.94
 tprint=0.01
 uncontract=off
 unit=angs
 usedisk=2
 verbosity=3
 wpairtol=0.100000000E-05

 ************************ 2021-07-31 17:07:41 *************************
 Executing integ...

 Allocation of 56.0 Gbytes of memory...
 
 
 Number of atoms:                  2
 Charge:                           0
 Number of electrons:             12
 Number of core electrons:         4
 Spin multiplicity:                1
 
                 Cartesian coordinates [bohr]      Atomic mass [AMU]  Z
   1  B     0.00000000    0.00000000    0.00000000    11.009305       5
   2  N     0.00000000    0.00000000    2.42073917    14.003074       7
 
 This molecule is linear.
 
 Rotational constants [cm-1]: 
      1.666747998989
 
 Point group: Cxv 
 Computational point group: C2v 
 
 Cartesian coordinates in standard orientation [bohr]
   1  B     0.00000000    0.00000000   -1.35524050
   2  N     0.00000000    0.00000000    1.06549866
 
 Nuclear repulsion energy [au]:         14.458393734153
 
 
 Basis set information:
 
 Maximum angular momentum: f
 Maximum number of contracted Gaussians:    5
 Maximum number of primitive Gaussians:    11
 Spherical harmonic GTOs are used.
 
    1  B  def2-tzvpp [ 11s 6p 2d 1f | 5s 3p 2d 1f ]
    2  N  def2-tzvpp [ 11s 6p 2d 1f | 5s 3p 2d 1f ]
 
 Basis functions:
            1             2             3             4             5             6             7             8             9            10
    0    1B1s          1B2s          1B3s          1B4s          1B5s          1B1pz         1B1py         1B1px         1B2pz         1B2py     
    1    1B2px         1B3pz         1B3py         1B3px         1B1d-2        1B1d-1        1B1d0         1B1d+1        1B1d+2        1B2d-2    
    2    1B2d-1        1B2d0         1B2d+1        1B2d+2        1B1f-3        1B1f-2        1B1f-1        1B1f0         1B1f+1        1B1f+2    
    3    1B1f+3        2N1s          2N2s          2N3s          2N4s          2N5s          2N1pz         2N1py         2N1px         2N2pz     
    4    2N2py         2N2px         2N3pz         2N3py         2N3px         2N1d-2        2N1d-1        2N1d0         2N1d+1        2N1d+2    
    5    2N2d-2        2N2d-1        2N2d0         2N2d+1        2N2d+2        2N1f-3        2N1f-2        2N1f-1        2N1f0         2N1f+1    
    6    2N1f+2        2N1f+3    
 
 Maximum number of basis functions per shell:   10
 Total number of basis functions:     62
 
 
 Character table for point group C2v:
 
          E  C2  Qh  Qv  
    A1    1   1   1   1
    B1    1  -1   1  -1
    B2    1  -1  -1   1
    A2    1   1  -1  -1
 
 Number of basis functions per irrep:
    A1     28
    B1     14
    B2     14
    A2      6
 
 
 Calculation of overlap integrals...
 CPU time [min]:     0.008                   Wall time [min]:     0.089
 
 Calculation of the square root of the overlap matrix...
 Minimum eigenvalue of the overlap matrix: 0.663928E-03
 CPU time [min]:     0.009                   Wall time [min]:     0.090
 
 Calculation of kinetic energy integrals...
 CPU time [min]:     0.009                   Wall time [min]:     0.090
 Calculation of nuclear attraction integrals...
 CPU time [min]:     0.009                   Wall time [min]:     0.090
 
 Calculation of prescreening integrals...
 CPU time [min]:     0.010                   Wall time [min]:     0.091
 
 Calculation of two-electron integrals...
   2% done.
  28% done.
  62% done.
 100% done.
 CPU time [min]:     0.018                   Wall time [min]:     0.102

 ************************ 2021-07-31 17:07:47 *************************
 Executing scf...

 @scfsetup: integrals taken from disk
            mrcc/integ binary format
 @scfsetup: calc on blockdiagonal matrices
            using symmetry adapted basis
 @scfsetup: diis switched on
 @scfsetup: number of steps to extrapolate from  10
 @scfsetup: tolerance in energy deviation    0.100000E-12
            tolerance in density deviation    0.100000E-13
 @scfsetup: maximum number of iterations:9999
 @scfsetup: restricted closed shell hf calc
 @scfsetup: starting scf from diagonal ao guess
 @scfsetup: occupation set:
            from initial orbitals
 @scfsetup: diis runs from iteration:   1
 @scfsetup: diis runs to iteration:9999
 @scfsetup: diis runs in every iteration
 Allocation of 56.0 Gbytes of memory...
 ======================================================================
 ITERATION STEP   1
 CPU time [min]:     0.004                   Wall time [min]:     0.006
 
 Gradient norm:      0.0000E+00
 RMS of difference density:                            0.76725054701109
 Gap [au]:  0.16660290
 ALPHA OCC:   4   1   1   0
 BETA  OCC:   4   1   1   0
 
 ***HARTREE-FOCK ENERGY IN STEP   1 IS     -68.3985904736346555 [AU]
 ======================================================================
 ITERATION STEP   2
 CPU time [min]:     0.005                   Wall time [min]:     0.011
 
 Gradient norm:      0.0000E+00
 DIIS is running in this iteration step.
 RMS of [F,P]:                                         0.15806212958416
 RMS of difference density:                            0.76480511039170
 Gap [au]:  1.16695745
 ALPHA OCC:   4   1   1   0
 BETA  OCC:   4   1   1   0
 
 ***HARTREE-FOCK ENERGY IN STEP   2 IS     -69.9606285767016232 [AU]
 ======================================================================
 ITERATION STEP   3
 CPU time [min]:     0.005                   Wall time [min]:     0.012
 
 Gradient norm:      0.0000E+00
 DIIS is running in this iteration step.
 RMS of [F,P]:                                         0.19957452886732
 RMS of difference density:                            0.05556945733523
 Gap [au]:  0.36988551
 ALPHA OCC:   4   1   1   0
 BETA  OCC:   4   1   1   0
 
 ***HARTREE-FOCK ENERGY IN STEP   3 IS     -73.7112950641627265 [AU]
 ======================================================================
 ITERATION STEP   4
 CPU time [min]:     0.006                   Wall time [min]:     0.013
 
 Gradient norm:      0.0000E+00
 DIIS is running in this iteration step.
 RMS of [F,P]:                                         0.07598008109425
 RMS of difference density:                            0.03326289019462
 Gap [au]:  0.18547040
 ALPHA OCC:   4   1   1   0
 BETA  OCC:   4   1   1   0
 
 ***HARTREE-FOCK ENERGY IN STEP   4 IS     -77.9710703642745671 [AU]
 ======================================================================
 ITERATION STEP   5
 CPU time [min]:     0.007                   Wall time [min]:     0.014
 
 Gradient norm:      0.0000E+00
 DIIS is running in this iteration step.
 RMS of [F,P]:                                         0.00881797389624
 RMS of difference density:                            0.00815390509594
 Gap [au]:  0.28098729
 ALPHA OCC:   4   1   1   0
 BETA  OCC:   4   1   1   0
 
 ***HARTREE-FOCK ENERGY IN STEP   5 IS     -78.8822284953591861 [AU]
 ======================================================================
 ITERATION STEP   6
 CPU time [min]:     0.007                   Wall time [min]:     0.014
 
 Gradient norm:      0.0000E+00
 DIIS is running in this iteration step.
 RMS of [F,P]:                                         0.00270624425351
 RMS of difference density:                            0.00262091373772
 Gap [au]:  0.29113083
 ALPHA OCC:   4   1   1   0
 BETA  OCC:   4   1   1   0
 
 ***HARTREE-FOCK ENERGY IN STEP   6 IS     -78.9037358977649035 [AU]
 ======================================================================
 ITERATION STEP   7
 CPU time [min]:     0.008                   Wall time [min]:     0.015
 
 Gradient norm:      0.0000E+00
 DIIS is running in this iteration step.
 RMS of [F,P]:                                         0.00254532767920
 RMS of difference density:                            0.00104097388523
 Gap [au]:  0.29937715
 ALPHA OCC:   4   1   1   0
 BETA  OCC:   4   1   1   0
 
 ***HARTREE-FOCK ENERGY IN STEP   7 IS     -78.9056052200322711 [AU]
 ======================================================================
 ITERATION STEP   8
 CPU time [min]:     0.009                   Wall time [min]:     0.016
 
 Gradient norm:      0.0000E+00
 DIIS is running in this iteration step.
 RMS of [F,P]:                                         0.00097698993516
 RMS of difference density:                            0.00118531361086
 Gap [au]:  0.30569189
 ALPHA OCC:   4   1   1   0
 BETA  OCC:   4   1   1   0
 
 ***HARTREE-FOCK ENERGY IN STEP   8 IS     -78.9069078835537567 [AU]
 ======================================================================
 ITERATION STEP   9
 CPU time [min]:     0.009                   Wall time [min]:     0.016
 
 Gradient norm:      0.0000E+00
 DIIS is running in this iteration step.
 RMS of [F,P]:                                         0.00052218667426
 RMS of difference density:                            0.00178129627952
 Gap [au]:  0.31120176
 ALPHA OCC:   4   1   1   0
 BETA  OCC:   4   1   1   0
 
 ***HARTREE-FOCK ENERGY IN STEP   9 IS     -78.9076465492090620 [AU]
 ======================================================================
 ITERATION STEP  10
 CPU time [min]:     0.010                   Wall time [min]:     0.017
 
 Gradient norm:      0.0000E+00
 DIIS is running in this iteration step.
 RMS of [F,P]:                                         0.00029247777062
 RMS of difference density:                            0.00128894690850
 Gap [au]:  0.31545076
 ALPHA OCC:   4   1   1   0
 BETA  OCC:   4   1   1   0
 
 ***HARTREE-FOCK ENERGY IN STEP  10 IS     -78.9082923751549998 [AU]
 ======================================================================
 ITERATION STEP  11
 CPU time [min]:     0.010                   Wall time [min]:     0.018
 
 Gradient norm:      0.0000E+00
 DIIS is running in this iteration step.
 RMS of [F,P]:                                         0.00006627867704
 RMS of difference density:                            0.00020973392173
 Gap [au]:  0.31609690
 ALPHA OCC:   4   1   1   0
 BETA  OCC:   4   1   1   0
 
 ***HARTREE-FOCK ENERGY IN STEP  11 IS     -78.9084611301621663 [AU]
 ======================================================================
 ITERATION STEP  12
 CPU time [min]:     0.011                   Wall time [min]:     0.018
 
 Gradient norm:      0.0000E+00
 DIIS is running in this iteration step.
 RMS of [F,P]:                                         0.00001049641679
 RMS of difference density:                            0.00001568439240
 Gap [au]:  0.31597943
 ALPHA OCC:   4   1   1   0
 BETA  OCC:   4   1   1   0
 
 ***HARTREE-FOCK ENERGY IN STEP  12 IS     -78.9084646901671647 [AU]
 ======================================================================
 ITERATION STEP  13
 CPU time [min]:     0.012                   Wall time [min]:     0.019
 
 Gradient norm:      0.0000E+00
 DIIS is running in this iteration step.
 RMS of [F,P]:                                         0.00000393955985
 RMS of difference density:                            0.00000479392246
 Gap [au]:  0.31600333
 ALPHA OCC:   4   1   1   0
 BETA  OCC:   4   1   1   0
 
 ***HARTREE-FOCK ENERGY IN STEP  13 IS     -78.9084647186326720 [AU]
 ======================================================================
 ITERATION STEP  14
 CPU time [min]:     0.012                   Wall time [min]:     0.020
 
 Gradient norm:      0.0000E+00
 DIIS is running in this iteration step.
 RMS of [F,P]:                                         0.00000038912530
 RMS of difference density:                            0.00000107959804
 Gap [au]:  0.31600762
 ALPHA OCC:   4   1   1   0
 BETA  OCC:   4   1   1   0
 
 ***HARTREE-FOCK ENERGY IN STEP  14 IS     -78.9084647231084659 [AU]
 ======================================================================
 ITERATION STEP  15
 CPU time [min]:     0.013                   Wall time [min]:     0.020
 
 Gradient norm:      0.0000E+00
 DIIS is running in this iteration step.
 RMS of [F,P]:                                         0.00000003988611
 RMS of difference density:                            0.00000006177036
 Gap [au]:  0.31600734
 ALPHA OCC:   4   1   1   0
 BETA  OCC:   4   1   1   0
 
 ***HARTREE-FOCK ENERGY IN STEP  15 IS     -78.9084647232213001 [AU]
 ======================================================================
 ITERATION STEP  16
 CPU time [min]:     0.014                   Wall time [min]:     0.021
 
 Gradient norm:      0.0000E+00
 DIIS is running in this iteration step.
 RMS of [F,P]:                                         0.00000001468312
 RMS of difference density:                            0.00000001109609
 Gap [au]:  0.31600740
 ALPHA OCC:   4   1   1   0
 BETA  OCC:   4   1   1   0
 
 ***HARTREE-FOCK ENERGY IN STEP  16 IS     -78.9084647232217549 [AU]
 ======================================================================
 ITERATION STEP  17
 CPU time [min]:     0.014                   Wall time [min]:     0.022
 
 Gradient norm:      0.0000E+00
 DIIS is running in this iteration step.
 RMS of [F,P]:                                         0.00000000268132
 RMS of difference density:                            0.00000000484737
 Gap [au]:  0.31600742
 ALPHA OCC:   4   1   1   0
 BETA  OCC:   4   1   1   0
 
 ***HARTREE-FOCK ENERGY IN STEP  17 IS     -78.9084647232218543 [AU]
 ======================================================================
 ITERATION STEP  18
 CPU time [min]:     0.015                   Wall time [min]:     0.022
 
 Gradient norm:      0.0000E+00
 DIIS is running in this iteration step.
 RMS of [F,P]:                                         0.00000000010727
 RMS of difference density:                            0.00000000043038
 Gap [au]:  0.31600742
 ALPHA OCC:   4   1   1   0
 BETA  OCC:   4   1   1   0
 
 ***HARTREE-FOCK ENERGY IN STEP  18 IS     -78.9084647232217407 [AU]
 ======================================================================
 ITERATION STEP  19
 CPU time [min]:     0.015                   Wall time [min]:     0.023
 
 Gradient norm:      0.0000E+00
 DIIS is running in this iteration step.
 RMS of [F,P]:                                         0.00000000006368
 RMS of difference density:                            0.00000000006078
 Gap [au]:  0.31600742
 ALPHA OCC:   4   1   1   0
 BETA  OCC:   4   1   1   0
 
 ***HARTREE-FOCK ENERGY IN STEP  19 IS     -78.9084647232217833 [AU]
 ======================================================================
 ITERATION STEP  20
 CPU time [min]:     0.016                   Wall time [min]:     0.024
 
 Gradient norm:      0.0000E+00
 DIIS is running in this iteration step.
 RMS of [F,P]:                                         0.00000000000295
 RMS of difference density:                            0.00000000001581
 Gap [au]:  0.31600742
 ALPHA OCC:   4   1   1   0
 BETA  OCC:   4   1   1   0
 
 ***HARTREE-FOCK ENERGY IN STEP  20 IS     -78.9084647232218686 [AU]
 ======================================================================
 ITERATION STEP  21
 CPU time [min]:     0.016                   Wall time [min]:     0.024
 
 Gradient norm:      0.0000E+00
 DIIS is running in this iteration step.
 RMS of [F,P]:                                         0.00000000000036
 RMS of difference density:                            0.00000000000054
 Gap [au]:  0.31600742
 ALPHA OCC:   4   1   1   0
 BETA  OCC:   4   1   1   0
 
 ***HARTREE-FOCK ENERGY IN STEP  21 IS     -78.9084647232217691 [AU]
 ======================================================================
 ITERATION STEP  22
 CPU time [min]:     0.017                   Wall time [min]:     0.025
 
 Gradient norm:      0.0000E+00
 DIIS is running in this iteration step.
 RMS of [F,P]:                                         0.00000000000003
 RMS of difference density:                            0.00000000000014
 Gap [au]:  0.31600742
 ALPHA OCC:   4   1   1   0
 BETA  OCC:   4   1   1   0
 
 ***HARTREE-FOCK ENERGY IN STEP  22 IS     -78.9084647232218401 [AU]
 ======================================================================
 ITERATION STEP  23
 CPU time [min]:     0.017                   Wall time [min]:     0.025
 
 Gradient norm:      0.0000E+00
 DIIS is running in this iteration step.
 RMS of [F,P]:                                         0.00000000000001
 RMS of difference density:                            0.00000000000002
 Gap [au]:  0.31600742
 ALPHA OCC:   4   1   1   0
 BETA  OCC:   4   1   1   0
 
 ***HARTREE-FOCK ENERGY IN STEP  23 IS     -78.9084647232218117 [AU]
 ======================================================================
 ITERATION STEP  24
 CPU time [min]:     0.018                   Wall time [min]:     0.026
 
 Gradient norm:      0.0000E+00
 DIIS is running in this iteration step.
 RMS of [F,P]:                                         0.00000000000000
 RMS of difference density:                            0.00000000000001
 Gap [au]:  0.31600742
 ALPHA OCC:   4   1   1   0
 BETA  OCC:   4   1   1   0
 
 ***HARTREE-FOCK ENERGY IN STEP  24 IS     -78.9084647232217833 [AU]
 ======================================================================
 ITERATION STEP  25
 CPU time [min]:     0.018                   Wall time [min]:     0.026
 
 Gradient norm:      0.0000E+00
 DIIS is running in this iteration step.
 RMS of [F,P]:                                         0.00000000000000
 RMS of difference density:                            0.00000000000001
 Gap [au]:  0.31600742
 ALPHA OCC:   4   1   1   0
 BETA  OCC:   4   1   1   0
 
 ***HARTREE-FOCK ENERGY IN STEP  25 IS     -78.9084647232217833 [AU]
 ======================================================================
 
 SUCCESS...
 THE SCF ITERATION HAS CONVERGED!
 
                   A1  B1  B2  A2  
 FINAL ALPHA OCC:   4   1   1   0
 FINAL BETA  OCC:   4   1   1   0
 
 ***FINAL HARTREE-FOCK ENERGY:    -78.9084647232217833 [AU]
 
 Orbital energies [au]:
      Irrep         Alpha          Beta
    1   A1       -15.599175     -15.599175
    2   A1        -7.721474      -7.721474
    3   A1        -1.072669      -1.072669
    4   A1        -0.495545      -0.495545
    5   B2        -0.423742      -0.423742
    6   B1        -0.423742      -0.423742
 
    7   A1        -0.107734      -0.107734
    8   B2         0.112703       0.112703
    9   B1         0.112703       0.112703
   10   A1         0.147333       0.147333
   11   A1         0.164692       0.164692
   12   B1         0.250657       0.250657
   13   B2         0.250657       0.250657
   14   A1         0.450318       0.450318
   15   A2         0.526529       0.526529
   16   A1         0.526529       0.526529
   17   A1         0.550003       0.550003
   18   B2         0.584332       0.584332
   19   B1         0.584332       0.584332
   20   A1         0.665577       0.665577
   21   B1         0.689660       0.689660
   22   B2         0.689660       0.689660
   23   A1         0.889292       0.889292
   24   B1         1.080792       1.080792
   25   B2         1.080792       1.080792
   26   A1         1.082343       1.082343
   27   A1         1.197713       1.197713
   28   A2         1.365324       1.365324
   29   A1         1.365324       1.365324
   30   B1         1.638786       1.638786
   31   B2         1.638786       1.638786
   32   A1         1.881171       1.881171
   33   B2         1.909103       1.909103
   34   B1         1.909103       1.909103
   35   A2         1.997456       1.997456
   36   A1         1.997456       1.997456
   37   B1         2.036010       2.036010
   38   B2         2.036010       2.036010
   39   A2         2.129600       2.129600
   40   A1         2.129600       2.129600
   41   A1         2.221187       2.221187
   42   B1         2.425024       2.425024
   43   B2         2.425024       2.425024
   44   A1         2.438241       2.438241
   45   B2         2.828506       2.828506
   46   B1         2.828506       2.828506
   47   A1         2.852140       2.852140
   48   A1         3.539351       3.539351
   49   B2         4.335416       4.335416
   50   B1         4.335416       4.335416
   51   A1         4.601420       4.601420
   52   A2         4.601420       4.601420
   53   B2         5.015490       5.015490
   54   B1         5.015490       5.015490
   55   A1         5.022874       5.022874
   56   A2         5.022874       5.022874
   57   A1         5.296608       5.296608
   58   B2         5.346978       5.346978
   59   B1         5.346978       5.346978
   60   A1         5.623178       5.623178
   61   A1        14.450665      14.450665
   62   A1        32.918710      32.918710
 
 RETURNING FROM SCF ALGORITHM
 ======================================================================

 ************************ 2021-07-31 17:07:51 *************************
 Executing ovirt...

 ovirt, the routine of orbital optimization and integral transformation 
Sat Jul 31 17:07:51 EDT 2021
 memory =                  57344  Mb            7516192768  8 byte word
 mrccboot = T
 scftype  = rhf  
 localcc  = off 
 core     = frozen
 ovirt    = off  
 ccprog   = mrcc
 dfnbasis =                      0
 dfbasis_cor =none                
 lmp2dens = on 
 dens =                      0
 verblev =                      3
 task     =                      4
 epsilon =   0.975000000000000     
 lmp2= on 
 localNO  =  F
 localMP2 =  F
 localMP2_TEST =  F
 LMP2_shortcut =  F
 FOCKTR   =  T
 Allocated memory:                   57344  Mb
 onbasis=                    62
 RHF calculation! 
 integral transforamtion: AOs ------ MOs
 # of basis functions, # of int. blocks    62     1
100 % 
 second part
100 %
 integral transformation is completed! 
CPU and WC time           1.12          29.00     AOs -> MOs 
 occupied and 
     1 -1.0726693230
     2 -0.4955453660
     3 -0.4237416047
     4 -0.4237416047
               virtual energies 
     5 -0.1077341886
     6  0.1127029276
     7  0.1127029276
     8  0.1473330497
     9  0.1646923541
    10  0.2506571558
    11  0.2506571558
    12  0.4503176837
    13  0.5265294172
    14  0.5265294172
    15  0.5500034017
    16  0.5843316078
    17  0.5843316078
    18  0.6655772099
    19  0.6896600812
    20  0.6896600812
    21  0.8892916171
    22  1.0807921407
    23  1.0807921407
    24  1.0823425437
    25  1.1977131405
    26  1.3653237675
    27  1.3653237675
    28  1.6387859722
    29  1.6387859722
    30  1.8811707466
    31  1.9091025721
    32  1.9091025721
    33  1.9974561556
    34  1.9974561556
    35  2.0360100016
    36  2.0360100016
    37  2.1295997401
    38  2.1295997401
    39  2.2211873355
    40  2.4250235075
    41  2.4250235075
    42  2.4382406567
    43  2.8285059125
    44  2.8285059125
    45  2.8521400851
    46  3.5393510966
    47  4.3354158733
    48  4.3354158733
    49  4.6014204713
    50  4.6014204713
    51  5.0154904334
    52  5.0154904334
    53  5.0228735724
    54  5.0228735724
    55  5.2966078273
    56  5.3469784349
    57  5.3469784349
    58  5.6231778210
    59 14.4506649251
    60 32.9187099722
 inttol =   1.000000000000000E-018   18.0000000000000     
Integrals are written to fort.55
Sat Jul 31 17:08:23 EDT 2021
  ovirt terminated normally 

 ************************ 2021-07-31 17:08:23 *************************
 Executing goldstone...

 Generation of CC equations in terms of H and T...
 Generation of antisymmetrized Goldstone diagrams...
 Number of diagrams in T^1 equations:    15
 Number of diagrams in T^2 equations:    38
 Number of diagrams in T^3 equations:    49
 Number of diagrams in T^4 equations:     5
 Translation of diagrams to factorized equations...
 Optimizing intermediate calculation...
 Number of floating-point operations per iteration step:   1.6438E+11
 Probable CPU time per iteration step (hours):      1.64
 Required memory (Mbytes):    1299.5
 Number of intermediates:                                  79
 Number of intermediates to be stored:                     32
 Length of intermediate file (Mbytes):      61.1

 ************************ 2021-07-31 17:08:23 *************************
 Executing xmrcc...

 **********************************************************************
 CC(3)(4) calculation 
 
 
 Allocation of1299.5 Mbytes of memory...
 Number of spinorbitals:                   120
 Number of alpha electrons:                        4
 Number of beta electrons:                         4
 Spin multiplicity:                     1
 z-component of spin:  0.0
 Spatial symmetry:                      1
 Convergence criterion:  1.0E-05
 Construction of occupation graphs...
 Number of                     0 -fold excitations:                      1
 Number of                     1 -fold excitations:                    148
 Number of                     2 -fold excitations:                  17832
 Number of                     3 -fold excitations:                1089372
 Total number of configurations:                1107353
 Calculation of coupling coefficients...
 Length of intermediate file (Mbytes):      46.9
 
 ======================================================================
 
 Spin case  1   Alpha:  0   Beta:  4
 Number of excitations:                  91703
 Spin case  2   Alpha:  1   Beta:  3
 Number of excitations:                6192216
 Spin case  3   Alpha:  2   Beta:  2
 Number of excitations:               21344800
 Number of                     4 -fold excitations:               33912638
 
 Memory requirements /Mbyte/: 
               Minimal        Optimal
 Real*8:         50.2963        98.9358
 Integer:         5.7551
 Total:          56.0515       104.6909
 

 ************************ 2021-07-31 17:08:24 *************************
 Executing mrcc...

 **********************************************************************
 CCSDT(Q) calculation                                                   
 
 
 OpenMP parallel version is running.
 Number of CPU cores:   1
 Allocation of   98.9 Mbytes of memory...
 Number of spinorbitals: 120
 Number of alpha electrons:  4
 Number of beta  electrons:  4
 Spin multiplicity: 1
 z-component of spin:  0.0
 Spatial symmetry: 1
 Convergence criterion:  1.0E-05
 Construction of occupation graphs...
 Number of 0-fold excitations: 1
 Number of 1-fold excitations: 148
 Number of 2-fold excitations: 17832
 Number of 3-fold excitations: 1089372
 Total number of determinants: 1107353
 Calculation of coupling coefficients...
 Initial cluster amplitudes are generated.
 Length of intermediate file (Mbytes):      46.9
 Reading integral list from unit 55...
 Sorting integrals...
 Calculation of MP denominators...
 
 Starting CC iteration...
 ======================================================================
 Norm of residual vector:     1.02175149
 CPU time [min]:     0.166                   Wall time [min]:     0.172
 
 Iteration  1  CC energy:   -79.24788888  Energy decrease:   0.33942416
 ======================================================================
 Norm of residual vector:     0.45515367
 CPU time [min]:     0.300                   Wall time [min]:     0.306
 
 Iteration  2  CC energy:   -79.21249640  Energy decrease:   0.03539248
 ======================================================================
 Norm of residual vector:     0.16075906
 CPU time [min]:     0.450                   Wall time [min]:     0.458
 
 Iteration  3  CC energy:   -79.23782161  Energy decrease:   0.02532520
 ======================================================================
 Norm of residual vector:     0.08749746
 CPU time [min]:     0.602                   Wall time [min]:     0.610
 
 Iteration  4  CC energy:   -79.25738631  Energy decrease:   0.01956470
 ======================================================================
 Norm of residual vector:     0.05244844
 CPU time [min]:     0.755                   Wall time [min]:     0.764
 
 Iteration  5  CC energy:   -79.26310591  Energy decrease:   0.00571960
 ======================================================================
 Norm of residual vector:     0.03049853
 CPU time [min]:     0.910                   Wall time [min]:     0.918
 
 Iteration  6  CC energy:   -79.26400992  Energy decrease:   0.00090401
 ======================================================================
 Norm of residual vector:     0.01861312
 CPU time [min]:     1.065                   Wall time [min]:     1.074
 
 Iteration  7  CC energy:   -79.26589035  Energy decrease:   0.00188043
 ======================================================================
 Norm of residual vector:     0.01015216
 CPU time [min]:     1.222                   Wall time [min]:     1.231
 
 Iteration  8  CC energy:   -79.26642429  Energy decrease:   0.00053394
 ======================================================================
 Norm of residual vector:     0.00549913
 CPU time [min]:     1.380                   Wall time [min]:     1.390
 
 Iteration  9  CC energy:   -79.26631463  Energy decrease:   0.00010966
 ======================================================================
 Norm of residual vector:     0.00374320
 CPU time [min]:     1.540                   Wall time [min]:     1.549
 
 Iteration 10  CC energy:   -79.26642884  Energy decrease:   0.00011422
 ======================================================================
 Norm of residual vector:     0.00208926
 CPU time [min]:     1.700                   Wall time [min]:     1.710
 
 Iteration 11  CC energy:   -79.26648210  Energy decrease:   0.00005326
 ======================================================================
 Norm of residual vector:     0.00095102
 CPU time [min]:     1.862                   Wall time [min]:     1.872
 
 Iteration 12  CC energy:   -79.26645530  Energy decrease:   0.00002680
 ======================================================================
 Norm of residual vector:     0.00051070
 CPU time [min]:     2.024                   Wall time [min]:     2.036
 
 Iteration 13  CC energy:   -79.26647077  Energy decrease:   0.00001546
 ======================================================================
 Norm of residual vector:     0.00025321
 CPU time [min]:     2.189                   Wall time [min]:     2.200
 
 Iteration 14  CC energy:   -79.26648520  Energy decrease:   0.00001443
 ======================================================================
 Norm of residual vector:     0.00012048
 CPU time [min]:     2.354                   Wall time [min]:     2.366
 
 Iteration 15  CC energy:   -79.26648669  Energy decrease:   0.00000150
 ======================================================================
 Norm of residual vector:     0.00006067
 CPU time [min]:     2.520                   Wall time [min]:     2.532
 
 Iteration 16  CC energy:   -79.26649018  Energy decrease:   0.00000349
 ======================================================================
 Norm of residual vector:     0.00002558
 CPU time [min]:     2.688                   Wall time [min]:     2.701
 
 Iteration 17  CC energy:   -79.26649104  Energy decrease:   0.00000086
 ======================================================================
 Norm of residual vector:     0.00001082
 CPU time [min]:     2.857                   Wall time [min]:     2.870
 
 Iteration 18  CC energy:   -79.26649103  Energy decrease:   0.00000001
 ======================================================================
 Norm of residual vector:     0.00000533
 CPU time [min]:     3.002                   Wall time [min]:     3.015
 
 Iteration 19  CC energy:   -79.26649117  Energy decrease:   0.00000014
 ======================================================================
 
 Iteration has converged in 19 steps.
 
 Final results:
 Total CCSDT energy [au]:            -79.266491173494
 Total MP2 energy [au]:              -79.247888882979
 
 Perturbative corrections are calculated...
 ======================================================================
 Spin case  1   Alpha:  0   Beta:  4
 Number of excitations:        91703
 CPU time [min]:     3.336                   Wall time [min]:     3.348
 ======================================================================
 Spin case  2   Alpha:  1   Beta:  3
 Number of excitations:        6192216
 CPU time [min]:     7.596                   Wall time [min]:     7.610
 ======================================================================
 Spin case  3   Alpha:  2   Beta:  2
 Number of excitations:        21344800
 CPU time [min]:    16.327                   Wall time [min]:    16.346
 ======================================================================
 Number of 4-fold excitations: 33912638
 CPU time [min]:    16.327                   Wall time [min]:    16.346
 
 Total CCSDT[Q] energy [au]:         -79.264786153770
 Total CCSDT(Q) energy [au]:         -79.271364564150
 
 Dominant cluster amplitudes
 Printing threshold:  1.00E-02
 
    1.000000  Reference determinant                                     
    0.049543  3b -> 7b                                                  
   -0.215159  4b -> 7b                                                  
    0.036100  4b -> 10b                                                 
    0.034945  4b -> 11b                                                 
    0.012993  4b -> 17b                                                 
   -0.018086  4b -> 23b                                                 
    0.017757  4b -> 26b                                                 
    0.015617  4b -> 27b                                                 
    0.011261  6b -> 9b                                                  
    0.012669  6b -> 19b                                                 
    0.021664  6b -> 21b                                                 
    0.010055  6b -> 30b                                                 
   -0.011288  6b -> 42b                                                 
    0.011261  5b -> 8b                                                  
   -0.012669  5b -> 18b                                                 
   -0.021664  5b -> 22b                                                 
   -0.010055  5b -> 31b                                                 
    0.011288  5b -> 43b                                                 
    0.049543  3a -> 7a                                                  
   -0.215159  4a -> 7a                                                  
    0.036100  4a -> 10a                                                 
    0.034945  4a -> 11a                                                 
    0.012993  4a -> 17a                                                 
   -0.018086  4a -> 23a                                                 
    0.017757  4a -> 26a                                                 
    0.015617  4a -> 27a                                                 
    0.011261  6a -> 9a                                                  
    0.012669  6a -> 19a                                                 
    0.021664  6a -> 21a                                                 
    0.010055  6a -> 30a                                                 
   -0.011288  6a -> 42a                                                 
    0.011261  5a -> 8a                                                  
   -0.012669  5a -> 18a                                                 
   -0.021664  5a -> 22a                                                 
   -0.010055  5a -> 31a                                                 
    0.011288  5a -> 43a                                                 
    0.010219  3b 4b -> 7b 17b                                           
    0.010020  3b 4b -> 7b 27b                                           
   -0.023253  4b 6b -> 7b 9b                                            
   -0.010348  4b 6b -> 9b 11b                                           
   -0.015477  4b 6b -> 7b 12b                                           
    0.010868  4b 6b -> 11b 12b                                          
   -0.023253  4b 5b -> 7b 8b                                            
   -0.010348  4b 5b -> 8b 11b                                           
   -0.015477  4b 5b -> 7b 13b                                           
    0.010868  4b 5b -> 11b 13b                                          
   -0.022250  5b 6b -> 8b 9b                                            
   -0.012809  5b 6b -> 8b 12b                                           
    0.012809  5b 6b -> 9b 13b                                           
    0.019253  5b 6b -> 12b 13b                                          
   -0.014507  5b 6b -> 15b 16b                                          
   -0.011049  5b 6b -> 9b 18b                                           
   -0.011049  5b 6b -> 8b 19b                                           
    0.011456  5b 6b -> 18b 19b                                          
    0.014353  5b 6b -> 28b 29b                                          
   -0.013961  3a 3b -> 7a 7b                                            
    0.011468  3a 3b -> 14a 7b                                           
    0.011468  3a 3b -> 7a 14b                                           
   -0.011819  3a 3b -> 26a 26b                                          
   -0.011002  4a 3b -> 7a 7b                                            
    0.010705  4a 3b -> 20a 7b                                           
    0.013741  4a 3b -> 27a 7b                                           
    0.010993  4a 3b -> 7a 10b                                           
   -0.011002  3a 4b -> 7a 7b                                            
    0.010993  3a 4b -> 10a 7b                                           
    0.010705  3a 4b -> 7a 20b                                           
    0.013741  3a 4b -> 7a 27b                                           
   -0.315623  4a 4b -> 7a 7b                                            
    0.048119  4a 4b -> 10a 7b                                           
    0.059838  4a 4b -> 11a 7b                                           
    0.033092  4a 4b -> 14a 7b                                           
   -0.011271  4a 4b -> 17a 7b                                           
   -0.029304  4a 4b -> 20a 7b                                           
   -0.016961  4a 4b -> 23a 7b                                           
   -0.021466  4a 4b -> 26a 7b                                           
    0.048119  4a 4b -> 7a 10b                                           
   -0.011446  4a 4b -> 10a 10b                                          
    0.059838  4a 4b -> 7a 11b                                           
   -0.013269  4a 4b -> 11a 11b                                          
    0.033092  4a 4b -> 7a 14b                                           
   -0.010017  4a 4b -> 14a 14b                                          
   -0.011271  4a 4b -> 7a 17b                                           
   -0.029304  4a 4b -> 7a 20b                                           
   -0.010266  4a 4b -> 20a 20b                                          
   -0.016961  4a 4b -> 7a 23b                                           
   -0.021466  4a 4b -> 7a 26b                                           
   -0.048021  6a 6b -> 7a 7b                                            
    0.010794  6a 6b -> 10a 7b                                           
    0.013360  6a 6b -> 14a 7b                                           
    0.010794  6a 6b -> 7a 10b                                           
    0.013360  6a 6b -> 7a 14b                                           
   -0.010458  6a 6b -> 16a 16b                                          
   -0.013048  6a 6b -> 29a 29b                                          
   -0.048021  5a 5b -> 7a 7b                                            
    0.010794  5a 5b -> 10a 7b                                           
    0.013360  5a 5b -> 14a 7b                                           
    0.010794  5a 5b -> 7a 10b                                           
    0.013360  5a 5b -> 7a 14b                                           
   -0.010458  5a 5b -> 16a 16b                                          
   -0.013048  5a 5b -> 29a 29b                                          
   -0.024812  4a 4b -> 9a 9b                                            
   -0.022466  4a 4b -> 12a 9b                                           
   -0.022466  4a 4b -> 9a 12b                                           
   -0.022757  4a 4b -> 12a 12b                                          
   -0.064806  6a 6b -> 9a 9b                                            
   -0.041949  6a 6b -> 12a 9b                                           
   -0.026920  6a 6b -> 19a 9b                                           
   -0.025375  6a 6b -> 21a 9b                                           
   -0.041949  6a 6b -> 9a 12b                                           
   -0.042384  6a 6b -> 12a 12b                                          
   -0.019790  6a 6b -> 21a 12b                                          
   -0.010591  6a 6b -> 24a 12b                                          
   -0.026920  6a 6b -> 9a 19b                                           
   -0.021999  6a 6b -> 19a 19b                                          
   -0.012146  6a 6b -> 21a 19b                                          
   -0.025375  6a 6b -> 9a 21b                                           
   -0.019790  6a 6b -> 12a 21b                                          
   -0.012146  6a 6b -> 19a 21b                                          
   -0.019553  6a 6b -> 21a 21b                                          
   -0.010591  6a 6b -> 12a 24b                                          
   -0.010614  6a 6b -> 30a 30b                                          
   -0.024812  4a 4b -> 8a 8b                                            
   -0.022466  4a 4b -> 13a 8b                                           
   -0.022466  4a 4b -> 8a 13b                                           
   -0.022757  4a 4b -> 13a 13b                                          
   -0.064806  5a 5b -> 8a 8b                                            
   -0.041949  5a 5b -> 13a 8b                                           
    0.026920  5a 5b -> 18a 8b                                           
    0.025375  5a 5b -> 22a 8b                                           
   -0.041949  5a 5b -> 8a 13b                                           
   -0.042384  5a 5b -> 13a 13b                                          
    0.019790  5a 5b -> 22a 13b                                          
    0.010591  5a 5b -> 25a 13b                                          
    0.026920  5a 5b -> 8a 18b                                           
   -0.021999  5a 5b -> 18a 18b                                          
   -0.012146  5a 5b -> 22a 18b                                          
    0.025375  5a 5b -> 8a 22b                                           
    0.019790  5a 5b -> 13a 22b                                          
   -0.012146  5a 5b -> 18a 22b                                          
   -0.019553  5a 5b -> 22a 22b                                          
    0.010591  5a 5b -> 13a 25b                                          
   -0.010614  5a 5b -> 31a 31b                                          
   -0.010458  6a 6b -> 15a 15b                                          
   -0.013048  6a 6b -> 28a 28b                                          
   -0.010458  5a 5b -> 15a 15b                                          
   -0.013048  5a 5b -> 28a 28b                                          
   -0.012403  3a 6b -> 17a 9b                                           
    0.010306  3a 6b -> 7a 12b                                           
   -0.010131  3a 6b -> 7a 19b                                           
    0.017099  3a 6b -> 7a 30b                                           
   -0.082013  4a 6b -> 7a 9b                                            
    0.012589  4a 6b -> 10a 9b                                           
    0.017517  4a 6b -> 11a 9b                                           
    0.014110  4a 6b -> 14a 9b                                           
   -0.055596  4a 6b -> 7a 12b                                           
    0.016180  4a 6b -> 10a 12b                                          
    0.015592  4a 6b -> 11a 12b                                          
   -0.011179  4a 6b -> 23a 12b                                          
   -0.022870  4a 6b -> 7a 19b                                           
   -0.020191  4a 6b -> 7a 21b                                           
   -0.058760  6a 4b -> 7a 9b                                            
    0.013069  6a 4b -> 10a 9b                                           
    0.013752  6a 4b -> 14a 9b                                           
   -0.012112  6a 4b -> 16a 9b                                           
   -0.040119  6a 4b -> 7a 12b                                           
    0.010602  6a 4b -> 10a 12b                                          
    0.010081  6a 4b -> 14a 12b                                          
   -0.012082  6a 4b -> 16a 12b                                          
   -0.014218  6a 4b -> 7a 19b                                           
   -0.016004  6a 4b -> 7a 21b                                           
   -0.058760  4a 6b -> 9a 7b                                            
   -0.040119  4a 6b -> 12a 7b                                           
   -0.014218  4a 6b -> 19a 7b                                           
   -0.016004  4a 6b -> 21a 7b                                           
    0.013069  4a 6b -> 9a 10b                                           
    0.010602  4a 6b -> 12a 10b                                          
    0.013752  4a 6b -> 9a 14b                                           
    0.010081  4a 6b -> 12a 14b                                          
   -0.012112  4a 6b -> 9a 16b                                           
   -0.012082  4a 6b -> 12a 16b                                          
    0.010306  6a 3b -> 12a 7b                                           
   -0.010131  6a 3b -> 19a 7b                                           
    0.017099  6a 3b -> 30a 7b                                           
   -0.012403  6a 3b -> 9a 17b                                           
   -0.082013  6a 4b -> 9a 7b                                            
   -0.055596  6a 4b -> 12a 7b                                           
   -0.022870  6a 4b -> 19a 7b                                           
   -0.020191  6a 4b -> 21a 7b                                           
    0.012589  6a 4b -> 9a 10b                                           
    0.016180  6a 4b -> 12a 10b                                          
    0.017517  6a 4b -> 9a 11b                                           
    0.015592  6a 4b -> 12a 11b                                          
    0.014110  6a 4b -> 9a 14b                                           
   -0.011179  6a 4b -> 12a 23b                                          
   -0.012112  4a 6b -> 8a 15b                                           
   -0.012082  4a 6b -> 13a 15b                                          
   -0.012112  6a 4b -> 15a 8b                                           
   -0.012082  6a 4b -> 15a 13b                                          
   -0.012403  3a 5b -> 17a 8b                                           
    0.010306  3a 5b -> 7a 13b                                           
    0.010131  3a 5b -> 7a 18b                                           
   -0.017099  3a 5b -> 7a 31b                                           
   -0.082013  4a 5b -> 7a 8b                                            
    0.012589  4a 5b -> 10a 8b                                           
    0.017517  4a 5b -> 11a 8b                                           
    0.014110  4a 5b -> 14a 8b                                           
   -0.055596  4a 5b -> 7a 13b                                           
    0.016180  4a 5b -> 10a 13b                                          
    0.015592  4a 5b -> 11a 13b                                          
   -0.011179  4a 5b -> 23a 13b                                          
    0.022870  4a 5b -> 7a 18b                                           
    0.020191  4a 5b -> 7a 22b                                           
   -0.058760  5a 4b -> 7a 8b                                            
    0.013069  5a 4b -> 10a 8b                                           
    0.013752  5a 4b -> 14a 8b                                           
    0.012112  5a 4b -> 16a 8b                                           
   -0.040119  5a 4b -> 7a 13b                                           
    0.010602  5a 4b -> 10a 13b                                          
    0.010081  5a 4b -> 14a 13b                                          
    0.012082  5a 4b -> 16a 13b                                          
    0.014218  5a 4b -> 7a 18b                                           
    0.016004  5a 4b -> 7a 22b                                           
   -0.012112  4a 5b -> 9a 15b                                           
   -0.012082  4a 5b -> 12a 15b                                          
   -0.058760  4a 5b -> 8a 7b                                            
   -0.040119  4a 5b -> 13a 7b                                           
    0.014218  4a 5b -> 18a 7b                                           
    0.016004  4a 5b -> 22a 7b                                           
    0.013069  4a 5b -> 8a 10b                                           
    0.010602  4a 5b -> 13a 10b                                          
    0.013752  4a 5b -> 8a 14b                                           
    0.010081  4a 5b -> 13a 14b                                          
    0.012112  4a 5b -> 8a 16b                                           
    0.012082  4a 5b -> 13a 16b                                          
    0.010306  5a 3b -> 13a 7b                                           
    0.010131  5a 3b -> 18a 7b                                           
   -0.017099  5a 3b -> 31a 7b                                           
   -0.012403  5a 3b -> 8a 17b                                           
   -0.082013  5a 4b -> 8a 7b                                            
   -0.055596  5a 4b -> 13a 7b                                           
    0.022870  5a 4b -> 18a 7b                                           
    0.020191  5a 4b -> 22a 7b                                           
    0.012589  5a 4b -> 8a 10b                                           
    0.016180  5a 4b -> 13a 10b                                          
    0.017517  5a 4b -> 8a 11b                                           
    0.015592  5a 4b -> 13a 11b                                          
    0.014110  5a 4b -> 8a 14b                                           
   -0.011179  5a 4b -> 13a 23b                                          
   -0.012112  5a 4b -> 15a 9b                                           
   -0.012082  5a 4b -> 15a 12b                                          
   -0.040885  6a 5b -> 9a 8b                                            
   -0.025587  6a 5b -> 12a 8b                                           
   -0.017719  6a 5b -> 19a 8b                                           
   -0.014429  6a 5b -> 21a 8b                                           
   -0.025587  6a 5b -> 9a 13b                                           
   -0.029309  6a 5b -> 12a 13b                                          
   -0.011569  6a 5b -> 21a 13b                                          
    0.017719  6a 5b -> 9a 18b                                           
    0.015749  6a 5b -> 19a 18b                                          
    0.014429  6a 5b -> 9a 22b                                           
    0.011569  6a 5b -> 12a 22b                                          
    0.012413  6a 5b -> 21a 22b                                          
   -0.018635  5a 6b -> 9a 8b                                            
   -0.012779  5a 6b -> 12a 8b                                           
   -0.012779  5a 6b -> 9a 13b                                           
   -0.010055  5a 6b -> 12a 13b                                          
   -0.018635  6a 5b -> 8a 9b                                            
   -0.012779  6a 5b -> 13a 9b                                           
   -0.012779  6a 5b -> 8a 12b                                           
   -0.010055  6a 5b -> 13a 12b                                          
   -0.040885  5a 6b -> 8a 9b                                            
   -0.025587  5a 6b -> 13a 9b                                           
    0.017719  5a 6b -> 18a 9b                                           
    0.014429  5a 6b -> 22a 9b                                           
   -0.025587  5a 6b -> 8a 12b                                           
   -0.029309  5a 6b -> 13a 12b                                          
    0.011569  5a 6b -> 22a 12b                                          
   -0.017719  5a 6b -> 8a 19b                                           
    0.015749  5a 6b -> 18a 19b                                          
   -0.014429  5a 6b -> 8a 21b                                           
   -0.011569  5a 6b -> 13a 21b                                          
    0.012413  5a 6b -> 22a 21b                                          
    0.010219  3a 4a -> 7a 17a                                           
    0.010020  3a 4a -> 7a 27a                                           
   -0.023253  4a 6a -> 7a 9a                                            
   -0.010348  4a 6a -> 9a 11a                                           
   -0.015477  4a 6a -> 7a 12a                                           
    0.010868  4a 6a -> 11a 12a                                          
   -0.023253  4a 5a -> 7a 8a                                            
   -0.010348  4a 5a -> 8a 11a                                           
   -0.015477  4a 5a -> 7a 13a                                           
    0.010868  4a 5a -> 11a 13a                                          
   -0.022250  5a 6a -> 8a 9a                                            
   -0.012809  5a 6a -> 8a 12a                                           
    0.012809  5a 6a -> 9a 13a                                           
    0.019253  5a 6a -> 12a 13a                                          
   -0.014507  5a 6a -> 15a 16a                                          
   -0.011049  5a 6a -> 9a 18a                                           
   -0.011049  5a 6a -> 8a 19a                                           
    0.011456  5a 6a -> 18a 19a                                          
    0.014353  5a 6a -> 28a 29a                                          
   -0.030451  4a 4b 6b -> 7a 7b 9b                                      
   -0.021299  4a 4b 6b -> 7a 7b 12b                                     
   -0.030451  4a 4b 5b -> 7a 7b 8b                                      
   -0.021299  4a 4b 5b -> 7a 7b 13b                                     
   -0.030451  4a 6a 4b -> 7a 9a 7b                                      
   -0.021299  4a 6a 4b -> 7a 12a 7b                                     
   -0.030451  4a 5a 4b -> 7a 8a 7b                                      
   -0.021299  4a 5a 4b -> 7a 13a 7b                                     
 
 ************************ 2021-07-31 17:24:45 *************************
                      Normal termination of mrcc.
 **********************************************************************
