 --invoking executable--
/project1/nike/cfour_v2.00beta_May2019xnmol_noLABBASIS/bin/xjoda


   *************************************************************************
         <<<     CCCCCC     CCCCCC   |||     CCCCCC     CCCCCC   >>>
       <<<      CCC        CCC       |||    CCC        CCC         >>>
      <<<      CCC        CCC        |||   CCC        CCC            >>>
    <<<        CCC        CCC        |||   CCC        CCC              >>>
      <<<      CCC        CCC        |||   CCC        CCC            >>>
       <<<      CCC        CCC       |||    CCC        CCC         >>>
         <<<     CCCCCC     CCCCCC   |||     CCCCCC     CCCCCC   >>>
   *************************************************************************

     ****************************************************************
     * CFOUR Coupled-Cluster techniques for Computational Chemistry *
     ****************************************************************
 

   Department of Chemistry                Institut fuer Physikalische Chemie
   University of Texas at Austin          Universitaet Mainz
   Austin, TX  78712, USA                 D-55099 Mainz, Germany
 
                       Version 2.00beta
 
                     wob144                                            
                     Tue Mar 10 00:14:25 EDT 2020                      
                     integer*8 version is running
 
********************************************************************************
*                          Input from ZMAT file                                *
********************************************************************************
TITLE                                                                           
O                                                                               
O 1 ROO                                                                         
H 1 ROH 2 OOH                                                                   
H 2 ROH 1 OOH 3 D                                                               
                                                                                
ROO=2.78734603382                                                               
ROH=1.79523981839                                                               
OOH=94.8                                                                        
D=119.8                                                                         
                                                                                
*ACES2(CALC=CCSD(T)                                                             
UNITS=BOHR                                                                      
#GEOM=1.475*10/5.29177210903_0.95*10/5.29177210903                              
#COORD=CARTESIAN                                                                
COORD=INTERNAL                                                                  
PRINT=4                                                                         
JODA_PRINT=4                                                                    
INPUT_MRCC=OFF                                                                  
#CC_PROG=MRCC                                                                   
#FROZEN_CORE=ON                                                                 
DROPMO=1>2                                                                      
CONTRACTION=GENERAL                                                             
#CONTRACTION=SEGMENTED                                                          
RELATIVISTIC=OFF                                                                
#EXCITE=EOMEE                                                                   
#ESTATE_CONV=5                                                                  
#ESTATE_SYM=2/2/2/2/2/2/2/2                                                     
XFORM_TOL=18                                                                    
SAVE_INTS=ON                                                                    
SCF_EXPORDER=6                                                                  
SCF_EXPSTART=5                                                                  
#SCF_DAMPING=1000                                                               
SCF_EXTRAPOLATION=ON                                                            
SCF_CONV=14                                                                     
SCF_MAXCYC=99999                                                                
CC_CONV=9                                                                       
CC_MAXCYC=999                                                                   
T3_EXTRAPOL=ON                                                                  
REFERENCE=ROHF                                                                  
CHARGE=+1                                                                       
MULT=2                                                                          
ABCDTYPE=STANDARD                                                               
#OCCUPATION=3-2-2-0-1-0-0-0/3-1-1-0-1-0-0-0                                     
MEM=4                                                                           
MEM_UNIT=GB                                                                     
BASIS=SPECIAL)                                                                  
                                                                                
O:def2-TZVPP                                                                    
O:def2-TZVPP                                                                    
H:def2-TZVPP                                                                    
H:def2-TZVPP                                                                    
                                                                                
********************************************************************************
  @GTFLGS-W, Keyword #GEOM not known and is ignored.
  @GTFLGS-W, Keyword #COORD not known and is ignored.
  @GTFLGS-W, Keyword #CC_PROG not known and is ignored.
  @GTFLGS-W, Keyword #FROZEN_CORE not known and is ignored.
  @GTFLGS-W, Keyword #CONTRACTION not known and is ignored.
  @GTFLGS-W, Keyword #EXCITE not known and is ignored.
  @GTFLGS-W, Keyword #ESTATE_CONV not known and is ignored.
  @GTFLGS-W, Keyword #ESTATE_SYM not known and is ignored.
  @GTFLGS-W, Keyword #SCF_DAMPING not known and is ignored.
  @GTFLGS-W, Keyword #OCCUPATION not known and is ignored.
    -------------------------------------------------------------------
                    CFOUR Control Parameters 
    -------------------------------------------------------------------
        External           Internal           Value            Units
          Name               Name
    -------------------------------------------------------------------
       ABCDTYPE             IABCDT         STANDARD     [  0]   ***   
       ANHARMONIC           IANHAR         OFF          [  0]   ***   
       ANH_ALGORIT          IANALG         STANDARD     [  0]   ***   
       ANH_DERIVAT          IANDER         SECOND       [  1]   ***   
       ANH_STEPSIZ          ICUBST             50000          x 10-6  
       ANH_SYMMETR          IANHSM         ABELIAN      [  0]   ***   
       AO_LADDERS           IAOLAD         SINGLEPASS   [  1]   ***   
       BASIS                IBASIS         SPECIAL      [  0]   ***   
       BREIT                IBREIT         OFF          [  0]   ***   
       BRUCK_CONV           IBRTOL          10D-  4             ***   
       BRUECKNER            IBRKNR             OFF      [  0]   ***   
       BUFFERSIZE           IBUFFS            600               ***   
       CACHE_RECS           ICHREC             10               ***   
       CALCLEVEL            ICLLVL           CCSD(T)    [ 22]   ***   
       CCORBOPT             ICCORB             OFF      [  0] x 0.01  
       CC_CONV              ICCCNV          10D-  9             ***   
       CC_EXPORDER          ICCEOR              5               ***   
       CC_EXTRAPOL          ICCEXT             DIIS     [  1]   ***   
       CC_MAXCYC            ICCCYC            999              cycles 
       CC_PROGRAM           ICCPRO         VCC          [  0]   ***   
       CHARGE               ICHRGE              1               ***   
       CHOLESKY             ICHOLE         OFF          [  0]   ***   
       CIS_CONV             ICISTL              5               ***   
       COMM_SIZE            IPSIZE            ***               ***   
       CONSTANT             ICONST         OLD          [  1]   ***   
       CONTINUUM            ICONTU         NONE         [  0]   ***   
       CONTRACTION          ICNTYP          GENERAL     [  1]   ***   
       COORDINATES          ICOORD         INTERNAL     [  0]   ***   
       CPHF_CONVER          ICPHFT          10D- 16             ***   
       CPHF_MAXCYC          ICPHFC             64              cycles 
       CUBIC                ICUBIC         OFF          [  0]   ***   
       CURVILINEAR          ICURVY            OFF       [  0]   ***   
       DBOC                 IDBOC          OFF          [  0]   ***   
       DCT                  IDCT           OFF          [  0]   ***   
       DERIV_LEV            IDRLVL            ZERO      [  0]   ***   
       DIAG_MRCC            IEOMST          10D-  0             ***   
       DIFF_TYPE            IDIFTY         RELAXED      [  0]   ***   
       DIRECT               IDIRCT         OFF          [  0]   ***   
       DROPMO               IDRPMO A   1,  2,
                                   B   1,  2,
       ECP                  IECP           OFF          [  0]   ***   
       EIGENVECTOR          IVEC                1               ***   
       EL_ANHARM            IELANH         OFF          [  0]   ***   
       EOMFOLLOW            IEOMSR         ENERGY       [  0]   ***   
       EOM_MRCC             IMRCCE         NEW          [  1]   ***   
       EOM_NONIT            EOMNON         OFF          [  0]   ***   
       EOM_NSING            IEOMSI          10D-  0             ***   
       EOM_NSTATES          IMRCCD         DAVIDSON     [  0]   ***   
       EOM_NTRIP            IEOMTR          10D-  0             ***   
       EOM_ORDER            IEXORD         ENERGY       [  0]   ***   
       ESTATE_CONV          IEXTOL          10D-  5             ***   
       ESTATE_DIAG          IEXDIG         ITERATIVE    [  0]   ***   
       ESTATE_LOCK          IESLOC         ON           [  1]   ***   
       ESTATE_MAXC          IEXMXC             20               ***   
       ESTATE_PROP          IEXPRP         OFF          [  0]   ***   
       EVAL_HESS            IRECAL              0            # of cyc.
       EXCITATION           IEXCIT              0               ***   
       EXCITE               IEXCIT         NONE         [  0]   ***   
       FCGRADNEW            IFCGNW         OFF          [  0]   ***   
       FC_FIELD             IFINFC              0             x 10-6  
       FD_CALTYPE           IFDCAL         GRADONLY     [  0]   ***   
       FD_PROJECT           IFDPRJ         OFF          [  1]   ***   
       FD_STEPSIZE          IDISFD              0            10-4 bohr
       FD_USEGROUP          IFDGRP         FULL         [  0]   ***   
       FILE_RECSIZ          IFLREC              4096           words  
       FINITE_PERT          IFIPER              0             x 10-6  
       FIXGEOM              IFIXGM         OFF          [  0]   ***   
       FOCK                 IFOCK          AO           [  1]   ***   
       FREQ_ALGORI          IVIALG         STANDARD     [  0]   ***   
       FROZEN_CORE          IFROCO         OFF          [  0]   ***   
       FROZEN_VIRT          IFROVI         OFF          [  0]   ***   
       GAMMA_ABCD           IGABCD         STORE        [  0]   ***   
       GAMMA_ABCI           IGABCI         STORE        [  0]   ***   
       GENBAS_1             IGNBS1              0               ***   
       GENBAS_2             IGNBS2              0               ***   
       GENBAS_3             IGNBS3              0               ***   
       GENBAS_4             IGNBS4              0               ***   
       GEO_CONV             ICONTL              5              H/bohr 
       GEO_MAXCYC           IOPTCY             50               ***   
       GEO_MAXSTEP          IMXSTP            300            millibohr
       GEO_METHOD           INR            SINGLE_POINT [  5]   ***   
       GIAO                 IGIAO          OFF          [  1]   ***   
       GIMIC                IGIMIC         OFF          [  0]   ***   
       GRID                 IGRID          OFF          [  0]   ***   
       GRID_ALGO            IGALGO         SERIAL       [  0]   ***   
       GUESS                IGUESS            MOREAD    [  0]   ***   
       HBAR                 IHBAR              OFF      [  0]   ***   
       HESS_TYPE            IHESTP         SCF          [  0]   ***   
       HF2_FILE             IHF2Fl         USE          [  1]   ***   
       HFSTABILITY          ISTABL         OFF          [  0]   ***   
       INCORE               INCORE             OFF      [  0]   ***   
       INPUT_MRCC           IMRCC          OFF          [  0]   ***   
       INTEGRALS            INTTYP             VMOL     [  1]   ***   
       JODA_PRINT           IJPRNT              4               ***   
       LINDEP_TOL           ILINDP              8               ***   
       LINEQ_CONV           IZTACN          10D-  7           cycles  
       LINEQ_EXPOR          ILMAXD              5               ***   
       LINEQ_MAXCY          ILMAXC             50               ***   
       LINEQ_TYPE           ILTYPE         DIIS         [  1]   ***   
       LOCK_ORBOCC          ILOCOC             OFF      [  0]   ***   
       MEMORY_SIZE          IMEMSZ         500000000           words  
       MEM_UNIT             IMEMU          GB           [  3]   ***   
       MRCC                 IMRCCC         OFF          [  0]   ***   
       MULTIPLICTY          IMULTP              2               ***   
       NEGEVAL              IDIE             ABORT      [  0]   ***   
       NEWNORM              INEWNO         OFF          [  0]   ***   
       NON-HF               INONHF              ON      [  1]   ***   
       NTOP_TAMP            ITOPT2             15               ***   
       NUC_MODEL            INUCMO         POINT        [  0]   ***   
       OCCUPATION           IOCCU   ESTIMATED BY SCF 
       OPEN-SHELL           IOPEN          SPIN-ORBITAL [  0]   ***   
       ORBITALS             IORBTP         SEMICANONICAL[  1]   ***   
       PARALLEL             IPARAL         ON           [  1]   ***   
       PARA_INT             IPINTS         ON           [  1]   ***   
       PARA_PRINT           IPPRIN              0               ***   
       PERT_ORB             IPTORB         STANDARD     [  0]   ***   
       POINTS               IGRDFD              0               ***   
       PRINT                IPRNT               4               ***   
       PROPS                IPROPS             OFF      [  0]   ***   
       PROP_INTEGR          IINTYP         INTERNAL     [  0]   ***   
       PSI                  IPSI           OFF          [  0]   ***   
       QUARTIC              IQUART         OFF          [  0]   ***   
       RAMAN_INT            IRAMIN         OFF          [  0]   ***   
       RAMAN_ORB            IRAMRE         UNRELAXED    [  0]   ***   
       RDO                  IRDOFM             OFF      [  0]   ***   
       REFERENCE            IREFNC             ROHF     [  2]   ***   
       RELATIVIST           IRELAT         OFF          [  0]   ***   
       RELAX_DENS           IRDENS             OFF      [  0]   ***   
       RESET_FLAGS          IRESET             OFF      [  0]   ***   
       RESTART_CC           ICCRES         OFF          [  0]   ***   
       ROT_EVEC             ROTVEC              0               ***   
       SAVE_INTS            ISVINT              ON      [  1]   ***   
       SCALE_ON             ISTCRT              0               ***   
       SCF_CONV             ISCFCV          10D- 14             ***   
       SCF_DAMPING          IDAMP               0             x 10-3  
       SCF_EXPORDE          IRPPOR              6               ***   
       SCF_EXPSTAR          IRPPLS              5               ***   
       SCF_EXTRAPO          IRPP                ON      [  1]   ***   
       SCF_MAXCYC           ISCFCY            ***              cycles 
       SCF_NOSTOP           ISCFST         OFF          [  0]   ***   
       SCF_PRINT            ISCFPR              0               ***   
       SD_FIELD             IFINSD              0             x 10-6  
       SEQUENCE             ISEQUE         OFF          [  0]   ***   
       SOPERT               IPERSO         OFF          [  0]   ***   
       SPHERICAL            IDFGHI             ON       [  1]   ***   
       SPINORBIT            ISOCAL         OFF          [  0]   ***   
       SPINROTATIO          ISRCON         OFF          [  0]   ***   
       SPIN_FLIP            ISPFLP         OFF          [  0]   ***   
       SPIN_ORBIT           ISPORB         OFF          [  0]   ***   
       SPIN_SCAL            ISCSMP         OFF          [  0]   ***   
       SUBGROUP             ISUBGP         DEFAULT      [  0]   ***   
       SUBGRPAXIS           ISBXYZ         X            [  0]   ***   
       SYMMETRY             ISYM             ON         [  0]   ***   
       SYM_CHECK            ISYMCK         OVERRIDE     [  1]   ***   
       T3_EXTRAPOL          IT3EXT         ON           [  1]   ***   
       TAMP_SUM             IEVERY              5               ***   
       TESTSUITE            ITESTS         OFF          [  0]   ***   
       THERMOCH             ITHERM         OFF          [  0]   ***   
       TOL_CHOLESK          ITOLCH          10D-  4             ***   
       TRANGRAD             IRESRM         OFF          [  0]   ***   
       TRANS_INV            ITRAIN         USE          [  0]   ***   
       TREAT_PERT           ITREAT         SIMULTANEOUS [  0]   ***   
       UIJ_THRESHO          IUIJTH              1               ***   
       UNITS                IUNITS         BOHR         [  1]   ***   
       UNOS                 IUNOS          OFF          [  0]   ***   
       UPDATE_HESS          IHUPDT         ON           [  1]   ***   
       VIBPHASE             ISETPH         STANDARD     [  0]   ***   
       VIBRATION            IVIB              NO        [  0]   ***   
       VIB_ALGORIT          IGEALG         STANDARD     [  0]   ***   
       VNATORB              IVNORB         OFF          [  0]   ***   
       VTRAN                IVTRAN         FULL/PARTIAL [  0]   ***   
       XFIELD               IXEFLD              0             x 10-6  
       XFORM_TOL            IXFTOL          10D- 18             ***   
       YFIELD               IYEFLD              0             x 10-6  
       ZFIELD               IZEFLD              0             x 10-6  
    -------------------------------------------------------------------
   4 entries found in Z-matrix 
   Job Title : TITLE                                                                           
 Variable names read by FETCHZ
  1           
  2           
  3           
  4 ROO       
  5           
  6           
  7 ROH       
  8 OOH       
  9           
 10 ROH       
 11 OOH       
 12 D         
 Atomic symbols read by FETCHZ
  1 O    
  2 O    
  3 H    
  4 H    
 Connectivity matrix read by FETCHZ
  1   0
  2   0
  3   0
  4   1
  5   0
  6   0
  7   1
  8   2
  9   0
 10   2
 11   1
 12   3
   There are  4 unique internal coordinates.
   Of these,  0 will be optimized.
   User supplied Z-matrix: 
--------------------------------------------------------------------------------
       SYMBOL    BOND      LENGTH    ANGLE     ANGLE     DIHED     ANGLE
                  TO      (ANGST)    WRT      (DEG)      WRT      (DEG)
--------------------------------------------------------------------------------
        O    
        O          1         ROO  
        H          1         ROH        2        OOH  
        H          2         ROH        1        OOH        3        D    
                  *Initial values for internal coordinates* 
                      Name             Value
                        ROO             2.7873460338
                        ROH             1.7952398184
                        OOH            94.8000000000
                        D             119.8000000000
--------------------------------------------------------------------------------
  1  O          8    15.99491
  2  O          8    15.99491
  3  H          1     1.00783
  4  H          1     1.00783
   15.9949146300
   15.9949146300
    1.0078250350
    1.0078250350
 After translation to center of mass coordinates 
       -0.026670021845   -0.046008201971   -1.393673016910
       -0.026670021845   -0.046008201971    1.393673016910
        1.762273637821   -0.046008201971   -1.543894813177
       -0.915728438445    1.506375303910    1.543894813177
  Inertia tensor (amu*bohr**2)
   69.29593    1.43269    4.16691
    1.43269   70.93694   -2.41547
    4.16691   -2.41547    6.35456
    Inertia tensor:
       69.295925293184    1.432685493951    4.166906541190
        1.432685493951   70.936938730792   -2.415471235972
        4.166906541190   -2.415471235972    6.354555041762
    Principal axis orientation for molecular system: 
       -1.389550787045   -0.107112502933   -0.053179363609
        1.389550787045    0.107112502933   -0.053179363609
       -1.658279245709    1.424471324688    0.843995089887
        1.658279245709   -1.424471324688    0.843995089887
    Diagonalized inertia tensor:
        5.983287162044    0.000000000000    0.000000000000
        0.000000000000   68.836694440419    0.000000000000
        0.000000000000    0.000000000000   71.767437463275
    Eigenvectors of inertia tensor: 
       -0.066492306982    0.862592460914    0.501510737159
        0.038544242195   -0.500027360131    0.865151420570
        0.997042182912    0.076856265160    0.000000000000
 factor:   60.1997200000000     
   Rotational constants (in cm-1): 
          0.8388166295             0.8745295004            10.0613121800
   Rotational constants (in MHz): 
      25147.0934396052         26217.7385256648        301630.5931727235
  @SYMMETRY-I, Handedness of inertial frame: 1.00000
  @SYMMETRY-I, The symmetry group is 1-fold degenerate.
  @SYMMETRY-I, The molecule belongs to an Abelian group.
   Principal axis orientation for molecule:
       -1.389550787045   -0.107112502933   -0.053179363609
        1.389550787045    0.107112502933   -0.053179363609
       -1.658279245709    1.424471324688    0.843995089887
        1.658279245709   -1.424471324688    0.843995089887
   Rotation about  3 is a valid symmetry operation 
  Symmetry bits:    0   4   0
********************************************************************************
   The full molecular point group is C2  .
   The largest Abelian subgroup of the full molecular point group is C2  .
   The computational point group is C2  .
********************************************************************************
--------------------------------------------------------------------------------
   Analysis of internal coordinates specified by Z-matrix 
--------------------------------------------------------------------------------
   *The nuclear repulsion energy is   36.754030506779657 a.u.
   *There are   4 degrees of freedom within the tot. symm. molecular subspace.
   *Z-matrix requests optimization of   0 coordinates.
   *The optimization is constrained.
   *The following   4 parameters can have non-zero 
    derivatives within the totally symmetric subspace:
             D    [ 6]  OOH  [ 5]  ROH  [ 2]  ROO  [ 1]
   *The following   0 parameters are to be optimized:

   *The following coordinates must be varied in an  unconstrained optimization.
             D    [ 6]  OOH  [ 5]  ROH  [ 2]  ROO  [ 1]
--------------------------------------------------------------------------------
 ----------------------------------------------------------------
 Z-matrix   Atomic            Coordinates (in bohr)
  Symbol    Number           X              Y              Z
 ----------------------------------------------------------------
     O         8        -1.38955079    -0.10711250    -0.05317936
     O         8         1.38955079     0.10711250    -0.05317936
     H         1        -1.65827925     1.42447132     0.84399509
     H         1         1.65827925    -1.42447132     0.84399509
 ----------------------------------------------------------------
   Interatomic distance matrix (Angstroms) 
 
                 O             O             H             H    
                [ 1]        [ 2]        [ 3]        [ 4]
  O    [ 1]     0.00000
  O    [ 2]     1.47500     0.00000
  H    [ 3]     0.95000     1.82006     0.00000
  H    [ 4]     1.82006     0.95000     2.31366     0.00000
  Inertia tensor (amu*bohr**2)
    5.98329    0.00000    0.00000
    0.00000   68.83669    0.00000
    0.00000    0.00000   71.76744
   Rotational constants (in cm-1): 
         10.0613121800             0.8745295004             0.8388166295
   Rotational constants (in MHz): 
     301630.5931727233         26217.7385256648         25147.0934396052
  @GTFLGS-W, Keyword #GEOM not known and is ignored.
  @GTFLGS-W, Keyword #COORD not known and is ignored.
  @GTFLGS-W, Keyword #CC_PROG not known and is ignored.
  @GTFLGS-W, Keyword #FROZEN_CORE not known and is ignored.
  @GTFLGS-W, Keyword #CONTRACTION not known and is ignored.
  @GTFLGS-W, Keyword #EXCITE not known and is ignored.
  @GTFLGS-W, Keyword #ESTATE_CONV not known and is ignored.
  @GTFLGS-W, Keyword #ESTATE_SYM not known and is ignored.
  @GTFLGS-W, Keyword #SCF_DAMPING not known and is ignored.
  @GTFLGS-W, Keyword #OCCUPATION not known and is ignored.
  There are   90 basis functions.
 @GEOPT-W, Archive file not created for single-point calculation.
  @CHECKOUT-I, Total execution time (CPU/WALL):        0.21/       0.58 seconds.
--executable xjoda finished with status     0 in        0.68 seconds (walltime).
 --invoking executable--
/project1/nike/cfour_v2.00beta_May2019xnmol_noLABBASIS/bin/xvmol
Running with 1 threads/proc

********************************************************************************
                   INPUT FROM MOL FILE                                          
********************************************************************************
INTGRL        1    0    1    0    0    0    0    0    0
         *** CFOUR Program System (Release V0.1) *** 
TITLE
    2    1 XY         0.10E-08              0    0
   9999.00      3.00
          8.00000000    1    4    1    1    1    1
O #1  -1.389550787045357  -0.107112502933370  -0.053179363609079
   11    5
   27032.3826310000       2.172630246500000E-004  0.000000000000000E+000
  0.000000000000000E+000  0.000000000000000E+000  0.000000000000000E+000
   4052.38713920000       1.683866219900000E-003  0.000000000000000E+000
  0.000000000000000E+000  0.000000000000000E+000  0.000000000000000E+000
   922.327227100000       8.739561626499999E-003  0.000000000000000E+000
  0.000000000000000E+000  0.000000000000000E+000  0.000000000000000E+000
   261.240709890000       3.523996880800000E-002  0.000000000000000E+000
  0.000000000000000E+000  0.000000000000000E+000  0.000000000000000E+000
   85.3546413510000       0.111535191150000       0.000000000000000E+000
  0.000000000000000E+000  0.000000000000000E+000  0.000000000000000E+000
   31.0350352450000       0.255889539610000       0.000000000000000E+000
  0.000000000000000E+000  0.000000000000000E+000  0.000000000000000E+000
   12.2608607280000       0.000000000000000E+000  0.397687309010000     
  0.000000000000000E+000  0.000000000000000E+000  0.000000000000000E+000
   4.99870760050000       0.000000000000000E+000  0.246278494300000     
  0.000000000000000E+000  0.000000000000000E+000  0.000000000000000E+000
   1.17031081580000       0.000000000000000E+000  0.000000000000000E+000
   1.00000000000000       0.000000000000000E+000  0.000000000000000E+000
  0.464747409940000       0.000000000000000E+000  0.000000000000000E+000
  0.000000000000000E+000   1.00000000000000       0.000000000000000E+000
  0.185045363570000       0.000000000000000E+000  0.000000000000000E+000
  0.000000000000000E+000  0.000000000000000E+000   1.00000000000000     
    6    3
   63.2749548010000       6.068510341800000E-003  0.000000000000000E+000
  0.000000000000000E+000
   14.6270493790000       4.191257582400000E-002  0.000000000000000E+000
  0.000000000000000E+000
   4.45012234560000       0.161538410880000       0.000000000000000E+000
  0.000000000000000E+000
   1.52757996470000       0.357069513110000       0.000000000000000E+000
  0.000000000000000E+000
  0.529351179430000       0.000000000000000E+000  0.447942075020000     
  0.000000000000000E+000
  0.174784212700000       0.000000000000000E+000  0.000000000000000E+000
  0.244460696630000     
    2    2
   2.31400000000000        1.00000000000000       0.000000000000000E+000
  0.645000000000000       0.000000000000000E+000   1.00000000000000     
    1    1
   1.42800000000000        1.00000000000000     
          1.00000000    1    3    1    1    1
H #2  -1.658279245709402   1.424471324688040   0.843995089886760
    5    3
   34.0613410000000       6.025197800000000E-003  0.000000000000000E+000
  0.000000000000000E+000
   5.12357460000000       4.502109400000000E-002  0.000000000000000E+000
  0.000000000000000E+000
   1.16466260000000       0.201897260000000       0.000000000000000E+000
  0.000000000000000E+000
  0.327230410000000       0.000000000000000E+000   1.00000000000000     
  0.000000000000000E+000
  0.103072410000000       0.000000000000000E+000  0.000000000000000E+000
   1.00000000000000     
    2    2
   1.40700000000000        1.00000000000000       0.000000000000000E+000
  0.388000000000000       0.000000000000000E+000   1.00000000000000     
    1    1
   1.05700000000000        1.00000000000000     
FINISH
                                                                                
********************************************************************************

ONE- AND TWO-ELECTRON INTEGRALS OVER SYMMETRY-ADAPTED AOS ARE CALCULATED.


    BASIS FUNCTION NOT NORMALIZED:
    CENTER (AS ORDERED IN MOL FILE): ?
    ANGULAR MOMENTUM TYPE:           S
    OFFSET WITHIN ANGULAR MOMENTUM:  1
    <CHI|CHI>:                       0.1441333881

    BASIS FUNCTION NOT NORMALIZED:
    CENTER (AS ORDERED IN MOL FILE): ?
    ANGULAR MOMENTUM TYPE:           S
    OFFSET WITHIN ANGULAR MOMENTUM:  2
    <CHI|CHI>:                       0.3880597184

    BASIS FUNCTION NOT NORMALIZED:
    CENTER (AS ORDERED IN MOL FILE): ?
    ANGULAR MOMENTUM TYPE:           P
    OFFSET WITHIN ANGULAR MOMENTUM:  1
    <CHI|CHI>:                       0.2549621911

    BASIS FUNCTION NOT NORMALIZED:
    CENTER (AS ORDERED IN MOL FILE): ?
    ANGULAR MOMENTUM TYPE:           P
    OFFSET WITHIN ANGULAR MOMENTUM:  2
    <CHI|CHI>:                       0.2006521026

    BASIS FUNCTION NOT NORMALIZED:
    CENTER (AS ORDERED IN MOL FILE): ?
    ANGULAR MOMENTUM TYPE:           P
    OFFSET WITHIN ANGULAR MOMENTUM:  3
    <CHI|CHI>:                       0.0597610322

    BASIS FUNCTION NOT NORMALIZED:
    CENTER (AS ORDERED IN MOL FILE): ?
    ANGULAR MOMENTUM TYPE:           S
    OFFSET WITHIN ANGULAR MOMENTUM:  1
    <CHI|CHI>:                       0.0560960211
CARTESIAN GAUSSIANS ARE USED.

2 TYPES OF ATOMS
1 SYMMETRY OPERATIONS

ROTATION ABOUT THE Z-AXIS

INTEGRALS LESS THAN 1e-14 ARE NEGLECTED.

ATOMIC TYPE NUMBER 1:
---------------------

    NUCLEAR CHARGE:                       8
    NUMBER OF SYMMETRY INDEPENDENT ATOMS: 1
    HIGHEST ORBITAL TYPE:                 F

    1 GROUPS OF CGTOS OF S TYPE
    1 GROUPS OF CGTOS OF P TYPE
    1 GROUPS OF CGTOS OF D TYPE
    1 GROUPS OF CGTOS OF F TYPE

    NUCLEAR COORDINATES (IN A.U.) ARE:

    O #1  -1.389550787045357  -0.107112502933370  -0.053179363609079

ATOMIC TYPE NUMBER 2:
---------------------

    NUCLEAR CHARGE:                       1
    NUMBER OF SYMMETRY INDEPENDENT ATOMS: 1
    HIGHEST ORBITAL TYPE:                 D

    1 GROUPS OF CGTOS OF S TYPE
    1 GROUPS OF CGTOS OF P TYPE
    1 GROUPS OF CGTOS OF D TYPE

    NUCLEAR COORDINATES (IN A.U.) ARE:

    H #2  -1.658279245709402   1.424471324688040   0.843995089886760

INTERNUCLEAR DISTANCES (A):

    FOR ATOM O #1 (COORDINATES:  -1.38955  -0.10711  -0.05318)

    O #1 2 DISTANCE IS   1.47500
    H #2 1 DISTANCE IS   0.95000
    H #2 2 DISTANCE IS   1.82006

    FOR ATOM H #2 (COORDINATES:  -1.65828   1.42447   0.84400)

    H #2 2 DISTANCE IS   2.31366

GROUP MULTIPLICATION TABLE:

    1 2
    2 1

GAUSSIAN BASIS INFORMATION:

ATOM                EXPONENT       COEFFICIENTS

O #1  1  S   
                  1   27032.382631   0.8598582   0.0000000   0.0000000   0.0000000   0.0000000
                  2    4052.387139   1.6055306   0.0000000   0.0000000   0.0000000   0.0000000
                  3     922.327227   2.7458779   0.0000000   0.0000000   0.0000000   0.0000000
                  4     261.240710   4.2987674   0.0000000   0.0000000   0.0000000   0.0000000
                  5      85.354641   5.8797663   0.0000000   0.0000000   0.0000000   0.0000000
                  6      31.035035   6.3163983   0.0000000   0.0000000   0.0000000   0.0000000
                  7      12.260861   0.0000000   2.9812148   0.0000000   0.0000000   0.0000000
                  8       4.998708   0.0000000   0.9419560   0.0000000   0.0000000   0.0000000
                  9       1.170311   0.0000000   0.0000000   0.8019292   0.0000000   0.0000000
                 10       0.464747   0.0000000   0.0000000   0.0000000   0.4011648   0.0000000
                 11       0.185045   0.0000000   0.0000000   0.0000000   0.0000000   0.2010799

O #1  2  S   
                 12   27032.382631   0.8598582   0.0000000   0.0000000   0.0000000   0.0000000
                 13    4052.387139   1.6055306   0.0000000   0.0000000   0.0000000   0.0000000
                 14     922.327227   2.7458779   0.0000000   0.0000000   0.0000000   0.0000000
                 15     261.240710   4.2987674   0.0000000   0.0000000   0.0000000   0.0000000
                 16      85.354641   5.8797663   0.0000000   0.0000000   0.0000000   0.0000000
                 17      31.035035   6.3163983   0.0000000   0.0000000   0.0000000   0.0000000
                 18      12.260861   0.0000000   2.9812148   0.0000000   0.0000000   0.0000000
                 19       4.998708   0.0000000   0.9419560   0.0000000   0.0000000   0.0000000
                 20       1.170311   0.0000000   0.0000000   0.8019292   0.0000000   0.0000000
                 21       0.464747   0.0000000   0.0000000   0.0000000   0.4011648   0.0000000
                 22       0.185045   0.0000000   0.0000000   0.0000000   0.0000000   0.2010799

O #1  1  X   
                 23      63.274955   3.0572017   0.0000000   0.0000000
                 24      14.627049   3.3844839   0.0000000   0.0000000
                 25       4.450122   2.9474262   0.0000000   0.0000000
                 26       1.527580   1.7118271   0.0000000   0.0000000
                 27       0.529351   0.0000000   0.6436058   0.0000000
                 28       0.174784   0.0000000   0.0000000   0.1610897

O #1  2  X   
                 29      63.274955   3.0572017   0.0000000   0.0000000
                 30      14.627049   3.3844839   0.0000000   0.0000000
                 31       4.450122   2.9474262   0.0000000   0.0000000
                 32       1.527580   1.7118271   0.0000000   0.0000000
                 33       0.529351   0.0000000   0.6436058   0.0000000
                 34       0.174784   0.0000000   0.0000000   0.1610897

O #1  1  Y   
                 35      63.274955   3.0572017   0.0000000   0.0000000
                 36      14.627049   3.3844839   0.0000000   0.0000000
                 37       4.450122   2.9474262   0.0000000   0.0000000
                 38       1.527580   1.7118271   0.0000000   0.0000000
                 39       0.529351   0.0000000   0.6436058   0.0000000
                 40       0.174784   0.0000000   0.0000000   0.1610897

O #1  2  Y   
                 41      63.274955   3.0572017   0.0000000   0.0000000
                 42      14.627049   3.3844839   0.0000000   0.0000000
                 43       4.450122   2.9474262   0.0000000   0.0000000
                 44       1.527580   1.7118271   0.0000000   0.0000000
                 45       0.529351   0.0000000   0.6436058   0.0000000
                 46       0.174784   0.0000000   0.0000000   0.1610897

O #1  1  Z   
                 47      63.274955   3.0572017   0.0000000   0.0000000
                 48      14.627049   3.3844839   0.0000000   0.0000000
                 49       4.450122   2.9474262   0.0000000   0.0000000
                 50       1.527580   1.7118271   0.0000000   0.0000000
                 51       0.529351   0.0000000   0.6436058   0.0000000
                 52       0.174784   0.0000000   0.0000000   0.1610897

O #1  2  Z   
                 53      63.274955   3.0572017   0.0000000   0.0000000
                 54      14.627049   3.3844839   0.0000000   0.0000000
                 55       4.450122   2.9474262   0.0000000   0.0000000
                 56       1.527580   1.7118271   0.0000000   0.0000000
                 57       0.529351   0.0000000   0.6436058   0.0000000
                 58       0.174784   0.0000000   0.0000000   0.1610897

O #1  1  XX  
                 59       2.314000  12.3767311   0.0000000
                 60       0.645000   0.0000000   1.3234258

O #1  2  XX  
                 61       2.314000  12.3767311   0.0000000
                 62       0.645000   0.0000000   1.3234258

O #1  1  XY  
                 63       2.314000  12.3767311   0.0000000
                 64       0.645000   0.0000000   1.3234258

O #1  2  XY  
                 65       2.314000  12.3767311   0.0000000
                 66       0.645000   0.0000000   1.3234258

O #1  1  XZ  
                 67       2.314000  12.3767311   0.0000000
                 68       0.645000   0.0000000   1.3234258

O #1  2  XZ  
                 69       2.314000  12.3767311   0.0000000
                 70       0.645000   0.0000000   1.3234258

O #1  1  YY  
                 71       2.314000  12.3767311   0.0000000
                 72       0.645000   0.0000000   1.3234258

O #1  2  YY  
                 73       2.314000  12.3767311   0.0000000
                 74       0.645000   0.0000000   1.3234258

O #1  1  YZ  
                 75       2.314000  12.3767311   0.0000000
                 76       0.645000   0.0000000   1.3234258

O #1  2  YZ  
                 77       2.314000  12.3767311   0.0000000
                 78       0.645000   0.0000000   1.3234258

O #1  1  ZZ  
                 79       2.314000  12.3767311   0.0000000
                 80       0.645000   0.0000000   1.3234258

O #1  2  ZZ  
                 81       2.314000  12.3767311   0.0000000
                 82       0.645000   0.0000000   1.3234258

O #1  1  F300
                 83       1.428000  12.7097950

O #1  2  F300
                 84       1.428000  12.7097950

O #1  1  F210
                 85       1.428000  12.7097950

O #1  2  F210
                 86       1.428000  12.7097950

O #1  1  F201
                 87       1.428000  12.7097950

O #1  2  F201
                 88       1.428000  12.7097950

O #1  1  F120
                 89       1.428000  12.7097950

O #1  2  F120
                 90       1.428000  12.7097950

O #1  1  F111
                 91       1.428000  12.7097950

O #1  2  F111
                 92       1.428000  12.7097950

O #1  1  F102
                 93       1.428000  12.7097950

O #1  2  F102
                 94       1.428000  12.7097950

O #1  1  F030
                 95       1.428000  12.7097950

O #1  2  F030
                 96       1.428000  12.7097950

O #1  1  F021
                 97       1.428000  12.7097950

O #1  2  F021
                 98       1.428000  12.7097950

O #1  1  F012
                 99       1.428000  12.7097950

O #1  2  F012
                100       1.428000  12.7097950

O #1  1  F003
                101       1.428000  12.7097950

O #1  2  F003
                102       1.428000  12.7097950

H #2  1  S   
                103      34.061341   0.2556299   0.0000000   0.0000000
                104       5.123575   0.4613600   0.0000000   0.0000000
                105       1.164663   0.6811215   0.0000000   0.0000000
                106       0.327230   0.0000000   0.3083545   0.0000000
                107       0.103072   0.0000000   0.0000000   0.1296483

H #2  2  S   
                108      34.061341   0.2556299   0.0000000   0.0000000
                109       5.123575   0.4613600   0.0000000   0.0000000
                110       1.164663   0.6811215   0.0000000   0.0000000
                111       0.327230   0.0000000   0.3083545   0.0000000
                112       0.103072   0.0000000   0.0000000   0.1296483

H #2  1  X   
                113       1.407000   2.1842770   0.0000000
                114       0.388000   0.0000000   0.4364955

H #2  2  X   
                115       1.407000   2.1842770   0.0000000
                116       0.388000   0.0000000   0.4364955

H #2  1  Y   
                117       1.407000   2.1842770   0.0000000
                118       0.388000   0.0000000   0.4364955

H #2  2  Y   
                119       1.407000   2.1842770   0.0000000
                120       0.388000   0.0000000   0.4364955

H #2  1  Z   
                121       1.407000   2.1842770   0.0000000
                122       0.388000   0.0000000   0.4364955

H #2  2  Z   
                123       1.407000   2.1842770   0.0000000
                124       0.388000   0.0000000   0.4364955

H #2  1  XX  
                125       1.057000   3.1412414

H #2  2  XX  
                126       1.057000   3.1412414

H #2  1  XY  
                127       1.057000   3.1412414

H #2  2  XY  
                128       1.057000   3.1412414

H #2  1  XZ  
                129       1.057000   3.1412414

H #2  2  XZ  
                130       1.057000   3.1412414

H #2  1  YY  
                131       1.057000   3.1412414

H #2  2  YY  
                132       1.057000   3.1412414

H #2  1  YZ  
                133       1.057000   3.1412414

H #2  2  YZ  
                134       1.057000   3.1412414

H #2  1  ZZ  
                135       1.057000   3.1412414

H #2  2  ZZ  
                136       1.057000   3.1412414

SYMMETRY TRANSFORMATION INTO 90 SYMMETRY-ADAPTED BASIS FUNCTIONS

    IRREDUCIBLE REPRESENTATION NUMBER 1

    1    1 O #1 S      1   1.0   2   1.0
    2    2 O #1 S      3   1.0   4   1.0
    3    3 O #1 S      5   1.0   6   1.0
    4    4 O #1 S      7   1.0   8   1.0
    5    5 O #1 S      9   1.0  10   1.0
    6    6 O #1 X     11   1.0  12  -1.0
    7    7 O #1 X     13   1.0  14  -1.0
    8    8 O #1 X     15   1.0  16  -1.0
    9    9 O #1 Y     17   1.0  18  -1.0
   10   10 O #1 Y     19   1.0  20  -1.0
   11   11 O #1 Y     21   1.0  22  -1.0
   12   12 O #1 Z     23   1.0  24   1.0
   13   13 O #1 Z     25   1.0  26   1.0
   14   14 O #1 Z     27   1.0  28   1.0
   15   15 O #1 XX    29  -1.0  30  -1.0  41  -1.0  42  -1.0  49   2.0  50   2.0
   16   16 O #1 XX    31  -1.0  32  -1.0  43  -1.0  44  -1.0  51   2.0  52   2.0
   17   17 O #1 XY    33   1.0  34   1.0
   18   18 O #1 XY    35   1.0  36   1.0
   19   19 O #1 XZ    37   1.0  38  -1.0
   20   20 O #1 XZ    39   1.0  40  -1.0
   21   21 O #1 YY    29   1.0  30   1.0  41  -1.0  42  -1.0
   22   22 O #1 YY    31   1.0  32   1.0  43  -1.0  44  -1.0
   23   23 O #1 YZ    45   1.0  46  -1.0
   24   24 O #1 YZ    47   1.0  48  -1.0
   25   25 O #1 ZZ    53  -1.0  54   1.0  59  -1.0  60   1.0  63   4.0  64  -4.0
   26   26 O #1 ZZ    55  -1.0  56   1.0  65  -1.0  66   1.0  69   4.0  70  -4.0
   27   27 O #1 F300  57  -3.0  58  -3.0  67  -3.0  68  -3.0  71   2.0  72   2.0
   28   28 O #1 F210  53   1.0  54  -1.0  59  -3.0  60   3.0
   29   29 O #1 F201  61   1.0  62   1.0
   30   30 O #1 F120  55   3.0  56  -3.0  65  -1.0  66   1.0
   31   31 O #1 F111  57   1.0  58   1.0  67  -1.0  68  -1.0
   32   32 O #1 F102  73   1.0  74   1.0
   33   33 O #1 F030  75   1.0  76   1.0
   34   34 O #1 F021  77   1.0  78   1.0
   35   35 O #1 F012  79   1.0  80  -1.0
   36   36 O #1 F003  81   1.0  82  -1.0
   37   37 H #2 S     83   1.0  84  -1.0
   38   38 H #2 S     85   1.0  86  -1.0
   39   39 H #2 S     87   1.0  88   1.0
   40   40 H #2 X     89   1.0  90   1.0
   41   41 H #2 X     91  -1.0  92  -1.0  97  -1.0  98  -1.0 101   2.0 102   2.0
   42   42 H #2 Y     93   1.0  94   1.0
   43   43 H #2 Y     95   1.0  96  -1.0
   44   44 H #2 Z     91   1.0  92   1.0  97  -1.0  98  -1.0
   45   45 H #2 Z     99   1.0 100  -1.0
   46   46 H #2 XX     1   1.0   2  -1.0
   47   47 H #2 XY     3   1.0   4  -1.0
   48   48 H #2 XZ     5   1.0   6  -1.0
   49   49 H #2 YY     7   1.0   8  -1.0
   50   50 H #2 YZ     9   1.0  10  -1.0
   51   51 H #2 ZZ    11   1.0  12   1.0

    IRREDUCIBLE REPRESENTATION NUMBER 2

   52    1 O #1 S     13   1.0  14   1.0
   53    2 O #1 S     15   1.0  16   1.0
   54    3 O #1 S     17   1.0  18   1.0
   55    4 O #1 S     19   1.0  20   1.0
   56    5 O #1 S     21   1.0  22   1.0
   57    6 O #1 X     23   1.0  24  -1.0
   58    7 O #1 X     25   1.0  26  -1.0
   59    8 O #1 X     27   1.0  28  -1.0
   60    9 O #1 Y     29  -1.0  30   1.0  41  -1.0  42   1.0  49   2.0  50  -2.0
   61   10 O #1 Y     31  -1.0  32   1.0  43  -1.0  44   1.0  51   2.0  52  -2.0
   62   11 O #1 Y     33   1.0  34  -1.0
   63   12 O #1 Z     35   1.0  36  -1.0
   64   13 O #1 Z     37   1.0  38   1.0
   65   14 O #1 Z     39   1.0  40   1.0
   66   15 O #1 XX    29   1.0  30  -1.0  41  -1.0  42   1.0
   67   16 O #1 XX    31   1.0  32  -1.0  43  -1.0  44   1.0
   68   17 O #1 XY    45   1.0  46   1.0
   69   18 O #1 XY    47   1.0  48   1.0
   70   19 O #1 XZ    53  -1.0  54  -1.0  59  -1.0  60  -1.0  63   4.0  64   4.0
   71   20 O #1 XZ    55  -1.0  56  -1.0  65  -1.0  66  -1.0  69   4.0  70   4.0
   72   21 O #1 YY    57  -3.0  58   3.0  67  -3.0  68   3.0  71   2.0  72  -2.0
   73   22 O #1 YY    53   1.0  54   1.0  59  -3.0  60  -3.0
   74   23 O #1 YZ    61   1.0  62  -1.0
   75   24 O #1 YZ    55   3.0  56   3.0  65  -1.0  66  -1.0
   76   25 O #1 ZZ    57   1.0  58  -1.0  67  -1.0  68   1.0
   77   26 O #1 ZZ    73   1.0  74  -1.0
   78   27 O #1 F300  75   1.0  76  -1.0
   79   28 O #1 F210  77   1.0  78  -1.0
   80   29 O #1 F201  79   1.0  80   1.0
   81   30 O #1 F120  81   1.0  82   1.0
   82   31 O #1 F111  83   1.0  84   1.0
   83   32 O #1 F102  85   1.0  86   1.0
   84   33 O #1 F030  87   1.0  88  -1.0
   85   34 O #1 F021  89   1.0  90  -1.0
   86   35 O #1 F012  91  -1.0  92   1.0  97  -1.0  98   1.0 101   2.0 102  -2.0
   87   36 O #1 F003  93   1.0  94  -1.0
   88   37 H #2 S     95   1.0  96   1.0
   89   38 H #2 S     91   1.0  92  -1.0  97  -1.0  98   1.0
   90   39 H #2 S     99   1.0 100   1.0
   91   40 H #2 X   
   92   41 H #2 X   
   93   42 H #2 Y   
   94   43 H #2 Y   
   95   44 H #2 Z   
   96   45 H #2 Z   
   97   46 H #2 XX  
   98   47 H #2 XY  
   99   48 H #2 XZ  
  100   49 H #2 YY  
  101   50 H #2 YZ  
  102   51 H #2 ZZ  

NUCLEAR REPULSION ENERGY:   36.7540305068 A.U.

One-electron integrals took 0.013298 seconds

  @TWOEL-I,     946940 INTEGRALS OF SYMMETRY TYPE  I I I I
  @TWOEL-I,    1814825 INTEGRALS OF SYMMETRY TYPE  I J I J
  @TWOEL-I,     945905 INTEGRALS OF SYMMETRY TYPE  I I J J
  @TWOEL-I, TOTAL NUMBER OF 2-E INTEGRALS    3707670

Two-electron integrals took 3.505852 seconds

Nuclear repulsion energy: 36.754030506780
--executable xvmol finished with status     0 in        4.99 seconds (walltime).
 --invoking executable--
/project1/nike/cfour_v2.00beta_May2019xnmol_noLABBASIS/bin/xvmol2ja
--executable xvmol2ja finished with status     0 in        0.01 seconds (walltime).
 --invoking executable--
/project1/nike/cfour_v2.00beta_May2019xnmol_noLABBASIS/bin/xvscf
  There are   90 functions in the AO basis.

  There are 2 irreducible representations.

       Irrep        # of functions
         1                 45
         2                 45


  Parameters for SCF calculation: 
        SCF reference function: ROHF  
  Maximum number of iterations: ****
     Full symmetry point group: C2  
     Computational point group: C2  
        Initial density matrix: CORE                   
     SCF convergence tolerance: 10**(-14)
  DIIS convergence acceleration:  ON
          Latest start for DIIS:   5
                     DIIS order:   6

  Memory information:     426366 words required.
  Fock matrices are constructed from AO integral file.
 @GETMEM-I,  Allocated       3 MB of main memory.
  Initialization and symmetry analysis required      0.002 seconds.

  @INITGES-I, Occupancies from core Hamiltonian:

          Alpha population by irrep:   4    5
           Beta population by irrep:   4    4


 total no. of electrons in initial guess :  0.000000000000000E+000
 total no. of electrons in initial guess :  0.000000000000000E+000
  --------------------------------------------------------------------
  Iteration         Total Energy            Largest Density Difference
  --------------------------------------------------------------------
       0            36.754030506779642              0.0000000000D+00
   current occupation vector 
     4  5
     4  4
  processed                 946940  ao basis integrals from 
                  1579  buffers.
  processed                 945905  ao basis integrals from 
                  1577  buffers.
  processed                1814825  ao basis integrals from 
                  3025  buffers.
       1          -133.235384975313195              0.9060873322D+00
   current occupation vector 
     4  5
     4  4
  processed                 946940  ao basis integrals from 
                  1579  buffers.
  processed                 945905  ao basis integrals from 
                  1577  buffers.
  processed                1814825  ao basis integrals from 
                  3025  buffers.
       2          -137.330356375177303              0.3094190840D+01
   current occupation vector 
     5  4
     4  4
  processed                 946940  ao basis integrals from 
                  1579  buffers.
  processed                 945905  ao basis integrals from 
                  1577  buffers.
  processed                1814825  ao basis integrals from 
                  3025  buffers.
       3          -147.081415660992207              0.3093613202D+01
   current occupation vector 
     5  4
     5  3
  processed                 946940  ao basis integrals from 
                  1579  buffers.
  processed                 945905  ao basis integrals from 
                  1577  buffers.
  processed                1814825  ao basis integrals from 
                  3025  buffers.
       4          -148.674711203791446              0.1572719359D+01
   current occupation vector 
     6  3
     5  3
 
 sum over diagonal and offdiagdiagonal of C(T)*S*C for irrep
                     1
  7.868150575518484E-013 -3.095460978137517E-013
 reorthoganalization of MOs is carried out
 sum over diagonal and offdiagdiagonal of C(T)*S*C for irrep
                     1
  5.173639294753229E-014  2.744112270724353E-015
 
 sum over diagonal and offdiagdiagonal of C(T)*S*C for irrep
                     2
 -3.501643419667744E-013  2.044741125032786E-013
 reorthoganalization of MOs is carried out
 sum over diagonal and offdiagdiagonal of C(T)*S*C for irrep
                     2
  7.105427357601002E-015 -3.665742732016982E-014
  processed                 946940  ao basis integrals from 
                  1579  buffers.
  processed                 945905  ao basis integrals from 
                  1577  buffers.
  processed                1814825  ao basis integrals from 
                  3025  buffers.
       5          -150.042965174056803              0.1573156752D+01
   current occupation vector 
     5  4
     5  3
  processed                 946940  ao basis integrals from 
                  1579  buffers.
  processed                 945905  ao basis integrals from 
                  1577  buffers.
  processed                1814825  ao basis integrals from 
                  3025  buffers.
       6          -150.405746546037392              0.4618422911D-01
   current occupation vector 
     5  4
     5  3
  processed                 946940  ao basis integrals from 
                  1579  buffers.
  processed                 945905  ao basis integrals from 
                  1577  buffers.
  processed                1814825  ao basis integrals from 
                  3025  buffers.
       7          -150.410762763045966              0.4136891472D-02
   current occupation vector 
     5  4
     5  3
  processed                 946940  ao basis integrals from 
                  1579  buffers.
  processed                 945905  ao basis integrals from 
                  1577  buffers.
  processed                1814825  ao basis integrals from 
                  3025  buffers.
       8          -150.411023963849857              0.1362933074D-02
   current occupation vector 
     5  4
     5  3
  processed                 946940  ao basis integrals from 
                  1579  buffers.
  processed                 945905  ao basis integrals from 
                  1577  buffers.
  processed                1814825  ao basis integrals from 
                  3025  buffers.
       9          -150.411039337983595              0.3889812339D-03
   current occupation vector 
     5  4
     5  3
 
 sum over diagonal and offdiagdiagonal of C(T)*S*C for irrep
                     1
  2.057243264630415E-013 -6.567805116885534E-014
 reorthoganalization of MOs is carried out
 sum over diagonal and offdiagdiagonal of C(T)*S*C for irrep
                     1
  3.996802888650564E-015  1.989995986988587E-014
 
 sum over diagonal and offdiagdiagonal of C(T)*S*C for irrep
                     2
  1.585398479164724E-013 -1.184542603926259E-013
 reorthoganalization of MOs is carried out
 sum over diagonal and offdiagdiagonal of C(T)*S*C for irrep
                     2
 -2.087219286295294E-014  7.159154630975563E-016
  processed                 946940  ao basis integrals from 
                  1579  buffers.
  processed                 945905  ao basis integrals from 
                  1577  buffers.
  processed                1814825  ao basis integrals from 
                  3025  buffers.
      10          -150.411040996019210              0.2046806429D-03
   current occupation vector 
     5  4
     5  3
  processed                 946940  ao basis integrals from 
                  1579  buffers.
  processed                 945905  ao basis integrals from 
                  1577  buffers.
  processed                1814825  ao basis integrals from 
                  3025  buffers.
      11          -150.411041176744845              0.9177353762D-04
   current occupation vector 
     5  4
     5  3
  processed                 946940  ao basis integrals from 
                  1579  buffers.
  processed                 945905  ao basis integrals from 
                  1577  buffers.
  processed                1814825  ao basis integrals from 
                  3025  buffers.
      12          -150.411041189343791              0.2435041456D-04
   current occupation vector 
     5  4
     5  3
  processed                 946940  ao basis integrals from 
                  1579  buffers.
  processed                 945905  ao basis integrals from 
                  1577  buffers.
  processed                1814825  ao basis integrals from 
                  3025  buffers.
      13          -150.411041191031757              0.9998400421D-05
   current occupation vector 
     5  4
     5  3
  processed                 946940  ao basis integrals from 
                  1579  buffers.
  processed                 945905  ao basis integrals from 
                  1577  buffers.
  processed                1814825  ao basis integrals from 
                  3025  buffers.
      14          -150.411041191165282              0.2097884987D-05
   current occupation vector 
     5  4
     5  3
 
 sum over diagonal and offdiagdiagonal of C(T)*S*C for irrep
                     1
  2.801092691129270E-013 -5.636161206791011E-014
 reorthoganalization of MOs is carried out
 sum over diagonal and offdiagdiagonal of C(T)*S*C for irrep
                     1
  5.662137425588298E-014 -1.389011848994411E-014
 
 sum over diagonal and offdiagdiagonal of C(T)*S*C for irrep
                     2
  1.880717803715015E-013  1.510393526330724E-013
 reorthoganalization of MOs is carried out
 sum over diagonal and offdiagdiagonal of C(T)*S*C for irrep
                     2
  2.564615186884112E-014 -9.728323380295585E-015
  processed                 946940  ao basis integrals from 
                  1579  buffers.
  processed                 945905  ao basis integrals from 
                  1577  buffers.
  processed                1814825  ao basis integrals from 
                  3025  buffers.
      15          -150.411041191173695              0.4933775631D-06
   current occupation vector 
     5  4
     5  3
  processed                 946940  ao basis integrals from 
                  1579  buffers.
  processed                 945905  ao basis integrals from 
                  1577  buffers.
  processed                1814825  ao basis integrals from 
                  3025  buffers.
      16          -150.411041191174604              0.1498936412D-06
   current occupation vector 
     5  4
     5  3
  processed                 946940  ao basis integrals from 
                  1579  buffers.
  processed                 945905  ao basis integrals from 
                  1577  buffers.
  processed                1814825  ao basis integrals from 
                  3025  buffers.
      17          -150.411041191174718              0.2398607672D-07
   current occupation vector 
     5  4
     5  3
  processed                 946940  ao basis integrals from 
                  1579  buffers.
  processed                 945905  ao basis integrals from 
                  1577  buffers.
  processed                1814825  ao basis integrals from 
                  3025  buffers.
      18          -150.411041191173979              0.3676259574D-08
   current occupation vector 
     5  4
     5  3
  processed                 946940  ao basis integrals from 
                  1579  buffers.
  processed                 945905  ao basis integrals from 
                  1577  buffers.
  processed                1814825  ao basis integrals from 
                  3025  buffers.
      19          -150.411041191174661              0.1862013288D-08
   current occupation vector 
     5  4
     5  3
 
 sum over diagonal and offdiagdiagonal of C(T)*S*C for irrep
                     1
 -1.032507412901396E-014  1.047463726702158E-013
 reorthoganalization of MOs is carried out
 sum over diagonal and offdiagdiagonal of C(T)*S*C for irrep
                     1
  3.286260152890463E-014 -2.481148110275420E-014
 
 sum over diagonal and offdiagdiagonal of C(T)*S*C for irrep
                     2
  5.573319583618286E-014 -6.810441408079567E-014
 reorthoganalization of MOs is carried out
 sum over diagonal and offdiagdiagonal of C(T)*S*C for irrep
                     2
 -5.773159728050814E-015 -1.553984625954023E-013
  processed                 946940  ao basis integrals from 
                  1579  buffers.
  processed                 945905  ao basis integrals from 
                  1577  buffers.
  processed                1814825  ao basis integrals from 
                  3025  buffers.
      20          -150.411041191174093              0.1022085874D-08
   current occupation vector 
     5  4
     5  3
  processed                 946940  ao basis integrals from 
                  1579  buffers.
  processed                 945905  ao basis integrals from 
                  1577  buffers.
  processed                1814825  ao basis integrals from 
                  3025  buffers.
      21          -150.411041191174604              0.6025907915D-09
   current occupation vector 
     5  4
     5  3
  processed                 946940  ao basis integrals from 
                  1579  buffers.
  processed                 945905  ao basis integrals from 
                  1577  buffers.
  processed                1814825  ao basis integrals from 
                  3025  buffers.
      22          -150.411041191174377              0.2112251919D-09
   current occupation vector 
     5  4
     5  3
  processed                 946940  ao basis integrals from 
                  1579  buffers.
  processed                 945905  ao basis integrals from 
                  1577  buffers.
  processed                1814825  ao basis integrals from 
                  3025  buffers.
      23          -150.411041191174547              0.5526183244D-10
   current occupation vector 
     5  4
     5  3
  processed                 946940  ao basis integrals from 
                  1579  buffers.
  processed                 945905  ao basis integrals from 
                  1577  buffers.
  processed                1814825  ao basis integrals from 
                  3025  buffers.
      24          -150.411041191174604              0.2218970580D-10
   current occupation vector 
     5  4
     5  3
 
 sum over diagonal and offdiagdiagonal of C(T)*S*C for irrep
                     1
  1.263433802023428E-013 -7.651012581523387E-014
 reorthoganalization of MOs is carried out
 sum over diagonal and offdiagdiagonal of C(T)*S*C for irrep
                     1
 -2.775557561562891E-015 -7.093053741488833E-015
 
 sum over diagonal and offdiagdiagonal of C(T)*S*C for irrep
                     2
  2.261524301161444E-013 -2.907737716049904E-014
 reorthoganalization of MOs is carried out
 sum over diagonal and offdiagdiagonal of C(T)*S*C for irrep
                     2
  1.487698852997710E-014 -8.716492854920645E-014
  processed                 946940  ao basis integrals from 
                  1579  buffers.
  processed                 945905  ao basis integrals from 
                  1577  buffers.
  processed                1814825  ao basis integrals from 
                  3025  buffers.
      25          -150.411041191174093              0.6707532967D-11
   current occupation vector 
     5  4
     5  3
  processed                 946940  ao basis integrals from 
                  1579  buffers.
  processed                 945905  ao basis integrals from 
                  1577  buffers.
  processed                1814825  ao basis integrals from 
                  3025  buffers.
      26          -150.411041191173808              0.1060818100D-11
   current occupation vector 
     5  4
     5  3
  processed                 946940  ao basis integrals from 
                  1579  buffers.
  processed                 945905  ao basis integrals from 
                  1577  buffers.
  processed                1814825  ao basis integrals from 
                  3025  buffers.
      27          -150.411041191174093              0.2324460069D-12
   current occupation vector 
     5  4
     5  3
  processed                 946940  ao basis integrals from 
                  1579  buffers.
  processed                 945905  ao basis integrals from 
                  1577  buffers.
  processed                1814825  ao basis integrals from 
                  3025  buffers.
      28          -150.411041191174490              0.2293165657D-12
   current occupation vector 
     5  4
     5  3
  processed                 946940  ao basis integrals from 
                  1579  buffers.
  processed                 945905  ao basis integrals from 
                  1577  buffers.
  processed                1814825  ao basis integrals from 
                  3025  buffers.
      29          -150.411041191174604              0.1255874744D-12
   current occupation vector 
     5  4
     5  3
 
 sum over diagonal and offdiagdiagonal of C(T)*S*C for irrep
                     1
  2.464695114667848E-013  1.879747433241520E-014
 reorthoganalization of MOs is carried out
 sum over diagonal and offdiagdiagonal of C(T)*S*C for irrep
                     1
  3.985700658404312E-014 -9.679468215949085E-014
 
 sum over diagonal and offdiagdiagonal of C(T)*S*C for irrep
                     2
  3.763656053479281E-014 -3.042133421860697E-014
 reorthoganalization of MOs is carried out
 sum over diagonal and offdiagdiagonal of C(T)*S*C for irrep
                     2
  3.930189507173054E-014 -6.100835700863006E-015
  processed                 946940  ao basis integrals from 
                  1579  buffers.
  processed                 945905  ao basis integrals from 
                  1577  buffers.
  processed                1814825  ao basis integrals from 
                  3025  buffers.
      30          -150.411041191174263              0.5453276719D-13
   current occupation vector 
     5  4
     5  3
  processed                 946940  ao basis integrals from 
                  1579  buffers.
  processed                 945905  ao basis integrals from 
                  1577  buffers.
  processed                1814825  ao basis integrals from 
                  3025  buffers.
      31          -150.411041191174263              0.9364731213D-13
   current occupation vector 
     5  4
     5  3
  processed                 946940  ao basis integrals from 
                  1579  buffers.
  processed                 945905  ao basis integrals from 
                  1577  buffers.
  processed                1814825  ao basis integrals from 
                  3025  buffers.
      32          -150.411041191174206              0.4397870956D-13
   current occupation vector 
     5  4
     5  3
  processed                 946940  ao basis integrals from 
                  1579  buffers.
  processed                 945905  ao basis integrals from 
                  1577  buffers.
  processed                1814825  ao basis integrals from 
                  3025  buffers.
      33          -150.411041191174036              0.3413935801D-13
   current occupation vector 
     5  4
     5  3
  processed                 946940  ao basis integrals from 
                  1579  buffers.
  processed                 945905  ao basis integrals from 
                  1577  buffers.
  processed                1814825  ao basis integrals from 
                  3025  buffers.
      34          -150.411041191174093              0.3134298376D-13
   current occupation vector 
     5  4
     5  3
 
 sum over diagonal and offdiagdiagonal of C(T)*S*C for irrep
                     1
  3.053113317719180E-013  3.115739307479358E-014
 reorthoganalization of MOs is carried out
 sum over diagonal and offdiagdiagonal of C(T)*S*C for irrep
                     1
 -9.103828801926284E-015  1.788779578129404E-014
 
 sum over diagonal and offdiagdiagonal of C(T)*S*C for irrep
                     2
  7.605027718682322E-014  2.728576065859453E-014
 reorthoganalization of MOs is carried out
 sum over diagonal and offdiagdiagonal of C(T)*S*C for irrep
                     2
 -7.105427357601002E-015 -4.146441383473733E-014
  processed                 946940  ao basis integrals from 
                  1579  buffers.
  processed                 945905  ao basis integrals from 
                  1577  buffers.
  processed                1814825  ao basis integrals from 
                  3025  buffers.
      35          -150.411041191173922              0.1822153539D-13
   current occupation vector 
     5  4
     5  3
  processed                 946940  ao basis integrals from 
                  1579  buffers.
  processed                 945905  ao basis integrals from 
                  1577  buffers.
  processed                1814825  ao basis integrals from 
                  3025  buffers.
      36          -150.411041191174036              0.2660371923D-13
   current occupation vector 
     5  4
     5  3
  processed                 946940  ao basis integrals from 
                  1579  buffers.
  processed                 945905  ao basis integrals from 
                  1577  buffers.
  processed                1814825  ao basis integrals from 
                  3025  buffers.
      37          -150.411041191173865              0.2184363801D-13
   current occupation vector 
     5  4
     5  3
  processed                 946940  ao basis integrals from 
                  1579  buffers.
  processed                 945905  ao basis integrals from 
                  1577  buffers.
  processed                1814825  ao basis integrals from 
                  3025  buffers.
      38          -150.411041191173808              0.6342149028D-13
   current occupation vector 
     5  4
     5  3
  processed                 946940  ao basis integrals from 
                  1579  buffers.
  processed                 945905  ao basis integrals from 
                  1577  buffers.
  processed                1814825  ao basis integrals from 
                  3025  buffers.
      39          -150.411041191173979              0.4102274076D-13
   current occupation vector 
     5  4
     5  3
 
 sum over diagonal and offdiagdiagonal of C(T)*S*C for irrep
                     1
  2.864375403532904E-014 -1.464566854370272E-014
 reorthoganalization of MOs is carried out
 sum over diagonal and offdiagdiagonal of C(T)*S*C for irrep
                     1
 -4.818367926873179E-014  9.084891681030563E-014
 
 sum over diagonal and offdiagdiagonal of C(T)*S*C for irrep
                     2
  1.221245327087672E-013  7.867735516337963E-014
 reorthoganalization of MOs is carried out
 sum over diagonal and offdiagdiagonal of C(T)*S*C for irrep
                     2
  5.218048215738236E-015 -2.452000249068160E-014
  processed                 946940  ao basis integrals from 
                  1579  buffers.
  processed                 945905  ao basis integrals from 
                  1577  buffers.
  processed                1814825  ao basis integrals from 
                  3025  buffers.
      40          -150.411041191173979              0.3374384105D-13
   current occupation vector 
     5  4
     5  3
  processed                 946940  ao basis integrals from 
                  1579  buffers.
  processed                 945905  ao basis integrals from 
                  1577  buffers.
  processed                1814825  ao basis integrals from 
                  3025  buffers.
      41          -150.411041191174149              0.1020017404D-13
   current occupation vector 
     5  4
     5  3
  processed                 946940  ao basis integrals from 
                  1579  buffers.
  processed                 945905  ao basis integrals from 
                  1577  buffers.
  processed                1814825  ao basis integrals from 
                  3025  buffers.
      42          -150.411041191174149              0.2403632848D-13
   current occupation vector 
     5  4
     5  3

  SCF has converged.

 Density matrix saved to file den.dat
 total alpha spin electron number:   9.00000000000002     
 total  beta spin electron number:   8.00000000000003     
  processed                 946940  ao basis integrals from 
                  1579  buffers.
  processed                 945905  ao basis integrals from 
                  1577  buffers.
  processed                1814825  ao basis integrals from 
                  3025  buffers.
     E(ROHF)=      -150.411041191174149              0.9369241494D-14


  Final occupancies:

     Alpha population by irrep:   5    4
      Beta population by irrep:   5    3



       The average multiplicity is    2.0000000
  The expectation value of S**2 is    0.7500000

 @PUTMOS-I, Writing converged MOs to NEWMOS. 
 @PUTMOS-I, Symmetry   1 Full Blocks 11 Partial Blocksize   1
 @PUTMOS-I, Symmetry   2 Full Blocks 11 Partial Blocksize   1
  @DMPJOB-I, Rotating orbitals to semicanonical basis.
             *** Eigenvalues correspond to new basis. ***

--------------------------------------------------------------------------------
Eigenvalue    -21.098228    -21.097960     -1.913697     -1.659139     -1.137310
 Symmetry           A             B             A             B             B    
--------------------------------------------------------------------------------
   1 S         0.3080948     0.3081107     0.0696006     0.0722878     0.0230181
   1 S         0.4542734     0.4542278     0.1683881     0.1759482     0.0566085
   1 S         0.0147595     0.0156086    -0.2437102    -0.2649262    -0.0865126
   1 S        -0.0045953    -0.0062495    -0.3379661    -0.3583996    -0.1586926
   1 S         0.0017028     0.0025671    -0.0717555    -0.1168468    -0.1197598
   1 PX        0.0009240     0.0010201    -0.0459661     0.0585978     0.0146379
   1 PY        0.0010489     0.0010350    -0.0300678    -0.0517322     0.2939248
   1 PZ        0.0003712     0.0003679    -0.0156945    -0.0225210     0.0581187
   1 PX       -0.0003905    -0.0020493    -0.0514476     0.0434046     0.0120858
   1 PY       -0.0007061    -0.0006429    -0.0250788    -0.0421111     0.2411988
   1 PZ       -0.0002526    -0.0002043    -0.0128076    -0.0191309     0.0385591
   1 PX        0.0001331     0.0006181    -0.0045232     0.0017477    -0.0041305
   1 PY        0.0003283     0.0002269     0.0017305    -0.0028272     0.0749516
   1 PZ        0.0001194     0.0000820    -0.0000439    -0.0008226     0.0053036
   1 DX2      -0.0000411    -0.0000397    -0.0013279     0.0025108    -0.0014858
   1 DXY       0.0000090     0.0000061    -0.0001323     0.0009766     0.0025025
   1 DXZ       0.0000006     0.0000090     0.0001012     0.0006639    -0.0004461
   1 DY2       0.0000731     0.0000729     0.0000049    -0.0022091     0.0026528
   1 DYZ       0.0000828     0.0000958    -0.0019617    -0.0027193     0.0041727
   1 DZZ      -0.0000320    -0.0000332     0.0013230    -0.0003017    -0.0011669
   1 DX2       0.0000165    -0.0005125    -0.0058852     0.0052106    -0.0031957
   1 DXY      -0.0000830    -0.0001867    -0.0021622     0.0024780     0.0156173
   1 DXZ      -0.0000345    -0.0000797    -0.0013845     0.0006720    -0.0002700
   1 DY2      -0.0000256     0.0002616     0.0020135    -0.0048653     0.0053671
   1 DYZ      -0.0000429    -0.0000576    -0.0031246    -0.0054131     0.0067449
   1 DZZ       0.0000091     0.0002510     0.0038717    -0.0003453    -0.0021714
   1 FX3       0.0000120    -0.0000393    -0.0008671     0.0001709    -0.0000530
   1 FX2Y     -0.0000364    -0.0000260    -0.0002590     0.0002128     0.0020071
   1 FX2Z     -0.0000066    -0.0000172     0.0000036     0.0001194    -0.0001506
   1 FXY2     -0.0000390     0.0000415     0.0013721    -0.0002326     0.0001453
   1 FXYZ     -0.0000460    -0.0000666    -0.0000929     0.0004001     0.0003269
   1 FXZ2      0.0000029     0.0000764     0.0012292    -0.0002802     0.0000138
   1 FY3       0.0000073     0.0000065     0.0000676    -0.0000443    -0.0005100
   1 FY2Z      0.0000305     0.0000335    -0.0004049    -0.0005864     0.0005628
   1 FYZ2      0.0000144     0.0000065     0.0000563    -0.0000799    -0.0004769
   1 FZ3      -0.0000079    -0.0000054     0.0001338     0.0001557    -0.0001374
   2 S         0.3080948    -0.3081107     0.0696006    -0.0722878    -0.0230181
   2 S         0.4542734    -0.4542278     0.1683881    -0.1759482    -0.0566085
   2 S         0.0147595    -0.0156086    -0.2437102     0.2649262     0.0865126
   2 S        -0.0045953     0.0062495    -0.3379661     0.3583996     0.1586926
   2 S         0.0017028    -0.0025671    -0.0717555     0.1168468     0.1197598
   2 PX       -0.0009240     0.0010201     0.0459661     0.0585978     0.0146379
   2 PY       -0.0010489     0.0010350     0.0300678    -0.0517322     0.2939248
   2 PZ        0.0003712    -0.0003679    -0.0156945     0.0225210    -0.0581187
   2 PX        0.0003905    -0.0020493     0.0514476     0.0434046     0.0120858
   2 PY        0.0007061    -0.0006429     0.0250788    -0.0421111     0.2411988
   2 PZ       -0.0002526     0.0002043    -0.0128076     0.0191309    -0.0385591
   2 PX       -0.0001331     0.0006181     0.0045232     0.0017477    -0.0041305
   2 PY       -0.0003283     0.0002269    -0.0017305    -0.0028272     0.0749516
   2 PZ        0.0001194    -0.0000820    -0.0000439     0.0008226    -0.0053036
   2 DX2      -0.0000411     0.0000397    -0.0013279    -0.0025108     0.0014858
   2 DXY       0.0000090    -0.0000061    -0.0001323    -0.0009766    -0.0025025
   2 DXZ      -0.0000006     0.0000090    -0.0001012     0.0006639    -0.0004461
   2 DY2       0.0000731    -0.0000729     0.0000049     0.0022091    -0.0026528
   2 DYZ      -0.0000828     0.0000958     0.0019617    -0.0027193     0.0041727
   2 DZZ      -0.0000320     0.0000332     0.0013230     0.0003017     0.0011669
   2 DX2       0.0000165     0.0005125    -0.0058852    -0.0052106     0.0031957
   2 DXY      -0.0000830     0.0001867    -0.0021622    -0.0024780    -0.0156173
   2 DXZ       0.0000345    -0.0000797     0.0013845     0.0006720    -0.0002700
   2 DY2      -0.0000256    -0.0002616     0.0020135     0.0048653    -0.0053671
   2 DYZ       0.0000429    -0.0000576     0.0031246    -0.0054131     0.0067449
   2 DZZ       0.0000091    -0.0002510     0.0038717     0.0003453     0.0021714
   2 FX3      -0.0000120    -0.0000393     0.0008671     0.0001709    -0.0000530
   2 FX2Y      0.0000364    -0.0000260     0.0002590     0.0002128     0.0020071
   2 FX2Z     -0.0000066     0.0000172     0.0000036    -0.0001194     0.0001506
   2 FXY2      0.0000390     0.0000415    -0.0013721    -0.0002326     0.0001453
   2 FXYZ     -0.0000460     0.0000666    -0.0000929    -0.0004001    -0.0003269
   2 FXZ2     -0.0000029     0.0000764    -0.0012292    -0.0002802     0.0000138
   2 FY3      -0.0000073     0.0000065    -0.0000676    -0.0000443    -0.0005100
   2 FY2Z      0.0000305    -0.0000335    -0.0004049     0.0005864    -0.0005628
   2 FYZ2     -0.0000144     0.0000065    -0.0000563    -0.0000799    -0.0004769
   2 FZ3      -0.0000079     0.0000054     0.0001338    -0.0001557     0.0001374
   3 S         0.0001833     0.0002177    -0.0584518    -0.0804391     0.0905488
   3 S         0.0002326     0.0000174    -0.0468600    -0.0692737     0.1496490
   3 S        -0.0004041    -0.0001779     0.0011823     0.0004118     0.0091678
   3 PX        0.0000069     0.0000988    -0.0028090    -0.0012299     0.0031358
   3 PY        0.0001371     0.0001481     0.0098076     0.0126272    -0.0100783
   3 PZ        0.0000647     0.0000780     0.0058623     0.0074615    -0.0080848
   3 PX        0.0001234     0.0000836    -0.0023928     0.0003803     0.0133256
   3 PY       -0.0001751    -0.0000650     0.0081050     0.0098636    -0.0190700
   3 PZ       -0.0001249    -0.0000470     0.0045649     0.0068670    -0.0156467
   3 DX2       0.0000960     0.0000949     0.0008546     0.0014845    -0.0007224
[...]
    -------------------------------------------------------------------
        T1        AA    0.0000000000-0.0000000054    7        48
        T1        BB    0.0000000000 0.0000000024    6        48
        T2        AA    0.0000000000 0.0000000005    7    3   48    8
        T2        BB    0.0000000000 0.0000000016    3    2   48   47
        T2        AB    0.0000000000-0.0000000017    3    2   48   47
    -------------------------------------------------------------------
   The AA contribution to the correlation energy is:   -0.0550669 a.u.
   The BB contribution to the correlation energy is:   -0.0612329 a.u.
   The AB contribution to the correlation energy is:   -0.3887439 a.u.
   The total correlation energy is -0.505043643591 a.u.
   The total correlation energy is -0.505043643591 a.u.
  Current DIIS expansion coefficients : 
 [   1]-0.1443216988 [   2] 1.2416485052 [   3]-0.0005665007 [   4] 0.0715661533
 [   5]-0.1683264589
  Convergence information after    22 iterations: 
  Largest element of residual vector : -0.53742069E-08.
  Largest element of DIIS residual   : -0.30701228E-08.
  W(mnij) AA contribution =  0.0054346657 a.u.
  W(mnij) BB contribution =  0.0093079847 a.u.
  W(mnij) AB contribution =  0.0779366160 a.u.
  W(abef) AA contribution =  0.0069761674 a.u.
  W(abef) BB contribution =  0.0123791055 a.u.
  W(abef) AB contribution =  0.1022462053 a.u.
  W(mbej) AA contribution =  -0.0087998415 a.u.
  W(mbej) BB contribution =  -0.0181492008 a.u.
  W(mbej) AB contribution = -0.2355771316 a.u.
   After  23 iterations, amplitude changes are:
    -------------------------------------------------------------------
                 Spin      RMS          Max.      Max. change for
     Amplitude   Case     Change       Change       i    j    a    b
    -------------------------------------------------------------------
        T1        AA    0.0000000000-0.0000000028    7        48
        T1        BB    0.0000000000-0.0000000015    6        47
        T2        AA    0.0000000000 0.0000000002    3    2   49   48
        T2        BB    0.0000000000 0.0000000009    3    2   48   47
        T2        AB    0.0000000000-0.0000000010    4    4   48   47
    -------------------------------------------------------------------
   The AA contribution to the correlation energy is:   -0.0550669 a.u.
   The BB contribution to the correlation energy is:   -0.0612329 a.u.
   The AB contribution to the correlation energy is:   -0.3887439 a.u.
   The total correlation energy is -0.505043644059 a.u.
   The total correlation energy is -0.505043644059 a.u.
  Current DIIS expansion coefficients : 
 [   1]-0.0809055104 [   2]-0.0981634040 [   3] 1.1471138519 [   4]-0.0126596211
 [   5] 0.0446146836
  Convergence information after    23 iterations: 
  Largest element of residual vector : -0.27865298E-08.
  Largest element of DIIS residual   : -0.20059527E-08.
  W(mnij) AA contribution =  0.0054346657 a.u.
  W(mnij) BB contribution =  0.0093079848 a.u.
  W(mnij) AB contribution =  0.0779366162 a.u.
  W(abef) AA contribution =  0.0069761674 a.u.
  W(abef) BB contribution =  0.0123791056 a.u.
  W(abef) AB contribution =  0.1022462055 a.u.
  W(mbej) AA contribution =  -0.0087998415 a.u.
  W(mbej) BB contribution =  -0.0181492012 a.u.
  W(mbej) AB contribution = -0.2355771321 a.u.
   After  24 iterations, amplitude changes are:
    -------------------------------------------------------------------
                 Spin      RMS          Max.      Max. change for
     Amplitude   Case     Change       Change       i    j    a    b
    -------------------------------------------------------------------
        T1        AA    0.0000000000-0.0000000016    7        48
        T1        BB    0.0000000000-0.0000000008    6        47
        T2        AA    0.0000000000 0.0000000000    4    3   50   48
        T2        BB    0.0000000000 0.0000000004    3    2   48   47
        T2        AB    0.0000000000 0.0000000008    3    4   48   47
    -------------------------------------------------------------------
   The AA contribution to the correlation energy is:   -0.0550669 a.u.
   The BB contribution to the correlation energy is:   -0.0612329 a.u.
   The AB contribution to the correlation energy is:   -0.3887439 a.u.
   The total correlation energy is -0.505043643820 a.u.
   The total correlation energy is -0.505043643820 a.u.
  Current DIIS expansion coefficients : 
 [   1] 0.0427587625 [   2]-0.2704398115 [   3]-0.2620084758 [   4] 1.4898800687
 [   5]-0.0001905440
  Convergence information after    24 iterations: 
  Largest element of residual vector : -0.15572609E-08.
  Largest element of DIIS residual   :  0.96040037E-09.
  W(mnij) AA contribution =  0.0054346657 a.u.
  W(mnij) BB contribution =  0.0093079848 a.u.
  W(mnij) AB contribution =  0.0779366160 a.u.
  W(abef) AA contribution =  0.0069761674 a.u.
  W(abef) BB contribution =  0.0123791057 a.u.
  W(abef) AB contribution =  0.1022462053 a.u.
  W(mbej) AA contribution =  -0.0087998416 a.u.
  W(mbej) BB contribution =  -0.0181492013 a.u.
  W(mbej) AB contribution = -0.2355771317 a.u.
   After  25 iterations, amplitude changes are:
    -------------------------------------------------------------------
                 Spin      RMS          Max.      Max. change for
     Amplitude   Case     Change       Change       i    j    a    b
    -------------------------------------------------------------------
        T1        AA    0.0000000000-0.0000000007    7        48
        T1        BB    0.0000000000-0.0000000004    6        47
        T2        AA    0.0000000000 0.0000000000    7    3   48    9
        T2        BB    0.0000000000 0.0000000002    4    3   48   47
        T2        AB    0.0000000000 0.0000000005    3    4   48   47
    -------------------------------------------------------------------
   The AA contribution to the correlation energy is:   -0.0550669 a.u.
   The BB contribution to the correlation energy is:   -0.0612329 a.u.
   The AB contribution to the correlation energy is:   -0.3887439 a.u.
   The total correlation energy is -0.505043643967 a.u.
   The total correlation energy is -0.505043643967 a.u.
  Current DIIS expansion coefficients : 
 [   1] 0.0238999410 [   2]-0.0112129934 [   3]-0.2247045639 [   4]-0.0037677673
 [   5] 1.2157853836
  Convergence information after    25 iterations: 
  Largest element of residual vector : -0.67576911E-09.
  Largest element of DIIS residual   : -0.54130911E-09.
  Amplitude equations converged in    25iterations.
   The AA contribution to the correlation energy is:   -0.0550669 a.u.
   The BB contribution to the correlation energy is:   -0.0612329 a.u.
   The AB contribution to the correlation energy is:   -0.3887439 a.u.
   The total correlation energy is -0.505043643942 a.u.
   The total correlation energy is -0.505043643942 a.u.
   The CC iterations have converged.

            ----------------------------------------------
                     Projected spin multiplicities: 
            ----------------------------------------------
             <0|S^2|0>                  =    0.7500000000.
             <0|S^2 (T2+T1**2) |0>      =    0.0000000000.
             <0|S^2 T1|0>               =    0.0000000005.
             Projected <0|S^2 exp(T)|0> =    0.7500000005.
             Approximate spin mult.     =    2.0000000005.
            ----------------------------------------------
   Largest T1 amplitudes for spin case AA:
   i       a                 i       a                 i       a    
-----------------------------------------------------------------------------
[  5      48    ] 0.02386 [  6      48    ] 0.02127 [  2       9    ] 0.01874
[  3       9    ] 0.01788 [  3      24    ]-0.01300 [  4       9    ]-0.01197
[  2      23    ] 0.01022 [  4      12    ] 0.00994 [  3      23    ] 0.00969
[  3      11    ]-0.00934 [  6      51    ] 0.00922 [  4      24    ]-0.00904
[  4       8    ] 0.00851 [  3      18    ]-0.00844 [  5      51    ] 0.00836
-----------------------------------------------------------------------------
   Norm of T1AA vector (      283 symmetry allowed elements):  0.0632535714.
-----------------------------------------------------------------------------
   Largest T2 amplitudes for spin case AA:
   i   j   a   b             i   j   a   b             i   j   a   b
-----------------------------------------------------------------------------
[  4   3  58  48] 0.00932 [  4   3  54  48] 0.00878 [  7   3  48   9]-0.00834
[  7   3  48  17]-0.00792 [  5   3  48  18]-0.00731 [  7   3  48  15]-0.00669
[  4   3  50  48] 0.00649 [  7   4  52  11] 0.00642 [  3   2  18  17] 0.00626
[  4   3  52  48] 0.00619 [  4   2  11   9]-0.00581 [  7   6  52  49]-0.00577
[  3   2  12   9]-0.00566 [  7   4  48   9]-0.00552 [  7   3  62  18]-0.00547
-----------------------------------------------------------------------------
   Norm of T2AA vector (    34080 symmetry allowed elements):  0.0977793699.
-----------------------------------------------------------------------------
   Largest T1 amplitudes for spin case BB:
   i       a                 i       a                 i       a    
-----------------------------------------------------------------------------
[  6      47    ] 0.02466 [  4      10    ]-0.01360 [  6      48    ] 0.01291
[  4       9    ] 0.01248 [  6      51    ] 0.01244 [  3      17    ]-0.01123
[  3      23    ]-0.01008 [  6      50    ]-0.00967 [  6      49    ] 0.00933
[  2      23    ] 0.00843 [  2       8    ] 0.00840 [  3       9    ]-0.00838
[  5      50    ]-0.00774 [  2       7    ] 0.00760 [  1       7    ]-0.00723
-----------------------------------------------------------------------------
   Norm of T1BB vector (      244 symmetry allowed elements):  0.0548683668.
-----------------------------------------------------------------------------
   Largest T2 amplitudes for spin case BB:
   i   j   a   b             i   j   a   b             i   j   a   b
-----------------------------------------------------------------------------
[  4   3  48  47] 0.06995 [  4   2  48  47]-0.04551 [  4   2  49  47] 0.02670
[  3   2  48  47] 0.02401 [  4   3  51  47] 0.02347 [  4   3  50  47]-0.01683
[  4   3  49  47]-0.01495 [  4   2  53  47] 0.01468 [  4   3  52  48] 0.01429
[  4   2  54  47]-0.01272 [  5   4  47  12]-0.01214 [  4   1  48  47]-0.01124
[  3   2  54  48]-0.01041 [  3   2  49  47]-0.01019 [  5   4  47   7]-0.01001
-----------------------------------------------------------------------------
   Norm of T2BB vector (    24927 symmetry allowed elements):  0.1369420287.
-----------------------------------------------------------------------------
   Largest T2 amplitudes for spin case AB:
       _       _                 _       _                 _       _
   i   j   a   b             i   j   a   b             i   j   a   b
-----------------------------------------------------------------------------
[  3   4  48  47]-0.08719 [  4   4  48  47]-0.06377 [  3   3  48  48]-0.06110
[  4   3  48  48]-0.04969 [  3   2  48  48] 0.04696 [  7   4   9  47] 0.03859
[  3   4  49  47] 0.03222 [  3   3  48  47] 0.03143 [  2   4  48  47] 0.03062
[  3   2  48  49]-0.02595 [  4   4  51  47]-0.02590 [  2   2  48  48]-0.02519
[  4   2  48  48] 0.02415 [  4   4  50  47] 0.02302 [  1   4  48  47] 0.02300
-----------------------------------------------------------------------------
   Norm of T2AB vector (   139484 symmetry allowed elements):  0.3388374735.
-----------------------------------------------------------------------------
       Summary of iterative solution of CC equations 
      -----------------------------------------------------------
                       Correlation           Total
       Iteration         Energy              Energy
      -----------------------------------------------------------
            0        -0.518282001222    -150.929323192396  DIIS 
            1        -0.480414241701    -150.891455432875  DIIS 
            2        -0.507593275839    -150.918634467013  DIIS 
            3        -0.502984167576    -150.914025358750  DIIS 
            4        -0.504748111327    -150.915789302502  DIIS 
            5        -0.504991183950    -150.916032375125  DIIS 
            6        -0.505036217360    -150.916077408534  DIIS 
            7        -0.505042091500    -150.916083282674  DIIS 
            8        -0.505035279615    -150.916076470789  DIIS 
            9        -0.505045842020    -150.916087033194  DIIS 
           10        -0.505041650054    -150.916082841229  DIIS 
           11        -0.505043456549    -150.916084647723  DIIS 
           12        -0.505043262162    -150.916084453336  DIIS 
           13        -0.505043490795    -150.916084681969  DIIS 
           14        -0.505043587187    -150.916084778361  DIIS 
           15        -0.505043609514    -150.916084800689  DIIS 
           16        -0.505043653125    -150.916084844299  DIIS 
           17        -0.505043635383    -150.916084826557  DIIS 
           18        -0.505043649130    -150.916084840304  DIIS 
           19        -0.505043642510    -150.916084833685  DIIS 
           20        -0.505043643784    -150.916084834958  DIIS 
           21        -0.505043643557    -150.916084834731  DIIS 
           22        -0.505043643591    -150.916084834766  DIIS 
           23        -0.505043644059    -150.916084835233  DIIS 
           24        -0.505043643820    -150.916084834994  DIIS 
           25        -0.505043643942    -150.916084835116  DIIS 
      -----------------------------------------------------------
      A miracle has come to pass. The CC iterations have converged.
 @DIMT3-I, Dimensions of T3 amplitudes : 
               # abc          # ijk       Symmetry    Spin 
                    42680             16     1          1
                    42640             19     2          1
                   132880             60     1          2
                   132800             66     2          2
                   134520             52     1          3
                   134481             53     2          3
                    44320              8     1          4
                    44240             12     2          4
 @DIMT3-I, Dimensions of T3 amplitudes : 
               # abc          # ijk       Symmetry    Spin 
                    42680             16     1          1
                    42640             19     2          1
                   132880             60     1          2
                   132800             66     2          2
                   134520             52     1          3
                   134481             53     2          3
                    44320              8     1          4
                    44240             12     2          4
 @TRPS-I, Welcome to TRPS. Watch your RUs ! 
 @TRPS-I, Method is CCSD(T) 
 @TRPS-I, Calculation type is energy 
 @TRPS-I, Reference function information : 
          Reference function is general non-HF 
 @TRPS-I, Reference function is ROHF 
 @TRPS-I, INT1 is true 
 @TRPS-I, INT2 is false 
 @TRPS-I, Lengths of ijka integrals. #1       5955
                                     #2       3692
                                     #3      10204
                                     #4      12052
                                    Max      12052
 @INITRP-I, Initializing W intermediate lists. 
 @TSPABCI-I, AbIc/AbcI record transposition. 
 @TSPABCI-I, (O,v) ---> (v,O) transposition. 
 @TSPABCI-I, In-core algorithm is being used. 
 @TSPABCI-I, In-core algorithm is being used. 
 @TRPS-I, Available memory in integer words    499959040
          Number of pre-allocated words for TRPS14        36329
          Number of free words for TRPS14    499922711
 @TRPS14-I, Spin case AAA 
 @TRPS14-I, Number of free integer words  499922711
            Number of free double words   499922711
            Ratio                                 1
 @TRPS14-I, E4TAAA      -0.000324862875
 @TRPS14-I, E5ST A    0.000007118787173
 @TRPS14-I, E4ST A   -0.000004382677323
 @TRPS-I, Available memory in integer words    499959040
          Number of pre-allocated words for TRPS14        36323
          Number of free words for TRPS14    499922717
 @TRPS14-I, Spin case BBB 
 @TRPS14-I, Number of free integer words  499922717
            Number of free double words   499922717
            Ratio                                 1
 @TRPS14-I, E4TBBB      -0.000807734572
 @TRPS14-I, E5ST B    0.000014149112702
 @TRPS14-I, E4ST B   -0.000006074856657
 @SETOOOV-I, Some OOOV lists are being transposed. 
 @TRPS-I, Available memory in integer words    499959040
          Number of pre-allocated words for TRPS2       105110
          Number of free words for TRPS2    499853930
 @TRPS2-I, Spin case AAB 
 @TRPS2-I, Number of free integer words  499853930
           Number of free double  words  499853930
           Ratio                                 1
 @TRPS2-I, E4TBAA      -0.010422293584
 @TRPS2-I, E5ST A    0.000215885770851
 @TRPS2-I, E5ST B    0.000076800303419
 @TRPS2-I, E4ST A   -0.000012801606451
 @TRPS2-I, E4ST B   -0.000029490661224
 @SETOOOV-I, Some OOOV lists are being transposed. 
 @TSPABCI2-I, (Alpha,Beta) ---> (Beta,Alpha). 
 @TSPABCI2-I, In-core algorithm is being used. 
 @TSPABCI2-I, In-core algorithm is being used. 
 @TSPABCI2-I, In-core algorithm is being used. 
 @TSPABCI2-I, In-core algorithm is being used. 
 @AT2IAB-I, Some AbIj lists are being altered. 
 @TRPS-I, Available memory in integer words    499959040
          Number of pre-allocated words for TRPS3       250290
          Number of free words for TRPS3    499708750
 @TRPS3-I, Spin case BBA 
 @TRPS3-I, Number of free integer words  499708750
           Number of free double  words  499708750
           Ratio                                 1
 @TRPS3-I, E4TBBA      -0.013051041177
 @TRPS3-I, E5ST A    0.000441875202535
 @TRPS3-I, E5ST B    0.000186629777293
 @TRPS3-I, E4ST A   -0.000014052898290
 @TRPS3-I, E4ST B   -0.000159304653177
 @TSPABCI2-I, (Beta,Alpha) ---> (Alpha,Beta). 
 @TSPABCI2-I, In-core algorithm is being used. 
 @TSPABCI2-I, In-core algorithm is being used. 
 @TSPABCI2-I, In-core algorithm is being used. 
 @TSPABCI2-I, In-core algorithm is being used. 
 @AT2IAB-I, Some AbIj lists are being altered. 
 @TSPABCI-I, AbIc/AbcI record transposition. 
 @TSPABCI-I, (v,O) ---> (O,v) transposition. 
 @TSPABCI-I, In-core algorithm is being used. 
 @TSPABCI-I, In-core algorithm is being used. 
 @CCENRG-I, CCSD/QCISD energy will now be evaluated. 
 @CCENRG-I, Correlation energies. ECCAA       -0.055066886565
                                  ECCBB       -0.061232868156
                                  ECCAB       -0.388743889220
                                  Total       -0.505043643942
 @CCENRG-I, Reference   energy    -150.411041191174
            CCSD/QCISD energy     -150.916084835116
          E4T (T(CCSD)) = -0.024605932208
          E5ST          =  0.000628504980
          E4ST          = -0.000173357551
          In other words  
          <T3[2](Dagger) D3  T3[2]> = -0.024605932208
          <T1   (Dagger) Q1 WT3[2]> =  0.000628504980
          <T2   (Dagger) Q2 FT3[2]> = -0.000173357551
        E(CCSD)           =    -150.916084835116
        E(CCSD(T))        =    -150.940235619895
  @CHECKOUT-I, Total execution time (CPU/WALL):       47.80/      48.46 seconds.
--executable xvcc finished with status     0 in       48.77 seconds (walltime).
  The final electronic energy is      -150.940235619895219 a.u. 
  This computation required                           78.45 seconds (walltime).
--- SharcNET Job Epilogue ---
Job completed successfully.
               jobid: 1968082
               resid: 3436222
         exit status: 0
      allocated time: 79.507
           user time: 58.94
         system time: 4.71
peak rss=688955392; peak vsz=688955392 (bytes)
atime=79.507; utime=58.94; stime=4.71; exit=0
