 --invoking executable--
/home/nike/cfour_v2.00beta/cfour_v2.00beta/bin/xjoda


   *************************************************************************
         <<<     CCCCCC     CCCCCC   |||     CCCCCC     CCCCCC   >>>
       <<<      CCC        CCC       |||    CCC        CCC         >>>
      <<<      CCC        CCC        |||   CCC        CCC            >>>
    <<<        CCC        CCC        |||   CCC        CCC              >>>
      <<<      CCC        CCC        |||   CCC        CCC            >>>
       <<<      CCC        CCC       |||    CCC        CCC         >>>
         <<<     CCCCCC     CCCCCC   |||     CCCCCC     CCCCCC   >>>
   *************************************************************************

     ****************************************************************
     * CFOUR Coupled-Cluster techniques for Computational Chemistry *
     ****************************************************************
 

   Department of Chemistry                Institut fuer Physikalische Chemie
   University of Texas at Austin          Universitaet Mainz
   Austin, TX  78712, USA                 D-55099 Mainz, Germany
 
                       Version 2.00beta
 
                     blg8344.int.ets1.calculquebec.ca                  
                     So 1. Mär 16:02:53 EST 2020                      
                     integer*8 version is running
 
********************************************************************************
*                          Input from ZMAT file                                *
********************************************************************************
TITLE                                                                           
C        0.00000        0.00000        0.00000                                  
C        1.32760        0.00000        0.00000                                  
H       -0.53065        0.94329        0.00000                                  
H        1.92360        0.89910        0.00000                                  
H       -0.57705       -0.91280       -0.00000                                  
I        2.46117       -1.74754        0.00000                                  
                                                                                
*ACES2(CALC=CCSD(T)                                                             
#UNITS=BOHR                                                                     
#GEOM=2.6729874*10/5.29177210903_Pentasilane_def2-QZVP_pbe                      
COORD=CARTESIAN                                                                 
#COORD=INTERNAL                                                                 
PRINT=4                                                                         
JODA_PRINT=4                                                                    
INPUT_MRCC=OFF                                                                  
#CC_PROG=MRCC                                                                   
#FROZEN_CORE=ON                                                                 
DROPMO=1>34                                                                     
CONTRACTION=GENERAL                                                             
#CONTRACTION=SEGMENTED                                                          
RELATIVISTIC=OFF                                                                
#EXCITE=EOMEE                                                                   
#ESTATE_CONV=5                                                                  
#ESTATE_SYM=2/2/2/2/2/2/2/2                                                     
XFORM_TOL=18                                                                    
SAVE_INTS=ON                                                                    
SCF_EXPORDER=6                                                                  
SCF_EXPSTART=5                                                                  
#SCF_DAMPING=1000                                                               
SCF_EXTRAPOLATION=ON                                                            
SCF_CONV=12                                                                     
SCF_MAXCYC=99999                                                                
CC_CONV=9                                                                       
CC_MAXCYC=999                                                                   
T3_EXTRAPOL=ON                                                                  
REFERENCE=RHF                                                                   
#SYMMETRY=OFF                                                                   
#HFSTABILITY=FOLLOW                                                             
CHARGE=+0                                                                       
MULT=1                                                                          
ABCDTYPE=STANDARD                                                               
#OCCUPATION=3-2-2-0-1-0-0-0/3-1-1-0-1-0-0-0                                     
MEM=12                                                                          
MEM_UNIT=GB                                                                     
ECP=ON                                                                          
BASIS=SPECIAL)                                                                  
                                                                                
C:def2-TZVPP                                                                    
C:def2-TZVPP                                                                    
H:def2-TZVPP                                                                    
H:def2-TZVPP                                                                    
H:def2-TZVPP                                                                    
I:def2-TZVPP                                                                    
                                                                                
C:def2-TZVPP                                                                    
C:def2-TZVPP                                                                    
H:def2-TZVPP                                                                    
H:def2-TZVPP                                                                    
H:def2-TZVPP                                                                    
I:def2-TZVPP                                                                    
                                                                                
********************************************************************************
  @GTFLGS-W, Keyword #UNITS not known and is ignored.
  @GTFLGS-W, Keyword #GEOM not known and is ignored.
  @GTFLGS-W, Keyword #COORD not known and is ignored.
  @GTFLGS-W, Keyword #CC_PROG not known and is ignored.
  @GTFLGS-W, Keyword #FROZEN_CORE not known and is ignored.
  @GTFLGS-W, Keyword #CONTRACTION not known and is ignored.
  @GTFLGS-W, Keyword #EXCITE not known and is ignored.
  @GTFLGS-W, Keyword #ESTATE_CONV not known and is ignored.
  @GTFLGS-W, Keyword #ESTATE_SYM not known and is ignored.
  @GTFLGS-W, Keyword #SCF_DAMPING not known and is ignored.
  @GTFLGS-W, Keyword #SYMMETRY not known and is ignored.
  @GTFLGS-W, Keyword #HFSTABILITY not known and is ignored.
  @GTFLGS-W, Keyword #OCCUPATION not known and is ignored.
    -------------------------------------------------------------------
                    CFOUR Control Parameters 
    -------------------------------------------------------------------
        External           Internal           Value            Units
          Name               Name
    -------------------------------------------------------------------
       ABCDTYPE             IABCDT         STANDARD     [  0]   ***   
       ANHARMONIC           IANHAR         OFF          [  0]   ***   
       ANH_ALGORIT          IANALG         STANDARD     [  0]   ***   
       ANH_DERIVAT          IANDER         SECOND       [  1]   ***   
       ANH_STEPSIZ          ICUBST             50000          x 10-6  
       ANH_SYMMETR          IANHSM         ABELIAN      [  0]   ***   
       AO_LADDERS           IAOLAD         SINGLEPASS   [  1]   ***   
       BASIS                IBASIS         SPECIAL      [  0]   ***   
       BREIT                IBREIT         OFF          [  0]   ***   
       BRUCK_CONV           IBRTOL          10D-  4             ***   
       BRUECKNER            IBRKNR             OFF      [  0]   ***   
       BUFFERSIZE           IBUFFS            600               ***   
       CACHE_RECS           ICHREC             10               ***   
       CALCLEVEL            ICLLVL           CCSD(T)    [ 22]   ***   
       CCORBOPT             ICCORB             OFF      [  0] x 0.01  
       CC_CONV              ICCCNV          10D-  9             ***   
       CC_EXPORDER          ICCEOR              5               ***   
       CC_EXTRAPOL          ICCEXT             DIIS     [  1]   ***   
       CC_MAXCYC            ICCCYC            999              cycles 
       CC_PROGRAM           ICCPRO         VCC          [  0]   ***   
       CHARGE               ICHRGE              0               ***   
       CHOLESKY             ICHOLE         OFF          [  0]   ***   
       CIS_CONV             ICISTL              5               ***   
       COMM_SIZE            IPSIZE            ***               ***   
       CONSTANT             ICONST         OLD          [  1]   ***   
       CONTINUUM            ICONTU         NONE         [  0]   ***   
       CONTRACTION          ICNTYP          GENERAL     [  1]   ***   
       COORDINATES          ICOORD         CARTESIAN    [  1]   ***   
       CPHF_CONVER          ICPHFT          10D- 16             ***   
       CPHF_MAXCYC          ICPHFC             64              cycles 
       CUBIC                ICUBIC         OFF          [  0]   ***   
       CURVILINEAR          ICURVY            OFF       [  0]   ***   
       DBOC                 IDBOC          OFF          [  0]   ***   
       DCT                  IDCT           OFF          [  0]   ***   
       DERIV_LEV            IDRLVL            ZERO      [  0]   ***   
       DIAG_MRCC            IEOMST          10D-  0             ***   
       DIFF_TYPE            IDIFTY         RELAXED      [  0]   ***   
       DIRECT               IDIRCT         OFF          [  0]   ***   
       DROPMO               IDRPMO   1,  2,  3,  4,  5,  6,  7,  8,
                                     9, 10, 11, 12, 13, 14, 15, 16,
                                    17, 18, 19, 20, 21, 22, 23, 24,
                                    25, 26, 27, 28, 29, 30, 31, 32,
                                    33, 34,
       ECP                  IECP           ON           [  1]   ***   
       EIGENVECTOR          IVEC                1               ***   
       EL_ANHARM            IELANH         OFF          [  0]   ***   
       EOMFOLLOW            IEOMSR         ENERGY       [  0]   ***   
       EOM_MRCC             IMRCCE         NEW          [  1]   ***   
       EOM_NONIT            EOMNON         OFF          [  0]   ***   
       EOM_NSING            IEOMSI          10D-  0             ***   
       EOM_NSTATES          IMRCCD         DAVIDSON     [  0]   ***   
       EOM_NTRIP            IEOMTR          10D-  0             ***   
       EOM_ORDER            IEXORD         ENERGY       [  0]   ***   
       ESTATE_CONV          IEXTOL          10D-  5             ***   
       ESTATE_DIAG          IEXDIG         ITERATIVE    [  0]   ***   
       ESTATE_LOCK          IESLOC         ON           [  1]   ***   
       ESTATE_MAXC          IEXMXC             20               ***   
       ESTATE_PROP          IEXPRP         OFF          [  0]   ***   
       EVAL_HESS            IRECAL              0            # of cyc.
       EXCITATION           IEXCIT              0               ***   
       EXCITE               IEXCIT         NONE         [  0]   ***   
       FCGRADNEW            IFCGNW         OFF          [  0]   ***   
       FC_FIELD             IFINFC              0             x 10-6  
       FD_CALTYPE           IFDCAL         GRADONLY     [  0]   ***   
       FD_PROJECT           IFDPRJ         OFF          [  1]   ***   
       FD_STEPSIZE          IDISFD              0            10-4 bohr
       FD_USEGROUP          IFDGRP         FULL         [  0]   ***   
       FILE_RECSIZ          IFLREC              4096           words  
       FINITE_PERT          IFIPER              0             x 10-6  
       FIXGEOM              IFIXGM         OFF          [  0]   ***   
       FOCK                 IFOCK          AO           [  1]   ***   
       FREQ_ALGORI          IVIALG         STANDARD     [  0]   ***   
       FROZEN_CORE          IFROCO         OFF          [  0]   ***   
       FROZEN_VIRT          IFROVI         OFF          [  0]   ***   
       GAMMA_ABCD           IGABCD         STORE        [  0]   ***   
       GAMMA_ABCI           IGABCI         STORE        [  0]   ***   
       GENBAS_1             IGNBS1              0               ***   
       GENBAS_2             IGNBS2              0               ***   
       GENBAS_3             IGNBS3              0               ***   
       GENBAS_4             IGNBS4              0               ***   
       GEO_CONV             ICONTL              5              H/bohr 
       GEO_MAXCYC           IOPTCY             50               ***   
       GEO_MAXSTEP          IMXSTP            300            millibohr
       GEO_METHOD           INR            SINGLE_POINT [  5]   ***   
       GIAO                 IGIAO          OFF          [  1]   ***   
       GIMIC                IGIMIC         OFF          [  0]   ***   
       GRID                 IGRID          OFF          [  0]   ***   
       GRID_ALGO            IGALGO         SERIAL       [  0]   ***   
       GUESS                IGUESS            MOREAD    [  0]   ***   
       HBAR                 IHBAR              OFF      [  0]   ***   
       HESS_TYPE            IHESTP         SCF          [  0]   ***   
       HF2_FILE             IHF2Fl         USE          [  1]   ***   
       HFSTABILITY          ISTABL         OFF          [  0]   ***   
       INCORE               INCORE             OFF      [  0]   ***   
       INPUT_MRCC           IMRCC          OFF          [  0]   ***   
       INTEGRALS            INTTYP             VMOL     [  1]   ***   
       JODA_PRINT           IJPRNT              4               ***   
       LINDEP_TOL           ILINDP              8               ***   
       LINEQ_CONV           IZTACN          10D-  7           cycles  
       LINEQ_EXPOR          ILMAXD              5               ***   
       LINEQ_MAXCY          ILMAXC             50               ***   
       LINEQ_TYPE           ILTYPE         DIIS         [  1]   ***   
       LOCK_ORBOCC          ILOCOC             OFF      [  0]   ***   
       MEMORY_SIZE          IMEMSZ         *********           words  
       MEM_UNIT             IMEMU          GB           [  3]   ***   
       MRCC                 IMRCCC         OFF          [  0]   ***   
       MULTIPLICTY          IMULTP              1               ***   
       NEGEVAL              IDIE             ABORT      [  0]   ***   
       NEWNORM              INEWNO         OFF          [  0]   ***   
       NON-HF               INONHF             OFF      [  0]   ***   
       NTOP_TAMP            ITOPT2             15               ***   
       NUC_MODEL            INUCMO         POINT        [  0]   ***   
       OCCUPATION           IOCCU   ESTIMATED BY SCF 
       OPEN-SHELL           IOPEN          SPIN-ORBITAL [  0]   ***   
       ORBITALS             IORBTP           STANDARD   [  0]   ***   
       PARALLEL             IPARAL         ON           [  1]   ***   
       PARA_INT             IPINTS         ON           [  1]   ***   
       PARA_PRINT           IPPRIN              0               ***   
       PERT_ORB             IPTORB         STANDARD     [  0]   ***   
       POINTS               IGRDFD              0               ***   
       PRINT                IPRNT               4               ***   
       PROPS                IPROPS             OFF      [  0]   ***   
       PROP_INTEGR          IINTYP         INTERNAL     [  0]   ***   
       PSI                  IPSI           OFF          [  0]   ***   
       QUARTIC              IQUART         OFF          [  0]   ***   
       RAMAN_INT            IRAMIN         OFF          [  0]   ***   
       RAMAN_ORB            IRAMRE         UNRELAXED    [  0]   ***   
       RDO                  IRDOFM             OFF      [  0]   ***   
       REFERENCE            IREFNC             RHF      [  0]   ***   
       RELATIVIST           IRELAT         OFF          [  0]   ***   
       RELAX_DENS           IRDENS             OFF      [  0]   ***   
       RESET_FLAGS          IRESET             OFF      [  0]   ***   
       RESTART_CC           ICCRES         OFF          [  0]   ***   
       ROT_EVEC             ROTVEC              0               ***   
       SAVE_INTS            ISVINT              ON      [  1]   ***   
       SCALE_ON             ISTCRT              0               ***   
       SCF_CONV             ISCFCV          10D- 12             ***   
       SCF_DAMPING          IDAMP               0             x 10-3  
       SCF_EXPORDE          IRPPOR              6               ***   
       SCF_EXPSTAR          IRPPLS              5               ***   
       SCF_EXTRAPO          IRPP                ON      [  1]   ***   
       SCF_MAXCYC           ISCFCY            ***              cycles 
       SCF_NOSTOP           ISCFST         OFF          [  0]   ***   
       SCF_PRINT            ISCFPR              0               ***   
       SD_FIELD             IFINSD              0             x 10-6  
       SEQUENCE             ISEQUE         OFF          [  0]   ***   
       SOPERT               IPERSO         OFF          [  0]   ***   
       SPHERICAL            IDFGHI             ON       [  1]   ***   
       SPINORBIT            ISOCAL         OFF          [  0]   ***   
       SPINROTATIO          ISRCON         OFF          [  0]   ***   
       SPIN_FLIP            ISPFLP         OFF          [  0]   ***   
       SPIN_ORBIT           ISPORB         OFF          [  0]   ***   
       SPIN_SCAL            ISCSMP         OFF          [  0]   ***   
       SUBGROUP             ISUBGP         DEFAULT      [  0]   ***   
       SUBGRPAXIS           ISBXYZ         X            [  0]   ***   
       SYMMETRY             ISYM             ON         [  0]   ***   
       SYM_CHECK            ISYMCK         OVERRIDE     [  1]   ***   
       T3_EXTRAPOL          IT3EXT         ON           [  1]   ***   
       TAMP_SUM             IEVERY              5               ***   
       TESTSUITE            ITESTS         OFF          [  0]   ***   
       THERMOCH             ITHERM         OFF          [  0]   ***   
       TOL_CHOLESK          ITOLCH          10D-  4             ***   
       TRANGRAD             IRESRM         OFF          [  0]   ***   
       TRANS_INV            ITRAIN         USE          [  0]   ***   
       TREAT_PERT           ITREAT         SIMULTANEOUS [  0]   ***   
       UIJ_THRESHO          IUIJTH              1               ***   
       UNITS                IUNITS         ANGSTROM     [  0]   ***   
       UNOS                 IUNOS          OFF          [  0]   ***   
       UPDATE_HESS          IHUPDT         ON           [  1]   ***   
       VIBPHASE             ISETPH         STANDARD     [  0]   ***   
       VIBRATION            IVIB              NO        [  0]   ***   
       VIB_ALGORIT          IGEALG         STANDARD     [  0]   ***   
       VNATORB              IVNORB         OFF          [  0]   ***   
       VTRAN                IVTRAN         FULL/PARTIAL [  0]   ***   
       XFIELD               IXEFLD              0             x 10-6  
       XFORM_TOL            IXFTOL          10D- 18             ***   
       YFIELD               IYEFLD              0             x 10-6  
       ZFIELD               IZEFLD              0             x 10-6  
    -------------------------------------------------------------------
  @GETXYZ-I,     6 atoms read from ZMAT.
  1  C          6    12.00000
  2  C          6    12.00000
  3  H          1     1.00783
  4  H          1     1.00783
  5  H          1     1.00783
  6  I         53   126.90447
  1  C          6    12.00000
  2  C          6    12.00000
  3  H          1     1.00783
  4  H          1     1.00783
  5  H          1     1.00783
  6  I         53   126.90447
   12.0000000000
   12.0000000000
    1.0078250350
    1.0078250350
    1.0078250350
  126.9044730000
 After translation to center of mass coordinates 
       -4.040100419726    2.711109017911    0.000000000000
       -1.531299490888    2.711109017911    0.000000000000
       -5.042883797918    4.493669147591    0.000000000000
       -0.405022484570    4.410162132643    0.000000000000
       -5.130567108477    0.986166649845    0.000000000000
        0.610837801146   -0.591263666017    0.000000000000
  Inertia tensor (amu*bohr**2)
  261.70050  256.82743    0.00000
  256.82743  323.68212    0.00000
    0.00000    0.00000  585.38263
    Inertia tensor:
      261.700502631718  256.827429012406    0.000000000000
      256.827429012406  323.682123980474    0.000000000000
        0.000000000000    0.000000000000  585.382626612192
    Principal axis orientation for molecular system: 
       -4.821614594643   -0.651579779611    0.000000000000
       -2.944368519286    1.012760712325    0.000000000000
       -6.754513338637    0.016998985361    0.000000000000
       -3.228768847237    3.031274481191    0.000000000000
       -4.493243735005   -2.665708958925    0.000000000000
        0.849312873393   -0.037191197200    0.000000000000
    Diagonalized inertia tensor:
       34.000844522691    0.000000000000    0.000000000000
        0.000000000000  551.381782089501    0.000000000000
        0.000000000000    0.000000000000  585.382626612192
    Eigenvectors of inertia tensor: 
        0.748264261934    0.663400779554    0.000000000000
       -0.663400779554    0.748264261934    0.000000000000
        0.000000000000    0.000000000000    1.000000000000
 factor:   60.1997200000000     
   Rotational constants (in cm-1): 
          0.1028382416             0.1091797407             1.7705360218
   Rotational constants (in MHz): 
       3083.0133553069          3273.1267416395         53079.3420323884
  @SYMMETRY-I, Handedness of inertial frame: 1.00000
  @SYMMETRY-I, The symmetry group is 1-fold degenerate.
  @SYMMETRY-I, The molecule belongs to an Abelian group.
   Principal axis orientation for molecule:
       -4.821614594643   -0.651579779611    0.000000000000
       -2.944368519286    1.012760712325    0.000000000000
       -6.754513338637    0.016998985361    0.000000000000
       -3.228768847237    3.031274481191    0.000000000000
       -4.493243735005   -2.665708958925    0.000000000000
        0.849312873393   -0.037191197200    0.000000000000
   Reflection in plane  3 is a valid symmetry operation.
  Symmetry bits:    4   0   0
********************************************************************************
   The full molecular point group is C s .
   The largest Abelian subgroup of the full molecular point group is C s .
   The computational point group is C s .
********************************************************************************
 ----------------------------------------------------------------
 Z-matrix   Atomic            Coordinates (in bohr)
  Symbol    Number           X              Y              Z
 ----------------------------------------------------------------
     C         6        -4.82161459    -0.65157978     0.00000000
     C         6        -2.94436852     1.01276071     0.00000000
     H         1        -6.75451334     0.01699899     0.00000000
     H         1        -3.22876885     3.03127448     0.00000000
     H         1        -4.49324374    -2.66570896     0.00000000
     I        53         0.84931287    -0.03719120     0.00000000
 ----------------------------------------------------------------
   Interatomic distance matrix (Angstroms) 
 
                 C             C             H             H             H    
                [ 1]        [ 2]        [ 3]        [ 4]        [ 5]
  C    [ 1]     0.00000
  C    [ 2]     1.32760     0.00000
  H    [ 3]     1.08231     2.08396     0.00000
  H    [ 4]     2.12335     1.07870     2.45465     0.00000
  H    [ 5]     1.07990     2.11208     1.85667     3.08808     0.00000
  I    [ 6]     3.01849     2.08300     4.02387     2.70068     3.15080
 
                 I    
                [ 6]
  I    [ 6]     0.00000
  Inertia tensor (amu*bohr**2)
   34.00084    0.00000    0.00000
    0.00000  551.38178    0.00000
    0.00000    0.00000  585.38263
   Rotational constants (in cm-1): 
          1.7705360218             0.1091797407             0.1028382416
   Rotational constants (in MHz): 
      53079.3420323884          3273.1267416395          3083.0133553069
  @GTFLGS-W, Keyword #UNITS not known and is ignored.
  @GTFLGS-W, Keyword #GEOM not known and is ignored.
  @GTFLGS-W, Keyword #COORD not known and is ignored.
  @GTFLGS-W, Keyword #CC_PROG not known and is ignored.
  @GTFLGS-W, Keyword #FROZEN_CORE not known and is ignored.
  @GTFLGS-W, Keyword #CONTRACTION not known and is ignored.
  @GTFLGS-W, Keyword #EXCITE not known and is ignored.
  @GTFLGS-W, Keyword #ESTATE_CONV not known and is ignored.
  @GTFLGS-W, Keyword #ESTATE_SYM not known and is ignored.
  @GTFLGS-W, Keyword #SCF_DAMPING not known and is ignored.
  @GTFLGS-W, Keyword #SYMMETRY not known and is ignored.
  @GTFLGS-W, Keyword #HFSTABILITY not known and is ignored.
  @GTFLGS-W, Keyword #OCCUPATION not known and is ignored.
  There are  154 basis functions.
 @GEOPT-W, Archive file not created for single-point calculation.
  @CHECKOUT-I, Total execution time (CPU/WALL):        0.73/       1.65 seconds.
--executable xjoda finished with status     0 in        3.84 seconds (walltime).
 --invoking executable--
/home/nike/cfour_v2.00beta/cfour_v2.00beta/bin/xvmol
 Serial version of molecule started
********************************************************************************
                    Input from MOL file
********************************************************************************
INTGRL        1    0    1    1    0    0    0    0    0                         
         *** CFOUR Program System (Release V0.1) ***                            
TITLE                                                                           
    6    1 Z          0.10E-08              0    0                              
   9999.00      3.00                                                            
          6.00000000    1    4    1    1    1    1                              
C #1  -4.821614594642513  -0.651579779611357   0.000000000000000                
   11    5                                                                      
   13575.3496820000       2.224581435200000E-004  0.000000000000000E+000        
  0.000000000000000E+000  0.000000000000000E+000  0.000000000000000E+000        
   2035.23336800000       1.723273825200000E-003  0.000000000000000E+000        
  0.000000000000000E+000  0.000000000000000E+000  0.000000000000000E+000        
   463.225623590000       8.925571531400001E-003  0.000000000000000E+000        
  0.000000000000000E+000  0.000000000000000E+000  0.000000000000000E+000        
   131.200195980000       3.572798450200000E-002  0.000000000000000E+000        
  0.000000000000000E+000  0.000000000000000E+000  0.000000000000000E+000        
   42.8530158910000       0.110762599310000       0.000000000000000E+000        
  0.000000000000000E+000  0.000000000000000E+000  0.000000000000000E+000        
   15.5841857660000       0.242956276260000       0.000000000000000E+000        
  0.000000000000000E+000  0.000000000000000E+000  0.000000000000000E+000        
   6.20671385080000       0.000000000000000E+000  0.414402634480000             
  0.000000000000000E+000  0.000000000000000E+000  0.000000000000000E+000        
   2.57648965270000       0.000000000000000E+000  0.237449686550000             
  0.000000000000000E+000  0.000000000000000E+000  0.000000000000000E+000        
  0.576963394190000       0.000000000000000E+000  0.000000000000000E+000        
   1.00000000000000       0.000000000000000E+000  0.000000000000000E+000        
  0.229728313580000       0.000000000000000E+000  0.000000000000000E+000        
  0.000000000000000E+000   1.00000000000000       0.000000000000000E+000        
  9.516444002799999E-002  0.000000000000000E+000  0.000000000000000E+000        
  0.000000000000000E+000  0.000000000000000E+000   1.00000000000000             
    6    3                                                                      
   34.6972322440000       5.333365780500000E-003  0.000000000000000E+000        
  0.000000000000000E+000                                                        
   7.95826228260000       3.586410909200000E-002  0.000000000000000E+000        
  0.000000000000000E+000                                                        
   2.37808268830000       0.142158733290000       0.000000000000000E+000        
  0.000000000000000E+000                                                        
  0.814332081830000       0.342704718450000       0.000000000000000E+000        
  0.000000000000000E+000                                                        
  0.288875472530000       0.000000000000000E+000  0.464458224330000             
  0.000000000000000E+000                                                        
  0.100568236710000       0.000000000000000E+000  0.000000000000000E+000        
  0.249557898740000                                                             
    2    2                                                                      
   1.09700000000000        1.00000000000000       0.000000000000000E+000        
  0.318000000000000       0.000000000000000E+000   1.00000000000000             
    1    1                                                                      
  0.761000000000000        1.00000000000000                                     
          6.00000000    1    4    1    1    1    1                              
C #2  -2.944368519285880   1.012760712324843   0.000000000000000                
   11    5                                                                      
   13575.3496820000       2.224581435200000E-004  0.000000000000000E+000        
  0.000000000000000E+000  0.000000000000000E+000  0.000000000000000E+000        
   2035.23336800000       1.723273825200000E-003  0.000000000000000E+000        
  0.000000000000000E+000  0.000000000000000E+000  0.000000000000000E+000        
   463.225623590000       8.925571531400001E-003  0.000000000000000E+000        
  0.000000000000000E+000  0.000000000000000E+000  0.000000000000000E+000        
   131.200195980000       3.572798450200000E-002  0.000000000000000E+000        
  0.000000000000000E+000  0.000000000000000E+000  0.000000000000000E+000        
   42.8530158910000       0.110762599310000       0.000000000000000E+000        
  0.000000000000000E+000  0.000000000000000E+000  0.000000000000000E+000        
   15.5841857660000       0.242956276260000       0.000000000000000E+000        
  0.000000000000000E+000  0.000000000000000E+000  0.000000000000000E+000        
   6.20671385080000       0.000000000000000E+000  0.414402634480000             
  0.000000000000000E+000  0.000000000000000E+000  0.000000000000000E+000        
   2.57648965270000       0.000000000000000E+000  0.237449686550000             
  0.000000000000000E+000  0.000000000000000E+000  0.000000000000000E+000        
  0.576963394190000       0.000000000000000E+000  0.000000000000000E+000        
   1.00000000000000       0.000000000000000E+000  0.000000000000000E+000        
  0.229728313580000       0.000000000000000E+000  0.000000000000000E+000        
  0.000000000000000E+000   1.00000000000000       0.000000000000000E+000        
  9.516444002799999E-002  0.000000000000000E+000  0.000000000000000E+000        
  0.000000000000000E+000  0.000000000000000E+000   1.00000000000000             
    6    3                                                                      
   34.6972322440000       5.333365780500000E-003  0.000000000000000E+000        
  0.000000000000000E+000                                                        
   7.95826228260000       3.586410909200000E-002  0.000000000000000E+000        
  0.000000000000000E+000                                                        
   2.37808268830000       0.142158733290000       0.000000000000000E+000        
  0.000000000000000E+000                                                        
  0.814332081830000       0.342704718450000       0.000000000000000E+000        
  0.000000000000000E+000                                                        
  0.288875472530000       0.000000000000000E+000  0.464458224330000             
  0.000000000000000E+000                                                        
  0.100568236710000       0.000000000000000E+000  0.000000000000000E+000        
  0.249557898740000                                                             
    2    2                                                                      
   1.09700000000000        1.00000000000000       0.000000000000000E+000        
  0.318000000000000       0.000000000000000E+000   1.00000000000000             
    1    1                                                                      
  0.761000000000000        1.00000000000000                                     
          1.00000000    1    3    1    1    1                                   
H #3  -6.754513338636560   0.016998985360934   0.000000000000000                
    5    3                                                                      
   34.0613410000000       6.025197800000000E-003  0.000000000000000E+000        
  0.000000000000000E+000                                                        
   5.12357460000000       4.502109400000000E-002  0.000000000000000E+000        
  0.000000000000000E+000                                                        
   1.16466260000000       0.201897260000000       0.000000000000000E+000        
  0.000000000000000E+000                                                        
  0.327230410000000       0.000000000000000E+000   1.00000000000000             
  0.000000000000000E+000                                                        
  0.103072410000000       0.000000000000000E+000  0.000000000000000E+000        
   1.00000000000000                                                             
    2    2                                                                      
   1.40700000000000        1.00000000000000       0.000000000000000E+000        
  0.388000000000000       0.000000000000000E+000   1.00000000000000             
    1    1                                                                      
   1.05700000000000        1.00000000000000                                     
          1.00000000    1    3    1    1    1                                   
H #4  -3.228768847236531   3.031274481191312   0.000000000000000                
    5    3                                                                      
   34.0613410000000       6.025197800000000E-003  0.000000000000000E+000        
  0.000000000000000E+000                                                        
   5.12357460000000       4.502109400000000E-002  0.000000000000000E+000        
  0.000000000000000E+000                                                        
   1.16466260000000       0.201897260000000       0.000000000000000E+000        
  0.000000000000000E+000                                                        
  0.327230410000000       0.000000000000000E+000   1.00000000000000             
  0.000000000000000E+000                                                        
  0.103072410000000       0.000000000000000E+000  0.000000000000000E+000        
   1.00000000000000                                                             
    2    2                                                                      
   1.40700000000000        1.00000000000000       0.000000000000000E+000        
  0.388000000000000       0.000000000000000E+000   1.00000000000000             
    1    1                                                                      
   1.05700000000000        1.00000000000000                                     
          1.00000000    1    3    1    1    1                                   
H #5  -4.493243735004958  -2.665708958925396   0.000000000000000                
    5    3                                                                      
   34.0613410000000       6.025197800000000E-003  0.000000000000000E+000        
  0.000000000000000E+000                                                        
   5.12357460000000       4.502109400000000E-002  0.000000000000000E+000        
  0.000000000000000E+000                                                        
   1.16466260000000       0.201897260000000       0.000000000000000E+000        
  0.000000000000000E+000                                                        
  0.327230410000000       0.000000000000000E+000   1.00000000000000             
  0.000000000000000E+000                                                        
  0.103072410000000       0.000000000000000E+000  0.000000000000000E+000        
   1.00000000000000                                                             
    2    2                                                                      
   1.40700000000000        1.00000000000000       0.000000000000000E+000        
  0.388000000000000       0.000000000000000E+000   1.00000000000000             
    1    1                                                                      
   1.05700000000000        1.00000000000000                                     
         53.00000000    1    4    1    1    1    1                              
I #6   0.849312873392793  -0.037191197199570   0.000000000000000                
   11    6                                                                      
   5899.57915330000       2.418826927100000E-004  0.000000000000000E+000        
  0.000000000000000E+000  0.000000000000000E+000  0.000000000000000E+000        
  0.000000000000000E+000                                                        
   898.542387650000       1.547404174200000E-003  0.000000000000000E+000        
  0.000000000000000E+000  0.000000000000000E+000  0.000000000000000E+000        
  0.000000000000000E+000                                                        
   200.372379120000       4.283668445700000E-003  0.000000000000000E+000        
  0.000000000000000E+000  0.000000000000000E+000  0.000000000000000E+000        
  0.000000000000000E+000                                                        
   31.4180538400000      -3.941793627500000E-002  0.000000000000000E+000        
  0.000000000000000E+000  0.000000000000000E+000  0.000000000000000E+000        
  0.000000000000000E+000                                                        
   15.6459878380000       0.960866919920000       0.000000000000000E+000        
  0.000000000000000E+000  0.000000000000000E+000  0.000000000000000E+000        
  0.000000000000000E+000                                                        
   11.8157418570000       0.000000000000000E+000  0.759615240910000             
  0.000000000000000E+000  0.000000000000000E+000  0.000000000000000E+000        
  0.000000000000000E+000                                                        
   6.46144582870000       0.000000000000000E+000  0.424955018350000             
  0.000000000000000E+000  0.000000000000000E+000  0.000000000000000E+000        
  0.000000000000000E+000                                                        
   2.38380675790000       0.000000000000000E+000  0.000000000000000E+000        
   1.00000000000000       0.000000000000000E+000  0.000000000000000E+000        
  0.000000000000000E+000                                                        
   1.17120896620000       0.000000000000000E+000  0.000000000000000E+000        
  0.000000000000000E+000   1.00000000000000       0.000000000000000E+000        
  0.000000000000000E+000                                                        
  0.321158757570000       0.000000000000000E+000  0.000000000000000E+000        
  0.000000000000000E+000  0.000000000000000E+000   1.00000000000000             
  0.000000000000000E+000                                                        
  0.123879193640000       0.000000000000000E+000  0.000000000000000E+000        
  0.000000000000000E+000  0.000000000000000E+000  0.000000000000000E+000        
   1.00000000000000                                                             
   10    5                                                                      
   12.9843169040000      -4.909618616400000E-002  0.000000000000000E+000        
  0.000000000000000E+000  0.000000000000000E+000  0.000000000000000E+000        
   3.61995030080000       0.389144324820000       0.000000000000000E+000        
  0.000000000000000E+000  0.000000000000000E+000  0.000000000000000E+000        
   2.02322730900000       0.656108172620000       0.000000000000000E+000        
  0.000000000000000E+000  0.000000000000000E+000  0.000000000000000E+000        
   1.03674905590000       0.318035516470000       0.000000000000000E+000        
  0.000000000000000E+000  0.000000000000000E+000  0.000000000000000E+000        
   197.300305470000       0.000000000000000E+000  7.395122690499999E-004        
  0.000000000000000E+000  0.000000000000000E+000  0.000000000000000E+000        
   20.0614113490000       0.000000000000000E+000  6.616845000799999E-002        
  0.000000000000000E+000  0.000000000000000E+000  0.000000000000000E+000        
   9.76314604850000       0.000000000000000E+000 -0.285546623480000             
  0.000000000000000E+000  0.000000000000000E+000  0.000000000000000E+000        
  0.459378160000000       0.000000000000000E+000  0.000000000000000E+000        
   1.00000000000000       0.000000000000000E+000  0.000000000000000E+000        
  0.191165329280000       0.000000000000000E+000  0.000000000000000E+000        
  0.000000000000000E+000   1.00000000000000       0.000000000000000E+000        
  7.487881302299999E-002  0.000000000000000E+000  0.000000000000000E+000        
  0.000000000000000E+000  0.000000000000000E+000   1.00000000000000             
    8    3                                                                      
   119.126717450000       8.259603957300000E-004  0.000000000000000E+000        
  0.000000000000000E+000                                                        
   33.4042401340000       6.837767577000000E-003  0.000000000000000E+000        
  0.000000000000000E+000                                                        
   17.8059182030000      -1.030815899700000E-002  0.000000000000000E+000        
  0.000000000000000E+000                                                        
   4.89905103530000       0.226704576580000       0.000000000000000E+000        
  0.000000000000000E+000                                                        
   2.45167531060000       0.441801139370000       0.000000000000000E+000        
  0.000000000000000E+000                                                        
   1.18206934320000       0.367754722250000       0.000000000000000E+000        
  0.000000000000000E+000                                                        
  0.529231100680000       0.000000000000000E+000   1.00000000000000             
  0.000000000000000E+000                                                        
  0.170000000000000       0.000000000000000E+000  0.000000000000000E+000        
   1.00000000000000                                                             
    2    2                                                                      
  0.441418080000000        1.00000000000000       0.000000000000000E+000        
   2.18000000000000       0.000000000000000E+000   1.00000000000000             
FINISH                                                                          
 
********************************************************************************
 One- and two-electron integrals over symmetry-adapted AOs are calculated.

  Spherical harmonics are used.
  
  Effective core potentials are used.
   6 types of atoms
   1 symmetry operations

   Reflection in the XY-plane
  
  Integrals less than  0.10E-13 are neglected.

  Atomic type number  1 :
  -----------------------

    Nuclear charge:                        6
    number of symmetry independent atoms:  1
    highest orbital type:                  f

      1 groups of CGTOs of s type
      1 groups of CGTOs of p type
      1 groups of CGTOs of d type
      1 groups of CGTOs of f type

    nuclear coordinates (in a.u.) are :

    C #1       -4.821614594642513       -0.651579779611357        0.000000000000000
  
   Basis function not normalized: 
   Center (as ordered in MOL file):   1
   Angular Momentum type          : s
   Offset within angular momentum :  1
   <chi|chi>                      :    2.7261534527
   Basis function not normalized: 
   Center (as ordered in MOL file):   1
   Angular Momentum type          : s
   Offset within angular momentum :  2
   <chi|chi>                      :    1.5828883092
   Basis function not normalized: 
   Center (as ordered in MOL file):   1
   Angular Momentum type          : p
   Offset within angular momentum :  1
   <chi|chi>                      :    2.1238408295
   Basis function not normalized: 
   Center (as ordered in MOL file):   1
   Angular Momentum type          : p
   Offset within angular momentum :  2
   <chi|chi>                      :    2.1530461678
   Basis function not normalized: 
   Center (as ordered in MOL file):   1
   Angular Momentum type          : p
   Offset within angular momentum :  3
   <chi|chi>                      :    4.0070861513
  Atomic type number  2 :
  -----------------------

    Nuclear charge:                        6
    number of symmetry independent atoms:  1
    highest orbital type:                  f

      1 groups of CGTOs of s type
      1 groups of CGTOs of p type
      1 groups of CGTOs of d type
      1 groups of CGTOs of f type

    nuclear coordinates (in a.u.) are :

    C #2       -2.944368519285880        1.012760712324843        0.000000000000000
  
   Basis function not normalized: 
   Center (as ordered in MOL file):   2
   Angular Momentum type          : s
   Offset within angular momentum :  1
   <chi|chi>                      :    2.7261534527
   Basis function not normalized: 
   Center (as ordered in MOL file):   2
   Angular Momentum type          : s
   Offset within angular momentum :  2
   <chi|chi>                      :    1.5828883092
   Basis function not normalized: 
   Center (as ordered in MOL file):   2
   Angular Momentum type          : p
   Offset within angular momentum :  1
   <chi|chi>                      :    2.1238408295
   Basis function not normalized: 
   Center (as ordered in MOL file):   2
   Angular Momentum type          : p
   Offset within angular momentum :  2
   <chi|chi>                      :    2.1530461678
   Basis function not normalized: 
   Center (as ordered in MOL file):   2
   Angular Momentum type          : p
   Offset within angular momentum :  3
   <chi|chi>                      :    4.0070861513
  Atomic type number  3 :
  -----------------------

    Nuclear charge:                        1
    number of symmetry independent atoms:  1
    highest orbital type:                  d

      1 groups of CGTOs of s type
      1 groups of CGTOs of p type
      1 groups of CGTOs of d type

    nuclear coordinates (in a.u.) are :

    H #3       -6.754513338636560        0.016998985360934        0.000000000000000
  
   Basis function not normalized: 
   Center (as ordered in MOL file):   3
   Angular Momentum type          : s
   Offset within angular momentum :  1
   <chi|chi>                      :    4.2221530402
  Atomic type number  4 :
  -----------------------

    Nuclear charge:                        1
    number of symmetry independent atoms:  1
    highest orbital type:                  d

      1 groups of CGTOs of s type
      1 groups of CGTOs of p type
      1 groups of CGTOs of d type

    nuclear coordinates (in a.u.) are :

    H #4       -3.228768847236531        3.031274481191312        0.000000000000000
  
   Basis function not normalized: 
   Center (as ordered in MOL file):   4
   Angular Momentum type          : s
   Offset within angular momentum :  1
   <chi|chi>                      :    4.2221530402
  Atomic type number  5 :
  -----------------------

    Nuclear charge:                        1
    number of symmetry independent atoms:  1
    highest orbital type:                  d

      1 groups of CGTOs of s type
      1 groups of CGTOs of p type
      1 groups of CGTOs of d type

    nuclear coordinates (in a.u.) are :

    H #5       -4.493243735004958       -2.665708958925396        0.000000000000000
  
   Basis function not normalized: 
   Center (as ordered in MOL file):   5
   Angular Momentum type          : s
   Offset within angular momentum :  1
   <chi|chi>                      :    4.2221530402
  Atomic type number  6 :
  -----------------------

    Nuclear charge:                       53
    number of symmetry independent atoms:  1
    highest orbital type:                  f

      1 groups of CGTOs of s type
      1 groups of CGTOs of p type
      1 groups of CGTOs of d type
      1 groups of CGTOs of f type

    nuclear coordinates (in a.u.) are :

    I #6        0.849312873392793       -0.037191197199570        0.000000000000000
  
   Basis function not normalized: 
   Center (as ordered in MOL file):   6
   Angular Momentum type          : s
   Offset within angular momentum :  1
   <chi|chi>                      :    1.0790587337
   Basis function not normalized: 
   Center (as ordered in MOL file):   6
   Angular Momentum type          : s
   Offset within angular momentum :  2
   <chi|chi>                      :    0.8571179957
   Basis function not normalized: 
   Center (as ordered in MOL file):   6
   Angular Momentum type          : p
   Offset within angular momentum :  1
   <chi|chi>                      :    0.7878750281
   Basis function not normalized: 
   Center (as ordered in MOL file):   6
   Angular Momentum type          : p
   Offset within angular momentum :  2
   <chi|chi>                      :    4.3174052775
   Basis function not normalized: 
   Center (as ordered in MOL file):   6
   Angular Momentum type          : d
   Offset within angular momentum :  1
   <chi|chi>                      :    1.0698317908
 ECP CALLED
 reading data block $ecp from file <ECPDATA>

          ------------------
          -ecp- potential(s)
          ------------------
 ECP PARAMETERS FOR ATOM                     1
C:def2-TZVPP    H:de
*
  NCORE =    28           LMAX =     3
#        COEFFICIENT   R^N          EXPONENT
f
         -26.5624475    2          10.4000000
          -4.5856805    2           5.2000000
s-f
         195.1591659    2          10.4223462
          28.0926033    2           5.0365160
          26.5624475    2          10.4000000
           4.5856805    2           5.2000000
p-f
         135.2845662    2           8.9504494
          21.8065043    2           4.8544394
          26.5624475    2          10.4000000
           4.5856805    2           5.2000000
d-f
          54.3297294    2           6.9456968
          11.1550679    2           3.9705849
          26.5624475    2          10.4000000
           4.5856805    2           5.2000000
*
 ECP PARAMETERS FOR ATOM                     2
C:def2-TZVPP    H:de
*
  NCORE =    28           LMAX =     3
#        COEFFICIENT   R^N          EXPONENT
f
         -26.5624475    2          10.4000000
          -4.5856805    2           5.2000000
s-f
         195.1591659    2          10.4223462
          28.0926033    2           5.0365160
          26.5624475    2          10.4000000
           4.5856805    2           5.2000000
p-f
         135.2845662    2           8.9504494
          21.8065043    2           4.8544394
          26.5624475    2          10.4000000
           4.5856805    2           5.2000000
d-f
          54.3297294    2           6.9456968
          11.1550679    2           3.9705849
          26.5624475    2          10.4000000
           4.5856805    2           5.2000000
*
 ECP PARAMETERS FOR ATOM                     3
H:def2-TZVPP    I:de
*
  NCORE =    28           LMAX =     3
#        COEFFICIENT   R^N          EXPONENT
f
         -30.0934557    2          12.3100000
          -5.2184819    2           6.1600000
s-f
         225.3477535    2          11.7200000
          32.8231890    2           5.8200000
          30.0934557    2          12.3100000
           5.2184819    2           6.1600000
p-f
         158.7094116    2          10.4200000
          26.4441005    2           5.4500000
          30.0934557    2          12.3100000
           5.2184819    2           6.1600000
d-f
          62.7586257    2           8.8200000
          10.9787195    2           3.8700000
          30.0934557    2          12.3100000
           5.2184819    2           6.1600000
*
 ECP PARAMETERS FOR ATOM                     4
H:def2-TZVPP    I:de
*
  NCORE =    28           LMAX =     3
#        COEFFICIENT   R^N          EXPONENT
f
         -30.0934557    2          12.3100000
          -5.2184819    2           6.1600000
s-f
         225.3477535    2          11.7200000
          32.8231890    2           5.8200000
          30.0934557    2          12.3100000
           5.2184819    2           6.1600000
p-f
         158.7094116    2          10.4200000
          26.4441005    2           5.4500000
          30.0934557    2          12.3100000
           5.2184819    2           6.1600000
d-f
          62.7586257    2           8.8200000
          10.9787195    2           3.8700000
          30.0934557    2          12.3100000
           5.2184819    2           6.1600000
*
 ECP PARAMETERS FOR ATOM                     5
H:def2-TZVPP    I:de
*
  NCORE =    28           LMAX =     3
#        COEFFICIENT   R^N          EXPONENT
f
         -30.0934557    2          12.3100000
          -5.2184819    2           6.1600000
s-f
         225.3477535    2          11.7200000
          32.8231890    2           5.8200000
          30.0934557    2          12.3100000
           5.2184819    2           6.1600000
p-f
         158.7094116    2          10.4200000
          26.4441005    2           5.4500000
          30.0934557    2          12.3100000
           5.2184819    2           6.1600000
d-f
          62.7586257    2           8.8200000
          10.9787195    2           3.8700000
          30.0934557    2          12.3100000
           5.2184819    2           6.1600000
*
 ECP PARAMETERS FOR ATOM                     6
I:def2-TZVPP        
*
  NCORE =    28           LMAX =     3
#        COEFFICIENT   R^N          EXPONENT
f
         -21.8420400    2          19.4586090
         -28.4681910    2          19.3492600
          -0.2437130    2           4.8237670
          -0.3208040    2           4.8843150
s-f
          49.9942930    2          40.0158350
         281.0253170    2          17.4297470
          61.5733260    2           9.0054840
          21.8420400    2          19.4586090
          28.4681910    2          19.3492600
           0.2437130    2           4.8237670
           0.3208040    2           4.8843150
p-f
          67.4428410    2          15.3554660
         134.8811370    2          14.9718330
          14.6750510    2           8.9601640
          29.3756660    2           8.2590960
          21.8420400    2          19.4586090
          28.4681910    2          19.3492600
           0.2437130    2           4.8237670
           0.3208040    2           4.8843150
d-f
          35.4395290    2          15.0689080
          53.1760570    2          14.5553220
           9.0671950    2           6.7186470
          13.2069370    2           6.4563930
           0.0893350    2           1.1917790
           0.0523800    2           1.2911570
          21.8420400    2          19.4586090
          28.4681910    2          19.3492600
           0.2437130    2           4.8237670
           0.3208040    2           4.8843150
*

     code set-up for matrix elements of effective core potential

          basis functions are max type  i
          projection operator max type  h
          1.basic angular ints.........     0.33 sec
          2.local operator ints........     0.00 sec
          3.projection operator ints...     0.00 sec
          4.special angular ints.......     0.00 sec

   Internuclear distances (A) :

     for atom C #1 (coordinates :  -4.82161  -0.65158   0.00000)

     C #2   1     distance is  1.328
     H #3   1     distance is  1.082
     H #4   1     distance is  2.123
     H #5   1     distance is  1.080
     I #6   1     distance is  3.018

     for atom C #2 (coordinates :  -2.94437   1.01276   0.00000)

     H #3   1     distance is  2.084
     H #4   1     distance is  1.079
     H #5   1     distance is  2.112
     I #6   1     distance is  2.083

     for atom H #3 (coordinates :  -6.75451   0.01700   0.00000)

     H #4   1     distance is  2.455
     H #5   1     distance is  1.857
     I #6   1     distance is  4.024

     for atom H #4 (coordinates :  -3.22877   3.03127   0.00000)

     H #5   1     distance is  3.088
     I #6   1     distance is  2.701

     for atom H #5 (coordinates :  -4.49324  -2.66571   0.00000)

     I #6   1     distance is  3.151

     for atom I #6 (coordinates :   0.84931  -0.03719   0.00000)


   Group multiplication table :

         1   2
         2   1

   Gaussian basis information :

   atom                 exponent      coefficients

 C #1  1    S   
+                 1   13575.349682   0.0002225   0.0000000   0.0000000   0.0000000   0.0000000
                  2    2035.233368   0.0017233   0.0000000   0.0000000   0.0000000   0.0000000
                  3     463.225624   0.0089256   0.0000000   0.0000000   0.0000000   0.0000000
                  4     131.200196   0.0357280   0.0000000   0.0000000   0.0000000   0.0000000
                  5      42.853016   0.1107626   0.0000000   0.0000000   0.0000000   0.0000000
                  6      15.584186   0.2429563   0.0000000   0.0000000   0.0000000   0.0000000
                  7       6.206714   0.0000000   0.4144026   0.0000000   0.0000000   0.0000000
                  8       2.576490   0.0000000   0.2374497   0.0000000   0.0000000   0.0000000
                  9       0.576963   0.0000000   0.0000000   1.0000000   0.0000000   0.0000000
                 10       0.229728   0.0000000   0.0000000   0.0000000   1.0000000   0.0000000
                 11       0.095164   0.0000000   0.0000000   0.0000000   0.0000000   1.0000000

 C #1  1    X   
+                12      34.697232   0.0053334   0.0000000   0.0000000
                 13       7.958262   0.0358641   0.0000000   0.0000000
                 14       2.378083   0.1421587   0.0000000   0.0000000
                 15       0.814332   0.3427047   0.0000000   0.0000000
                 16       0.288875   0.0000000   0.4644582   0.0000000
                 17       0.100568   0.0000000   0.0000000   0.2495579

 C #1  1    Y   
+                18      34.697232   0.0053334   0.0000000   0.0000000
                 19       7.958262   0.0358641   0.0000000   0.0000000
                 20       2.378083   0.1421587   0.0000000   0.0000000
                 21       0.814332   0.3427047   0.0000000   0.0000000
                 22       0.288875   0.0000000   0.4644582   0.0000000
                 23       0.100568   0.0000000   0.0000000   0.2495579

 C #1  1    Z   
+                24      34.697232   0.0053334   0.0000000   0.0000000
                 25       7.958262   0.0358641   0.0000000   0.0000000
                 26       2.378083   0.1421587   0.0000000   0.0000000
                 27       0.814332   0.3427047   0.0000000   0.0000000
                 28       0.288875   0.0000000   0.4644582   0.0000000
                 29       0.100568   0.0000000   0.0000000   0.2495579

 C #1  1    XX  
+                30       1.097000   1.0000000   0.0000000
                 31       0.318000   0.0000000   1.0000000

 C #1  1    XY  
+                32       1.097000   1.0000000   0.0000000
                 33       0.318000   0.0000000   1.0000000

 C #1  1    XZ  
+                34       1.097000   1.0000000   0.0000000
                 35       0.318000   0.0000000   1.0000000

 C #1  1    YY  
+                36       1.097000   1.0000000   0.0000000
                 37       0.318000   0.0000000   1.0000000

 C #1  1    YZ  
+                38       1.097000   1.0000000   0.0000000
                 39       0.318000   0.0000000   1.0000000

 C #1  1    ZZ  
+                40       1.097000   1.0000000   0.0000000
                 41       0.318000   0.0000000   1.0000000

 C #1  1    F300
+                42       0.761000   1.0000000

 C #1  1    F210
+                43       0.761000   1.0000000

 C #1  1    F201
+                44       0.761000   1.0000000

 C #1  1    F120
+                45       0.761000   1.0000000

 C #1  1    F111
+                46       0.761000   1.0000000

 C #1  1    F102
+                47       0.761000   1.0000000

 C #1  1    F030
+                48       0.761000   1.0000000

 C #1  1    F021
+                49       0.761000   1.0000000

 C #1  1    F012
+                50       0.761000   1.0000000

 C #1  1    F003
+                51       0.761000   1.0000000

 C #2  1    S   
+                52   13575.349682   0.0002225   0.0000000   0.0000000   0.0000000   0.0000000
                 53    2035.233368   0.0017233   0.0000000   0.0000000   0.0000000   0.0000000
                 54     463.225624   0.0089256   0.0000000   0.0000000   0.0000000   0.0000000
                 55     131.200196   0.0357280   0.0000000   0.0000000   0.0000000   0.0000000
                 56      42.853016   0.1107626   0.0000000   0.0000000   0.0000000   0.0000000
                 57      15.584186   0.2429563   0.0000000   0.0000000   0.0000000   0.0000000
                 58       6.206714   0.0000000   0.4144026   0.0000000   0.0000000   0.0000000
                 59       2.576490   0.0000000   0.2374497   0.0000000   0.0000000   0.0000000
                 60       0.576963   0.0000000   0.0000000   1.0000000   0.0000000   0.0000000
                 61       0.229728   0.0000000   0.0000000   0.0000000   1.0000000   0.0000000
                 62       0.095164   0.0000000   0.0000000   0.0000000   0.0000000   1.0000000

 C #2  1    X   
+                63      34.697232   0.0053334   0.0000000   0.0000000
                 64       7.958262   0.0358641   0.0000000   0.0000000
                 65       2.378083   0.1421587   0.0000000   0.0000000
                 66       0.814332   0.3427047   0.0000000   0.0000000
                 67       0.288875   0.0000000   0.4644582   0.0000000
                 68       0.100568   0.0000000   0.0000000   0.2495579

 C #2  1    Y   
+                69      34.697232   0.0053334   0.0000000   0.0000000
                 70       7.958262   0.0358641   0.0000000   0.0000000
                 71       2.378083   0.1421587   0.0000000   0.0000000
                 72       0.814332   0.3427047   0.0000000   0.0000000
                 73       0.288875   0.0000000   0.4644582   0.0000000
                 74       0.100568   0.0000000   0.0000000   0.2495579

 C #2  1    Z   
+                75      34.697232   0.0053334   0.0000000   0.0000000
                 76       7.958262   0.0358641   0.0000000   0.0000000
                 77       2.378083   0.1421587   0.0000000   0.0000000
                 78       0.814332   0.3427047   0.0000000   0.0000000
                 79       0.288875   0.0000000   0.4644582   0.0000000
                 80       0.100568   0.0000000   0.0000000   0.2495579

 C #2  1    XX  
+                81       1.097000   1.0000000   0.0000000
                 82       0.318000   0.0000000   1.0000000

 C #2  1    XY  
+                83       1.097000   1.0000000   0.0000000
                 84       0.318000   0.0000000   1.0000000

 C #2  1    XZ  
+                85       1.097000   1.0000000   0.0000000
                 86       0.318000   0.0000000   1.0000000

 C #2  1    YY  
+                87       1.097000   1.0000000   0.0000000
                 88       0.318000   0.0000000   1.0000000

 C #2  1    YZ  
+                89       1.097000   1.0000000   0.0000000
                 90       0.318000   0.0000000   1.0000000

 C #2  1    ZZ  
+                91       1.097000   1.0000000   0.0000000
                 92       0.318000   0.0000000   1.0000000

 C #2  1    F300
+                93       0.761000   1.0000000

 C #2  1    F210
+                94       0.761000   1.0000000

 C #2  1    F201
+                95       0.761000   1.0000000

 C #2  1    F120
+                96       0.761000   1.0000000

 C #2  1    F111
+                97       0.761000   1.0000000

 C #2  1    F102
+                98       0.761000   1.0000000

 C #2  1    F030
+                99       0.761000   1.0000000

 C #2  1    F021
+               100       0.761000   1.0000000

 C #2  1    F012
+               101       0.761000   1.0000000

 C #2  1    F003
+               102       0.761000   1.0000000

 H #3  1    S   
+               103      34.061341   0.0060252   0.0000000   0.0000000
                104       5.123575   0.0450211   0.0000000   0.0000000
                105       1.164663   0.2018973   0.0000000   0.0000000
                106       0.327230   0.0000000   1.0000000   0.0000000
                107       0.103072   0.0000000   0.0000000   1.0000000

 H #3  1    X   
+               108       1.407000   1.0000000   0.0000000
                109       0.388000   0.0000000   1.0000000

 H #3  1    Y   
+               110       1.407000   1.0000000   0.0000000
                111       0.388000   0.0000000   1.0000000

 H #3  1    Z   
+               112       1.407000   1.0000000   0.0000000
                113       0.388000   0.0000000   1.0000000

 H #3  1    XX  
+               114       1.057000   1.0000000

 H #3  1    XY  
+               115       1.057000   1.0000000

 H #3  1    XZ  
+               116       1.057000   1.0000000

 H #3  1    YY  
+               117       1.057000   1.0000000

 H #3  1    YZ  
+               118       1.057000   1.0000000

 H #3  1    ZZ  
+               119       1.057000   1.0000000

 H #4  1    S   
+               120      34.061341   0.0060252   0.0000000   0.0000000
                121       5.123575   0.0450211   0.0000000   0.0000000
                122       1.164663   0.2018973   0.0000000   0.0000000
                123       0.327230   0.0000000   1.0000000   0.0000000
                124       0.103072   0.0000000   0.0000000   1.0000000

 H #4  1    X   
+               125       1.407000   1.0000000   0.0000000
                126       0.388000   0.0000000   1.0000000

 H #4  1    Y   
+               127       1.407000   1.0000000   0.0000000
                128       0.388000   0.0000000   1.0000000

 H #4  1    Z   
+               129       1.407000   1.0000000   0.0000000
                130       0.388000   0.0000000   1.0000000

 H #4  1    XX  
+               131       1.057000   1.0000000

 H #4  1    XY  
+               132       1.057000   1.0000000

 H #4  1    XZ  
+               133       1.057000   1.0000000

 H #4  1    YY  
+               134       1.057000   1.0000000

 H #4  1    YZ  
+               135       1.057000   1.0000000

 H #4  1    ZZ  
+               136       1.057000   1.0000000

 H #5  1    S   
+               137      34.061341   0.0060252   0.0000000   0.0000000
                138       5.123575   0.0450211   0.0000000   0.0000000
                139       1.164663   0.2018973   0.0000000   0.0000000
                140       0.327230   0.0000000   1.0000000   0.0000000
                141       0.103072   0.0000000   0.0000000   1.0000000

 H #5  1    X   
+               142       1.407000   1.0000000   0.0000000
                143       0.388000   0.0000000   1.0000000

 H #5  1    Y   
+               144       1.407000   1.0000000   0.0000000
                145       0.388000   0.0000000   1.0000000

 H #5  1    Z   
+               146       1.407000   1.0000000   0.0000000
                147       0.388000   0.0000000   1.0000000

 H #5  1    XX  
+               148       1.057000   1.0000000

 H #5  1    XY  
+               149       1.057000   1.0000000

 H #5  1    XZ  
+               150       1.057000   1.0000000

 H #5  1    YY  
+               151       1.057000   1.0000000

 H #5  1    YZ  
+               152       1.057000   1.0000000

 H #5  1    ZZ  
+               153       1.057000   1.0000000

 I #6  1    S   
+               154    5899.579153   0.0002419   0.0000000   0.0000000   0.0000000   0.0000000   0.0000000
                155     898.542388   0.0015474   0.0000000   0.0000000   0.0000000   0.0000000   0.0000000
                156     200.372379   0.0042837   0.0000000   0.0000000   0.0000000   0.0000000   0.0000000
                157      31.418054  -0.0394179   0.0000000   0.0000000   0.0000000   0.0000000   0.0000000
                158      15.645988   0.9608669   0.0000000   0.0000000   0.0000000   0.0000000   0.0000000
                159      11.815742   0.0000000   0.7596152   0.0000000   0.0000000   0.0000000   0.0000000
                160       6.461446   0.0000000   0.4249550   0.0000000   0.0000000   0.0000000   0.0000000
                161       2.383807   0.0000000   0.0000000   1.0000000   0.0000000   0.0000000   0.0000000
                162       1.171209   0.0000000   0.0000000   0.0000000   1.0000000   0.0000000   0.0000000
                163       0.321159   0.0000000   0.0000000   0.0000000   0.0000000   1.0000000   0.0000000
                164       0.123879   0.0000000   0.0000000   0.0000000   0.0000000   0.0000000   1.0000000

 I #6  1    X   
+               165      12.984317  -0.0490962   0.0000000   0.0000000   0.0000000   0.0000000
                166       3.619950   0.3891443   0.0000000   0.0000000   0.0000000   0.0000000
                167       2.023227   0.6561082   0.0000000   0.0000000   0.0000000   0.0000000
                168       1.036749   0.3180355   0.0000000   0.0000000   0.0000000   0.0000000
                169     197.300305   0.0000000   0.0007395   0.0000000   0.0000000   0.0000000
                170      20.061411   0.0000000   0.0661685   0.0000000   0.0000000   0.0000000
                171       9.763146   0.0000000  -0.2855466   0.0000000   0.0000000   0.0000000
                172       0.459378   0.0000000   0.0000000   1.0000000   0.0000000   0.0000000
                173       0.191165   0.0000000   0.0000000   0.0000000   1.0000000   0.0000000
                174       0.074879   0.0000000   0.0000000   0.0000000   0.0000000   1.0000000

 I #6  1    Y   
+               175      12.984317  -0.0490962   0.0000000   0.0000000   0.0000000   0.0000000
                176       3.619950   0.3891443   0.0000000   0.0000000   0.0000000   0.0000000
                177       2.023227   0.6561082   0.0000000   0.0000000   0.0000000   0.0000000
                178       1.036749   0.3180355   0.0000000   0.0000000   0.0000000   0.0000000
                179     197.300305   0.0000000   0.0007395   0.0000000   0.0000000   0.0000000
                180      20.061411   0.0000000   0.0661685   0.0000000   0.0000000   0.0000000
                181       9.763146   0.0000000  -0.2855466   0.0000000   0.0000000   0.0000000
                182       0.459378   0.0000000   0.0000000   1.0000000   0.0000000   0.0000000
                183       0.191165   0.0000000   0.0000000   0.0000000   1.0000000   0.0000000
                184       0.074879   0.0000000   0.0000000   0.0000000   0.0000000   1.0000000

 I #6  1    Z   
+               185      12.984317  -0.0490962   0.0000000   0.0000000   0.0000000   0.0000000
                186       3.619950   0.3891443   0.0000000   0.0000000   0.0000000   0.0000000
                187       2.023227   0.6561082   0.0000000   0.0000000   0.0000000   0.0000000
                188       1.036749   0.3180355   0.0000000   0.0000000   0.0000000   0.0000000
                189     197.300305   0.0000000   0.0007395   0.0000000   0.0000000   0.0000000
                190      20.061411   0.0000000   0.0661685   0.0000000   0.0000000   0.0000000
                191       9.763146   0.0000000  -0.2855466   0.0000000   0.0000000   0.0000000
                192       0.459378   0.0000000   0.0000000   1.0000000   0.0000000   0.0000000
                193       0.191165   0.0000000   0.0000000   0.0000000   1.0000000   0.0000000
                194       0.074879   0.0000000   0.0000000   0.0000000   0.0000000   1.0000000

 I #6  1    XX  
+               195     119.126717   0.0008260   0.0000000   0.0000000
                196      33.404240   0.0068378   0.0000000   0.0000000
                197      17.805918  -0.0103082   0.0000000   0.0000000
                198       4.899051   0.2267046   0.0000000   0.0000000
                199       2.451675   0.4418011   0.0000000   0.0000000
                200       1.182069   0.3677547   0.0000000   0.0000000
                201       0.529231   0.0000000   1.0000000   0.0000000
                202       0.170000   0.0000000   0.0000000   1.0000000

 I #6  1    XY  
+               203     119.126717   0.0008260   0.0000000   0.0000000
                204      33.404240   0.0068378   0.0000000   0.0000000
                205      17.805918  -0.0103082   0.0000000   0.0000000
                206       4.899051   0.2267046   0.0000000   0.0000000
                207       2.451675   0.4418011   0.0000000   0.0000000
                208       1.182069   0.3677547   0.0000000   0.0000000
                209       0.529231   0.0000000   1.0000000   0.0000000
                210       0.170000   0.0000000   0.0000000   1.0000000

 I #6  1    XZ  
+               211     119.126717   0.0008260   0.0000000   0.0000000
                212      33.404240   0.0068378   0.0000000   0.0000000
                213      17.805918  -0.0103082   0.0000000   0.0000000
                214       4.899051   0.2267046   0.0000000   0.0000000
                215       2.451675   0.4418011   0.0000000   0.0000000
                216       1.182069   0.3677547   0.0000000   0.0000000
                217       0.529231   0.0000000   1.0000000   0.0000000
                218       0.170000   0.0000000   0.0000000   1.0000000

 I #6  1    YY  
+               219     119.126717   0.0008260   0.0000000   0.0000000
                220      33.404240   0.0068378   0.0000000   0.0000000
                221      17.805918  -0.0103082   0.0000000   0.0000000
                222       4.899051   0.2267046   0.0000000   0.0000000
                223       2.451675   0.4418011   0.0000000   0.0000000
                224       1.182069   0.3677547   0.0000000   0.0000000
                225       0.529231   0.0000000   1.0000000   0.0000000
                226       0.170000   0.0000000   0.0000000   1.0000000

 I #6  1    YZ  
+               227     119.126717   0.0008260   0.0000000   0.0000000
                228      33.404240   0.0068378   0.0000000   0.0000000
                229      17.805918  -0.0103082   0.0000000   0.0000000
                230       4.899051   0.2267046   0.0000000   0.0000000
                231       2.451675   0.4418011   0.0000000   0.0000000
                232       1.182069   0.3677547   0.0000000   0.0000000
                233       0.529231   0.0000000   1.0000000   0.0000000
                234       0.170000   0.0000000   0.0000000   1.0000000

 I #6  1    ZZ  
+               235     119.126717   0.0008260   0.0000000   0.0000000
                236      33.404240   0.0068378   0.0000000   0.0000000
                237      17.805918  -0.0103082   0.0000000   0.0000000
                238       4.899051   0.2267046   0.0000000   0.0000000
                239       2.451675   0.4418011   0.0000000   0.0000000
                240       1.182069   0.3677547   0.0000000   0.0000000
                241       0.529231   0.0000000   1.0000000   0.0000000
                242       0.170000   0.0000000   0.0000000   1.0000000

 I #6  1    F300
+               243       0.441418   1.0000000   0.0000000
                244       2.180000   0.0000000   1.0000000

 I #6  1    F210
+               245       0.441418   1.0000000   0.0000000
                246       2.180000   0.0000000   1.0000000

 I #6  1    F201
+               247       0.441418   1.0000000   0.0000000
                248       2.180000   0.0000000   1.0000000

 I #6  1    F120
+               249       0.441418   1.0000000   0.0000000
                250       2.180000   0.0000000   1.0000000

 I #6  1    F111
+               251       0.441418   1.0000000   0.0000000
                252       2.180000   0.0000000   1.0000000

 I #6  1    F102
+               253       0.441418   1.0000000   0.0000000
                254       2.180000   0.0000000   1.0000000

 I #6  1    F030
+               255       0.441418   1.0000000   0.0000000
                256       2.180000   0.0000000   1.0000000

 I #6  1    F021
+               257       0.441418   1.0000000   0.0000000
                258       2.180000   0.0000000   1.0000000

 I #6  1    F012
+               259       0.441418   1.0000000   0.0000000
                260       2.180000   0.0000000   1.0000000

 I #6  1    F003
+               261       0.441418   1.0000000   0.0000000
                262       2.180000   0.0000000   1.0000000
176154
  1  2  3  4  5  6  7  8  9 10 11 12 13 14 15 16 17****** 18 19 20*** 21***
 22 23 24 25 26 27 28 29 30 31 32 33 34 35 36 37 38****** 39 40 41*** 42***
 43 44 45 46 47 48 49 50 51 52*** 53 54 55 56 57 58 59 60 61 62*** 63 64 65
 66 67 68 69 70 71 72*** 73 74 75 76 77 78 79 80 81 82 83 84 85 86 87 88 89
 90 91 92 93 94 95 96 97********* 98 99100101102103******104105******106107
108109110111112113114115***116117118119120121122123124125***126127128129130
131132133134135136137138139140141142143144145146147148149150151152153154***
***
1

             SYMMETRY TRANSFORMATION INFO
            154 SYMMETRY ADAPTED BASIS FUNCTIONS 


          irreducible representation number 1

    1    1  C #1     1s     1   1   1.0
    2    2  C #1     1s     1   2   1.0
    3    3  C #1     1s     1   3   1.0
    4    4  C #1     1s     1   4   1.0
    5    5  C #1     1s     1   5   1.0
    6    6  C #1     2px    1   6   1.0
    7    7  C #1     2px    1   7   1.0
    8    8  C #1     2px    1   8   1.0
    9    9  C #1     2py    1   9   1.0
   10   10  C #1     2py    1  10   1.0
[...]
  148    99         152.2257681373        4142.2738040136     A'        A'  (1)
  149   100         154.8843878661        4214.6185258857     A'        A'  (1)
  150   101         161.2563074984        4388.0072766662     A'        A'  (1)
  151   102         165.9693471852        4516.2556085424     A'        A'  (1)
  152   103         175.9453637029        4787.7168229947     A'        A'  (1)
  153   104         493.2785422014       13422.7917418054     A'        A'  (1)
  154   105         502.7254145053       13679.8542099605     A'        A'  (1)


  VSCF finished.

  @CHECKOUT-I, Total execution time (CPU/WALL):        5.81/     137.33 seconds.
--executable xvscf finished with status     0 in      137.39 seconds (walltime).
 --invoking executable--
/home/nike/cfour_v2.00beta/cfour_v2.00beta/bin/xvtran
 @GETMEM-I,  Allocated   11444 MB of main memory.
  Full RHF integral transformation
  @GTNRB2-I, There are  2 irreducible representations.
  The following  34 MOs will be dropped:
    1  2  3  4  5  6  7  8  9 10 11 12 13 14 15 16 17 18 19 20 21 22106
  107108109110111112113114115116117
  There are 120 active molecular orbitals.
  Transformation of IIII integrals :
  1 pass through the AO integral file was required.
    14982827 AO integrals were read.
     6325297 MO integrals were written to HF2.
  Transformation of IIJJ integrals :
  1 pass through the AO integral file was required.
     6311399 AO integrals were read.
     2450658 MO integrals were written to HF2.
  Transformation of IJIJ integrals :
  1 pass through the AO integral file was required.
    12074260 AO integrals were read.
     4717056 MO integrals were written to HF2.
  Summary of active molecular orbitals: 
------------------------------------------------------------------------
 
  Index      Eigenvalue    Symmetry    Index      Eigenvalue    Symmetry
------------------------------------------------------------------------
     1        12.2296692        1        61        60.8597739        1
     2        12.7756768        1        62        61.2829179        1
     3        14.5440684        1        63        65.3516751        1
     4        15.0642299        1        64        66.0784256        1
     5        16.5708478        1        65        68.3476602        1
     6        17.2817277        1        66        69.7458068        1
     7        18.8077710        1        67        70.3754719        1
     8        19.7426002        1        68        72.2809636        1
     9        19.9277029        1        69        73.5861102        1
    10        20.5899125        1        70        75.2231430        1
    11        21.4863331        1        71        76.8150062        1
    12        21.8689583        1        72        83.2918963        1
    13        24.0816065        1        73        89.1559787        1
    14        24.8430101        1        74        95.2492722        1
    15        25.3703149        1        75        95.7778340        1
    16        27.4441072        1        76       114.4372253        1
    17        28.7472653        1        77       152.2257681        1
    18        29.8048964        1        78       154.8843879        1
    19        30.8730331        1        79       161.2563075        1
    20        31.7310111        1        80       165.9693472        1
    21        32.2312642        1        81       175.9453637        1
    22        32.2491932        1        82       493.2785422        1
    23        32.6309695        1        83       502.7254145        1
    24        33.1560727        1        84        12.3523541        2
    25        33.6178532        1        85        14.7585083        2
    26        33.8931578        1        86        15.2222241        2
    27        34.7717809        1        87        17.6390640        2
    28        35.2867207        1        88        22.4561260        2
    29        36.5893885        1        89        24.9280615        2
    30        37.5193143        1        90        30.5067144        2
    31        37.7639558        1        91        31.8531422        2
    32        38.5903249        1        92        32.2017584        2
    33        39.8951762        1        93        33.6995294        2
    34        41.0315881        1        94        34.5413463        2
    35        41.6865463        1        95        36.0656705        2
    36        42.8674399        1        96        37.8560377        2
    37        43.2370834        1        97        38.9009231        2
    38        43.6479955        1        98        39.5780990        2
    39        45.4565480        1        99        42.0264024        2
    40        45.8298594        1       100        43.4718197        2
    41        46.4340291        1       101        44.3702994        2
    42        47.2988794        1       102        46.1383912        2
    43        48.2853412        1       103        48.7923521        2
    44        48.8921849        1       104        50.7001501        2
    45        49.2097723        1       105        50.9185407        2
    46        51.3800367        1       106        51.0877637        2
    47        51.5170166        1       107        51.9608383        2
    48        51.7380258        1       108        53.2858372        2
    49        52.1541936        1       109        53.4882595        2
    50        52.5541029        1       110        54.0386505        2
    51        52.7509773        1       111        54.6977017        2
    52        53.7397068        1       112        55.4220571        2
    53        54.0570814        1       113        56.2635764        2
    54        55.0072795        1       114        62.0977542        2
    55        55.9463564        1       115        62.4183502        2
    56        56.5136108        1       116        68.6246086        2
    57        57.2184889        1       117        71.4185831        2
    58        58.0651543        1       118        73.3644893        2
    59        58.1516527        1       119        75.1035958        2
    60        59.2125286        1       120        82.2388748        2
------------------------------------------------------------------------
  @CHECKOUT-I, Total execution time (CPU/WALL):       22.52/      23.19 seconds.
--executable xvtran finished with status     0 in       23.30 seconds (walltime).
 --invoking executable--
/home/nike/cfour_v2.00beta/cfour_v2.00beta/bin/xintprc
 @GETMEM-I,  Allocated   11444 MB of main memory.
  @GMOIAA-I, Processing MO integrals for spin case AA.
  @GMOIAA-I, Generation of integral list completed.
                      TYPE                NUMBER
                      ----               --------
                      PPPP              13493011
                      PPPH                     0
                      PPHH                     0
                      PHPH                     0
                      PHHH                     0
                      HHHH                     0

                     TOTAL              13493011
  @DS16AB-I, Sort of HHHHAB will be done in core.
   Words required:    1805 Words available:********.
  @ST16AB-I, Processing integral type HHHH spin case AB.
  @DS25AA-I, PHHHAA integrals will be sorted in core.
     Words required:        7  Words available: ********
  @ST25AA-I, Processing integral type PHHH spin case AA.
  @DS25AB-I, PHHHAB integrals will be sorted in core.
     Words required:     5405  Words available: ********
  @ST25AB-I, Processing integral type PHHH spin case AB.
  @STT3AA-I, Processing integral type PPHH spin case AAAA.
  @STT4AA-I, Processing integral type PHPH, spin case AAAA.
  @DS25AB-I, PPPHAB integrals will be sorted in core.
     Words required:    19805  Words available: ********
  @ST25AB-I, Processing integral type PPPH spin case AB.
  @DS16AB-I, Sort of PPPPAB will be done in core.
   Words required:******** Words available:********.
  @ST16AB-I, Processing integral type PPPP spin case AB.
  ALPHA EIGENVALUES 
  12.22967  12.77568  14.54407  15.06423  16.57085  17.28173  18.80777
  19.74260  19.92770  20.58991  21.48633  21.86896  24.08161  24.84301
  25.37031  27.44411  28.74727  29.80490  30.87303  31.73101  32.23126
  32.24919  32.63097  33.15607  33.61785  33.89316  34.77178  35.28672
  36.58939  37.51931  37.76396  38.59032  39.89518  41.03159  41.68655
  42.86744  43.23708  43.64800  45.45655  45.82986  46.43403  47.29888
  48.28534  48.89218  49.20977  51.38004  51.51702  51.73803  52.15419
  52.55410  52.75098  53.73971  54.05708  55.00728  55.94636  56.51361
  57.21849  58.06515  58.15165  59.21253  60.85977  61.28292  65.35168
  66.07843  68.34766  69.74581  70.37547  72.28096  73.58611  75.22314
  76.81501  83.29190  89.15598  95.24927  95.77783 114.43723 152.22577
 154.88439 161.25631 165.96935 175.94536 493.27854 502.72541  12.35235
  14.75851  15.22222  17.63906  22.45613  24.92806  30.50671  31.85314
  32.20176  33.69953  34.54135  36.06567  37.85604  38.90092  39.57810
  42.02640  43.47182  44.37030  46.13839  48.79235  50.70015  50.91854
  51.08776  51.96084  53.28584  53.48826  54.03865  54.69770  55.42206
  56.26358  62.09775  62.41835  68.62461  71.41858  73.36449  75.10360
  82.23887
  BETA EIGENVALUES 
  12.22967  12.77568  14.54407  15.06423  16.57085  17.28173  18.80777
  19.74260  19.92770  20.58991  21.48633  21.86896  24.08161  24.84301
  25.37031  27.44411  28.74727  29.80490  30.87303  31.73101  32.23126
  32.24919  32.63097  33.15607  33.61785  33.89316  34.77178  35.28672
  36.58939  37.51931  37.76396  38.59032  39.89518  41.03159  41.68655
  42.86744  43.23708  43.64800  45.45655  45.82986  46.43403  47.29888
  48.28534  48.89218  49.20977  51.38004  51.51702  51.73803  52.15419
  52.55410  52.75098  53.73971  54.05708  55.00728  55.94636  56.51361
  57.21849  58.06515  58.15165  59.21253  60.85977  61.28292  65.35168
  66.07843  68.34766  69.74581  70.37547  72.28096  73.58611  75.22314
  76.81501  83.29190  89.15598  95.24927  95.77783 114.43723 152.22577
 154.88439 161.25631 165.96935 175.94536 493.27854 502.72541  12.35235
  14.75851  15.22222  17.63906  22.45613  24.92806  30.50671  31.85314
  32.20176  33.69953  34.54135  36.06567  37.85604  38.90092  39.57810
  42.02640  43.47182  44.37030  46.13839  48.79235  50.70015  50.91854
  51.08776  51.96084  53.28584  53.48826  54.03865  54.69770  55.42206
  56.26358  62.09775  62.41835  68.62461  71.41858  73.36449  75.10360
  82.23887

  @FORMT2-I, Second-order MP correlation energies:
            ------------------------------------------------
            E(SCF)                  =   2003.370504232936 a.u.
            E2(AA)                  =      0.000000000000 a.u.
            E2(AB)                  =      0.000000000000 a.u.
            E2(TOT)                 =      0.000000000000 a.u.
            Total MP2 energy        =   2003.370504232936 a.u.
            ------------------------------------------------
------------------------------------------------------------------------
          Core memory requirement for full matrix algorithms

    Contraction or quantity             Memory needed (words)
                                      C1                     C s
------------------------------------------------------------------------
  Particle-particle ladder (AB)   207360000                68194564
  Hole-hole ladder (AB)                   0                       0
  Fourth-order singles (AB)               0                       0
  Rings (AB)                              0                       0
  T2 vector (AB)                          0                       0
  T2 vector (AA)                          0                       0
------------------------------------------------------------------------
------------------------------------------------------------------------
     Floating point operations required for full  matrix algorithms

  Term            spins   method                    FLOP
                                           C1                 C s
------------------------------------------------------------------------
 a) contributions to the intermediates :
 
 T2 --> W(MNIJ)  (ABAB)   2 - 7                0                 0
 
 T1 --> W(MNIJ)  (ABAB)     7                  0                 0
 
 T2 --> W(MBEJ)  (AAAA)   3 - 7                0                 0
 T2 --> W(MBEJ)  (ABAB)   3 - 7                0                 0
 T2 --> W(MBEJ)  (BAAB)   3 - 7                0                 0
 
 T1 --> W(MBEJ)  (AAAA)     7                  0                 0
 T1 --> W(MBEJ)  (ABAB)     7                  0                 0
 T1 --> W(MBEJ)  (BAAB)     7                  0                 0
 
 T1 --> W(ABEF)  (ABAB)     7                  0                 0
 
 T2 --> F(MI)    (AA)     3 - 7                0                 0
 
 T2 --> F(AE)    (AA)     3 - 7                0                 0
 
b) contractions
------------------------------------------------------------------------
 
 W(ABEF) --> T2 (ABAB)    1 - 7                0                 0
 
 W(MNIJ) --> T2 (ABAB)    1 - 7                0                 0
 
 W(MBEJ) --> T2 (ABAB)    1 - 7                0                 0
 W(MBEJ) --> T2 (BAAB)    1 - 7                0                 0
 
 F(MI) --> T2   (ABAB)    2 - 7                0                 0
 
 F(AE) --> T2   (ABAB)    2 - 7                0                 0
 
c) direct contributions
------------------------------------------------------------------------
 
 T2 --> T1       (AA)     3,4,6,7              0                 0
 
 T1 --> T2      (ABAB)     6,7                 0                 0
 
 T1**2 --> T2   (ABAB)      7                  0                 0
 T1**2 --> T2   (BAAB)      7                  0                 0
 
d) total number of operations for various methods
------------------------------------------------------------------------
 
 MBPT(3)                        (1)            0                 0
 DQ-MBPT(4)                     (2)            0                 0
 SDQ-MBPT(4)                    (3)            0                 0
 CCD          per iteration     (5)            0                 0
 QCISD        per iteration     (6)            0                 0
 CCSD         per iteration     (7)            0                 0
 
------------------------------------------------------------------------
  @CHECKOUT-I, Total execution time (CPU/WALL):        3.87/       5.84 seconds.
--executable xintprc finished with status     0 in        5.99 seconds (walltime).
  calling xvcc 
 --invoking executable--
/home/nike/cfour_v2.00beta/cfour_v2.00beta/bin/xvcc
 @GETMEM-I,  Allocated   11444 MB of main memory.
   CCSD(T) energy will be calculated.
   Correlation energies computed from initial T amplitudes: 
   Initial T amplitudes: 
   The AA contribution to the correlation energy is:    0.0000000 a.u.
   The AB contribution to the correlation energy is:    0.0000000 a.u.
   The total correlation energy is  0.000000000000 a.u.
   The total correlation energy is  0.000000000000 a.u.
  W(    ) AB contribution =  0.0000000000 a.u.
  W(    ) AB contribution =  0.0000000000 a.u.
  W(mbej) AB contribution =  0.0000000000 a.u.
   After   1 iterations, amplitude changes are:
    -------------------------------------------------------------------
                 Spin      RMS          Max.      Max. change for
     Amplitude   Case     Change       Change       i    j    a    b
    -------------------------------------------------------------------
    -------------------------------------------------------------------
   The AA contribution to the correlation energy is:    0.0000000 a.u.
   The AB contribution to the correlation energy is:    0.0000000 a.u.
   The total correlation energy is  0.000000000000 a.u.
   The total correlation energy is  0.000000000000 a.u.
  Current DIIS expansion coefficients : 
 [   1] 1.0000000000
  Convergence information after     1 iterations: 
  Largest element of residual vector :  0.24209217-321.
  Largest element of DIIS residual   :  0.00000000E+00.
  Amplitude equations converged in     1iterations.
   The AA contribution to the correlation energy is:    0.0000000 a.u.
   The AB contribution to the correlation energy is:    0.0000000 a.u.
   The total correlation energy is  0.000000000000 a.u.
   The total correlation energy is  0.000000000000 a.u.
   The CC iterations have converged.

       Summary of iterative solution of CC equations 
      -----------------------------------------------------------
                       Correlation           Total
       Iteration         Energy              Energy
      -----------------------------------------------------------
            0         0.000000000000    2003.370504232936  DIIS 
            1         0.000000000000    2003.370504232936  DIIS 
      -----------------------------------------------------------
      A miracle has come to pass. The CC iterations have converged.
 @DIMT3-I, Dimensions of T3 amplitudes : 
               # abc          # ijk       Symmetry    Spin 
                   147159              0     1          1
                   133681              0     2          1
                   451354              0     1          2
                   405446              0     2          2
                   451354              0     1          3
                   405446              0     2          3
                   147159              0     1          4
                   133681              0     2          4
 @DIMT3-I, Dimensions of T3 amplitudes : 
               # abc          # ijk       Symmetry    Spin 
                   147159              0     1          1
                   133681              0     2          1
                   451354              0     1          2
                   405446              0     2          2
                   451354              0     1          3
                   405446              0     2          3
                   147159              0     1          4
                   133681              0     2          4
 @TRPS-I, Welcome to TRPS. Watch your RUs ! 
 @TRPS-I, Method is CCSD(T) 
 @TRPS-I, Calculation type is energy 
 @TRPS-I, Reference function information : 
          Reference function is Hartree-Fock 
          Reference function is RHF Hartree-Fock 
 @TRPS-I, INT1 is true 
 @TRPS-I, INT2 is false 
 @TRPS-I, Lengths of ijka integrals. #1          0
                                     #2          0
                                     #3          0
                                     #4          0
                                    Max          0
 @INITRP-I, Initializing W intermediate lists. 
 @CCENRG-I, CCSD/QCISD energy will now be evaluated. 
 @CCENRG-I, Correlation energies. ECCAA        0.000000000000
                                  ECCBB        0.000000000000
                                  ECCAB        0.000000000000
                                  Total        0.000000000000
 @CCENRG-I, Reference   energy    2003.370504232936
            CCSD/QCISD energy     2003.370504232936
          E4T (T(CCSD)) =  0.000000000000
          E5ST          =  0.000000000000
          E4ST          =  0.000000000000
          In other words  
          <T3[2](Dagger) D3  T3[2]> =  0.000000000000
          <T1   (Dagger) Q1 WT3[2]> =  0.000000000000
          <T2   (Dagger) Q2 FT3[2]> =  0.000000000000
        E(CCSD)           =    2003.370504232936
        E(CCSD + T(CCSD)) =    2003.370504232936
        E(CCSD(T))        =    2003.370504232936
  @CHECKOUT-I, Total execution time (CPU/WALL):        0.06/       0.08 seconds.
--executable xvcc finished with status     0 in        0.26 seconds (walltime).
  The final electronic energy is      2003.370504232935673 a.u. 
  This computation required                          190.19 seconds (walltime).
