 --invoking executable--
/home/nike/cfour_v2.00beta/cfour_v2.00beta/bin/xjoda


   *************************************************************************
         <<<     CCCCCC     CCCCCC   |||     CCCCCC     CCCCCC   >>>
       <<<      CCC        CCC       |||    CCC        CCC         >>>
      <<<      CCC        CCC        |||   CCC        CCC            >>>
    <<<        CCC        CCC        |||   CCC        CCC              >>>
      <<<      CCC        CCC        |||   CCC        CCC            >>>
       <<<      CCC        CCC       |||    CCC        CCC         >>>
         <<<     CCCCCC     CCCCCC   |||     CCCCCC     CCCCCC   >>>
   *************************************************************************

     ****************************************************************
     * CFOUR Coupled-Cluster techniques for Computational Chemistry *
     ****************************************************************
 

   Department of Chemistry                Institut fuer Physikalische Chemie
   University of Texas at Austin          Universitaet Mainz
   Austin, TX  78712, USA                 D-55099 Mainz, Germany
 
                       Version 2.00beta
 
                     blg8446.int.ets1.calculquebec.ca                  
                     Di 25. Feb 00:25:46 EST 2020                      
                     integer*8 version is running
 
********************************************************************************
*                          Input from ZMAT file                                *
********************************************************************************
TITLE                                                                           
Si 0.000000  0.000000 -1.165500                                                 
Si 0.000000  0.000000  1.165500                                                 
H  1.399330  0.000000  1.683128                                                 
H -1.399330  0.000000 -1.683128                                                 
H  0.699500  1.211600 -1.683128                                                 
H  0.699500 -1.211600 -1.683128                                                 
H -0.699500 -1.211600  1.683128                                                 
H -0.699500  1.211600  1.683128                                                 
                                                                                
*ACES2(CALC=CCSD(T)                                                             
#UNITS=BOHR                                                                     
#GEOM=2.6729874*10/5.29177210903_Pentasilane_def2-QZVP_pbe                      
COORD=CARTESIAN                                                                 
#COORD=INTERNAL                                                                 
PRINT=4                                                                         
JODA_PRINT=4                                                                    
INPUT_MRCC=OFF                                                                  
#CC_PROG=MRCC                                                                   
FROZEN_CORE=ON                                                                  
#DROPMO=1>5                                                                     
CONTRACTION=GENERAL                                                             
#CONTRACTION=SEGMENTED                                                          
RELATIVISTIC=OFF                                                                
#EXCITE=EOMEE                                                                   
#ESTATE_CONV=5                                                                  
#ESTATE_SYM=2/2/2/2/2/2/2/2                                                     
XFORM_TOL=18                                                                    
SAVE_INTS=ON                                                                    
SCF_EXPORDER=6                                                                  
SCF_EXPSTART=5                                                                  
#SCF_DAMPING=1000                                                               
SCF_EXTRAPOLATION=ON                                                            
SCF_CONV=12                                                                     
SCF_MAXCYC=99999                                                                
CC_CONV=9                                                                       
CC_MAXCYC=999                                                                   
T3_EXTRAPOL=ON                                                                  
REFERENCE=RHF                                                                   
#SYMMETRY=OFF                                                                   
#HFSTABILITY=FOLLOW                                                             
CHARGE=+0                                                                       
MULT=1                                                                          
ABCDTYPE=STANDARD                                                               
#OCCUPATION=3-2-2-0-1-0-0-0/3-1-1-0-1-0-0-0                                     
MEM=12                                                                          
MEM_UNIT=GB                                                                     
BASIS=SPECIAL)                                                                  
                                                                                
SI:def2-TZVPP                                                                   
SI:def2-TZVPP                                                                   
H:def2-TZVPP                                                                    
H:def2-TZVPP                                                                    
H:def2-TZVPP                                                                    
H:def2-TZVPP                                                                    
H:def2-TZVPP                                                                    
H:def2-TZVPP                                                                    
                                                                                
********************************************************************************
  @GTFLGS-W, Keyword #UNITS not known and is ignored.
  @GTFLGS-W, Keyword #GEOM not known and is ignored.
  @GTFLGS-W, Keyword #COORD not known and is ignored.
  @GTFLGS-W, Keyword #CC_PROG not known and is ignored.
  @GTFLGS-W, Keyword #DROPMO not known and is ignored.
  @GTFLGS-W, Keyword #CONTRACTION not known and is ignored.
  @GTFLGS-W, Keyword #EXCITE not known and is ignored.
  @GTFLGS-W, Keyword #ESTATE_CONV not known and is ignored.
  @GTFLGS-W, Keyword #ESTATE_SYM not known and is ignored.
  @GTFLGS-W, Keyword #SCF_DAMPING not known and is ignored.
  @GTFLGS-W, Keyword #SYMMETRY not known and is ignored.
  @GTFLGS-W, Keyword #HFSTABILITY not known and is ignored.
  @GTFLGS-W, Keyword #OCCUPATION not known and is ignored.
    -------------------------------------------------------------------
                    CFOUR Control Parameters 
    -------------------------------------------------------------------
        External           Internal           Value            Units
          Name               Name
    -------------------------------------------------------------------
       ABCDTYPE             IABCDT         STANDARD     [  0]   ***   
       ANHARMONIC           IANHAR         OFF          [  0]   ***   
       ANH_ALGORIT          IANALG         STANDARD     [  0]   ***   
       ANH_DERIVAT          IANDER         SECOND       [  1]   ***   
       ANH_STEPSIZ          ICUBST             50000          x 10-6  
       ANH_SYMMETR          IANHSM         ABELIAN      [  0]   ***   
       AO_LADDERS           IAOLAD         SINGLEPASS   [  1]   ***   
       BASIS                IBASIS         SPECIAL      [  0]   ***   
       BREIT                IBREIT         OFF          [  0]   ***   
       BRUCK_CONV           IBRTOL          10D-  4             ***   
       BRUECKNER            IBRKNR             OFF      [  0]   ***   
       BUFFERSIZE           IBUFFS            600               ***   
       CACHE_RECS           ICHREC             10               ***   
       CALCLEVEL            ICLLVL           CCSD(T)    [ 22]   ***   
       CCORBOPT             ICCORB             OFF      [  0] x 0.01  
       CC_CONV              ICCCNV          10D-  9             ***   
       CC_EXPORDER          ICCEOR              5               ***   
       CC_EXTRAPOL          ICCEXT             DIIS     [  1]   ***   
       CC_MAXCYC            ICCCYC            999              cycles 
       CC_PROGRAM           ICCPRO         VCC          [  0]   ***   
       CHARGE               ICHRGE              0               ***   
       CHOLESKY             ICHOLE         OFF          [  0]   ***   
       CIS_CONV             ICISTL              5               ***   
       COMM_SIZE            IPSIZE            ***               ***   
       CONSTANT             ICONST         OLD          [  1]   ***   
       CONTINUUM            ICONTU         NONE         [  0]   ***   
       CONTRACTION          ICNTYP          GENERAL     [  1]   ***   
       COORDINATES          ICOORD         CARTESIAN    [  1]   ***   
       CPHF_CONVER          ICPHFT          10D- 16             ***   
       CPHF_MAXCYC          ICPHFC             64              cycles 
       CUBIC                ICUBIC         OFF          [  0]   ***   
       CURVILINEAR          ICURVY            OFF       [  0]   ***   
       DBOC                 IDBOC          OFF          [  0]   ***   
       DCT                  IDCT           OFF          [  0]   ***   
       DERIV_LEV            IDRLVL            ZERO      [  0]   ***   
       DIAG_MRCC            IEOMST          10D-  0             ***   
       DIFF_TYPE            IDIFTY         RELAXED      [  0]   ***   
       DIRECT               IDIRCT         OFF          [  0]   ***   
       DROPMO               IDRPMO      NONE         
       ECP                  IECP           OFF          [  0]   ***   
       EIGENVECTOR          IVEC                1               ***   
       EL_ANHARM            IELANH         OFF          [  0]   ***   
       EOMFOLLOW            IEOMSR         ENERGY       [  0]   ***   
       EOM_MRCC             IMRCCE         NEW          [  1]   ***   
       EOM_NONIT            EOMNON         OFF          [  0]   ***   
       EOM_NSING            IEOMSI          10D-  0             ***   
       EOM_NSTATES          IMRCCD         DAVIDSON     [  0]   ***   
       EOM_NTRIP            IEOMTR          10D-  0             ***   
       EOM_ORDER            IEXORD         ENERGY       [  0]   ***   
       ESTATE_CONV          IEXTOL          10D-  5             ***   
       ESTATE_DIAG          IEXDIG         ITERATIVE    [  0]   ***   
       ESTATE_LOCK          IESLOC         ON           [  1]   ***   
       ESTATE_MAXC          IEXMXC             20               ***   
       ESTATE_PROP          IEXPRP         OFF          [  0]   ***   
       EVAL_HESS            IRECAL              0            # of cyc.
       EXCITATION           IEXCIT              0               ***   
       EXCITE               IEXCIT         NONE         [  0]   ***   
       FCGRADNEW            IFCGNW         OFF          [  0]   ***   
       FC_FIELD             IFINFC              0             x 10-6  
       FD_CALTYPE           IFDCAL         GRADONLY     [  0]   ***   
       FD_PROJECT           IFDPRJ         OFF          [  1]   ***   
       FD_STEPSIZE          IDISFD              0            10-4 bohr
       FD_USEGROUP          IFDGRP         FULL         [  0]   ***   
       FILE_RECSIZ          IFLREC              4096           words  
       FINITE_PERT          IFIPER              0             x 10-6  
       FIXGEOM              IFIXGM         OFF          [  0]   ***   
       FOCK                 IFOCK          AO           [  1]   ***   
       FREQ_ALGORI          IVIALG         STANDARD     [  0]   ***   
       FROZEN_CORE          IFROCO         ON           [  1]   ***   
       FROZEN_VIRT          IFROVI         OFF          [  0]   ***   
       GAMMA_ABCD           IGABCD         STORE        [  0]   ***   
       GAMMA_ABCI           IGABCI         STORE        [  0]   ***   
       GENBAS_1             IGNBS1              0               ***   
       GENBAS_2             IGNBS2              0               ***   
       GENBAS_3             IGNBS3              0               ***   
       GENBAS_4             IGNBS4              0               ***   
       GEO_CONV             ICONTL              5              H/bohr 
       GEO_MAXCYC           IOPTCY             50               ***   
       GEO_MAXSTEP          IMXSTP            300            millibohr
       GEO_METHOD           INR            SINGLE_POINT [  5]   ***   
       GIAO                 IGIAO          OFF          [  1]   ***   
       GIMIC                IGIMIC         OFF          [  0]   ***   
       GRID                 IGRID          OFF          [  0]   ***   
       GRID_ALGO            IGALGO         SERIAL       [  0]   ***   
       GUESS                IGUESS            MOREAD    [  0]   ***   
       HBAR                 IHBAR              OFF      [  0]   ***   
       HESS_TYPE            IHESTP         SCF          [  0]   ***   
       HF2_FILE             IHF2Fl         USE          [  1]   ***   
       HFSTABILITY          ISTABL         OFF          [  0]   ***   
       INCORE               INCORE             OFF      [  0]   ***   
       INPUT_MRCC           IMRCC          OFF          [  0]   ***   
       INTEGRALS            INTTYP             VMOL     [  1]   ***   
       JODA_PRINT           IJPRNT              4               ***   
       LINDEP_TOL           ILINDP              8               ***   
       LINEQ_CONV           IZTACN          10D-  7           cycles  
       LINEQ_EXPOR          ILMAXD              5               ***   
       LINEQ_MAXCY          ILMAXC             50               ***   
       LINEQ_TYPE           ILTYPE         DIIS         [  1]   ***   
       LOCK_ORBOCC          ILOCOC             OFF      [  0]   ***   
       MEMORY_SIZE          IMEMSZ         *********           words  
       MEM_UNIT             IMEMU          GB           [  3]   ***   
       MRCC                 IMRCCC         OFF          [  0]   ***   
       MULTIPLICTY          IMULTP              1               ***   
       NEGEVAL              IDIE             ABORT      [  0]   ***   
       NEWNORM              INEWNO         OFF          [  0]   ***   
       NON-HF               INONHF             OFF      [  0]   ***   
       NTOP_TAMP            ITOPT2             15               ***   
       NUC_MODEL            INUCMO         POINT        [  0]   ***   
       OCCUPATION           IOCCU   ESTIMATED BY SCF 
       OPEN-SHELL           IOPEN          SPIN-ORBITAL [  0]   ***   
       ORBITALS             IORBTP           STANDARD   [  0]   ***   
       PARALLEL             IPARAL         ON           [  1]   ***   
       PARA_INT             IPINTS         ON           [  1]   ***   
       PARA_PRINT           IPPRIN              0               ***   
       PERT_ORB             IPTORB         STANDARD     [  0]   ***   
       POINTS               IGRDFD              0               ***   
       PRINT                IPRNT               4               ***   
       PROPS                IPROPS             OFF      [  0]   ***   
       PROP_INTEGR          IINTYP         INTERNAL     [  0]   ***   
       PSI                  IPSI           OFF          [  0]   ***   
       QUARTIC              IQUART         OFF          [  0]   ***   
       RAMAN_INT            IRAMIN         OFF          [  0]   ***   
       RAMAN_ORB            IRAMRE         UNRELAXED    [  0]   ***   
       RDO                  IRDOFM             OFF      [  0]   ***   
       REFERENCE            IREFNC             RHF      [  0]   ***   
       RELATIVIST           IRELAT         OFF          [  0]   ***   
       RELAX_DENS           IRDENS             OFF      [  0]   ***   
       RESET_FLAGS          IRESET             OFF      [  0]   ***   
       RESTART_CC           ICCRES         OFF          [  0]   ***   
       ROT_EVEC             ROTVEC              0               ***   
       SAVE_INTS            ISVINT              ON      [  1]   ***   
       SCALE_ON             ISTCRT              0               ***   
       SCF_CONV             ISCFCV          10D- 12             ***   
       SCF_DAMPING          IDAMP               0             x 10-3  
       SCF_EXPORDE          IRPPOR              6               ***   
       SCF_EXPSTAR          IRPPLS              5               ***   
       SCF_EXTRAPO          IRPP                ON      [  1]   ***   
       SCF_MAXCYC           ISCFCY            ***              cycles 
       SCF_NOSTOP           ISCFST         OFF          [  0]   ***   
       SCF_PRINT            ISCFPR              0               ***   
       SD_FIELD             IFINSD              0             x 10-6  
       SEQUENCE             ISEQUE         OFF          [  0]   ***   
       SOPERT               IPERSO         OFF          [  0]   ***   
       SPHERICAL            IDFGHI             ON       [  1]   ***   
       SPINORBIT            ISOCAL         OFF          [  0]   ***   
       SPINROTATIO          ISRCON         OFF          [  0]   ***   
       SPIN_FLIP            ISPFLP         OFF          [  0]   ***   
       SPIN_ORBIT           ISPORB         OFF          [  0]   ***   
       SPIN_SCAL            ISCSMP         OFF          [  0]   ***   
       SUBGROUP             ISUBGP         DEFAULT      [  0]   ***   
       SUBGRPAXIS           ISBXYZ         X            [  0]   ***   
       SYMMETRY             ISYM             ON         [  0]   ***   
       SYM_CHECK            ISYMCK         OVERRIDE     [  1]   ***   
       T3_EXTRAPOL          IT3EXT         ON           [  1]   ***   
       TAMP_SUM             IEVERY              5               ***   
       TESTSUITE            ITESTS         OFF          [  0]   ***   
       THERMOCH             ITHERM         OFF          [  0]   ***   
       TOL_CHOLESK          ITOLCH          10D-  4             ***   
       TRANGRAD             IRESRM         OFF          [  0]   ***   
       TRANS_INV            ITRAIN         USE          [  0]   ***   
       TREAT_PERT           ITREAT         SIMULTANEOUS [  0]   ***   
       UIJ_THRESHO          IUIJTH              1               ***   
       UNITS                IUNITS         ANGSTROM     [  0]   ***   
       UNOS                 IUNOS          OFF          [  0]   ***   
       UPDATE_HESS          IHUPDT         ON           [  1]   ***   
       VIBPHASE             ISETPH         STANDARD     [  0]   ***   
       VIBRATION            IVIB              NO        [  0]   ***   
       VIB_ALGORIT          IGEALG         STANDARD     [  0]   ***   
       VNATORB              IVNORB         OFF          [  0]   ***   
       VTRAN                IVTRAN         FULL/PARTIAL [  0]   ***   
       XFIELD               IXEFLD              0             x 10-6  
       XFORM_TOL            IXFTOL          10D- 18             ***   
       YFIELD               IYEFLD              0             x 10-6  
       ZFIELD               IZEFLD              0             x 10-6  
    -------------------------------------------------------------------
  @GETXYZ-I,     8 atoms read from ZMAT.
  1  SI        14    27.97693
  2  SI        14    27.97693
  3  H          1     1.00783
  4  H          1     1.00783
  5  H          1     1.00783
  6  H          1     1.00783
  7  H          1     1.00783
  8  H          1     1.00783
  1  SI        14    27.97693
  2  SI        14    27.97693
  3  H          1     1.00783
  4  H          1     1.00783
  5  H          1     1.00783
  6  H          1     1.00783
  7  H          1     1.00783
  8  H          1     1.00783
   27.9769271000
   27.9769271000
    1.0078250350
    1.0078250350
    1.0078250350
    1.0078250350
    1.0078250350
    1.0078250350
 After translation to center of mass coordinates 
        0.000000000000    0.000000000000   -2.202476259838
        0.000000000000    0.000000000000    2.202476259838
        2.644351012166    0.000000000000    3.180651619278
       -2.644351012166    0.000000000000   -3.180651619278
        1.321863701207    2.289592652441   -3.180651619278
        1.321863701207   -2.289592652441   -3.180651619278
       -1.321863701207   -2.289592652441    3.180651619278
       -1.321863701207    2.289592652441    3.180651619278
  Inertia tensor (amu*bohr**2)
  353.73391    0.00000   -0.00400
    0.00000  353.73949    0.00000
   -0.00400    0.00000   42.27163
    Inertia tensor:
      353.733908039102    0.000000000000   -0.003998012419
        0.000000000000  353.739492471106    0.000000000000
       -0.003998012419    0.000000000000   42.271625893305
    Principal axis orientation for molecular system: 
       -2.202476259657    0.000028271569    0.000000000000
        2.202476259657   -0.000028271569    0.000000000000
        3.180685562607    2.644310184261    0.000000000000
       -3.180685562607   -2.644310184261    0.000000000000
       -3.180634651223    1.321904528785    2.289592652441
       -3.180634651223    1.321904528785   -2.289592652441
        3.180634651223   -1.321904528785   -2.289592652441
        3.180634651223   -1.321904528785    2.289592652441
    Diagonalized inertia tensor:
       42.271625841985    0.000000000000    0.000000000000
        0.000000000000  353.733908090422    0.000000000000
        0.000000000000    0.000000000000  353.739492471106
    Eigenvectors of inertia tensor: 
        0.000012836265    0.999999999918    0.000000000000
        0.000000000000    0.000000000000    1.000000000000
        0.999999999918   -0.000012836265    0.000000000000
 factor:   60.1997200000000     
   Rotational constants (in cm-1): 
          0.1701809419             0.1701836285             1.4241165037
   Rotational constants (in MHz): 
       5101.8970011029          5101.9775445126         42693.9446936883
  @SYMMETRY-I, Handedness of inertial frame: 1.00000
  @SYMMETRY-I, The symmetry group is 1-fold degenerate.
  @SYMMETRY-I, The molecule belongs to an Abelian group.
   Principal axis orientation for molecule:
       -2.202476259657    0.000028271569    0.000000000000
        2.202476259657   -0.000028271569    0.000000000000
        3.180685562607    2.644310184261    0.000000000000
       -3.180685562607   -2.644310184261    0.000000000000
       -3.180634651223    1.321904528785    2.289592652441
       -3.180634651223    1.321904528785   -2.289592652441
        3.180634651223   -1.321904528785   -2.289592652441
        3.180634651223   -1.321904528785    2.289592652441
   Reflection in plane  3 is a valid symmetry operation.
   Rotation about  3 is a valid symmetry operation 
   The molecule possesses an inversion center. 
  Symmetry bits:    4   4   1
********************************************************************************
   The full molecular point group is C2h .
   The largest Abelian subgroup of the full molecular point group is C2h .
   The computational point group is C2h .
********************************************************************************
 ----------------------------------------------------------------
 Z-matrix   Atomic            Coordinates (in bohr)
  Symbol    Number           X              Y              Z
 ----------------------------------------------------------------
     SI       14        -2.20247626     0.00002827     0.00000000
     SI       14         2.20247626    -0.00002827     0.00000000
     H         1         3.18068556     2.64431018     0.00000000
     H         1        -3.18068556    -2.64431018     0.00000000
     H         1        -3.18063465     1.32190453     2.28959265
     H         1        -3.18063465     1.32190453    -2.28959265
     H         1         3.18063465    -1.32190453    -2.28959265
     H         1         3.18063465    -1.32190453     2.28959265
 ----------------------------------------------------------------
   Interatomic distance matrix (Angstroms) 
 
                 SI            SI            H             H             H    
                [ 1]        [ 2]        [ 3]        [ 4]        [ 5]
  SI   [ 1]     0.00000
  SI   [ 2]     2.33100     0.00000
  H    [ 3]     3.17377     1.49200     0.00000
  H    [ 4]     1.49200     3.17377     4.37769     0.00000
  H    [ 5]     1.49171     3.17363     3.64547     2.42344     0.00000
  H    [ 6]     1.49171     3.17363     3.64547     2.42344     2.42320
  H    [ 7]     3.17363     1.49171     2.42344     3.64547     4.37730
  H    [ 8]     3.17363     1.49171     2.42344     3.64547     3.64539
 
                 H             H             H    
                [ 6]        [ 7]        [ 8]
  H    [ 6]     0.00000
  H    [ 7]     3.64539     0.00000
  H    [ 8]     4.37730     2.42320     0.00000
  Inertia tensor (amu*bohr**2)
   42.27163    0.00000    0.00000
    0.00000  353.73391    0.00000
    0.00000    0.00000  353.73949
   Rotational constants (in cm-1): 
          1.4241165037             0.1701836285             0.1701809419
   Rotational constants (in MHz): 
      42693.9446936883          5101.9775445126          5101.8970011029
  @GTFLGS-W, Keyword #UNITS not known and is ignored.
  @GTFLGS-W, Keyword #GEOM not known and is ignored.
  @GTFLGS-W, Keyword #COORD not known and is ignored.
  @GTFLGS-W, Keyword #CC_PROG not known and is ignored.
  @GTFLGS-W, Keyword #DROPMO not known and is ignored.
  @GTFLGS-W, Keyword #CONTRACTION not known and is ignored.
  @GTFLGS-W, Keyword #EXCITE not known and is ignored.
  @GTFLGS-W, Keyword #ESTATE_CONV not known and is ignored.
  @GTFLGS-W, Keyword #ESTATE_SYM not known and is ignored.
  @GTFLGS-W, Keyword #SCF_DAMPING not known and is ignored.
  @GTFLGS-W, Keyword #SYMMETRY not known and is ignored.
  @GTFLGS-W, Keyword #HFSTABILITY not known and is ignored.
  @GTFLGS-W, Keyword #OCCUPATION not known and is ignored.
  There are  10 frozen-core orbitals.
  There are  168 basis functions.
 @GEOPT-W, Archive file not created for single-point calculation.
  @CHECKOUT-I, Total execution time (CPU/WALL):        0.53/       1.04 seconds.
--executable xjoda finished with status     0 in        2.03 seconds (walltime).
 --invoking executable--
/home/nike/cfour_v2.00beta/cfour_v2.00beta/bin/xvmol
 Serial version of molecule started
********************************************************************************
                    Input from MOL file
********************************************************************************
INTGRL        1    0    1    0    0    0    0    0    0                         
         *** CFOUR Program System (Release V0.1) ***                            
TITLE                                                                           
    3    2 Z  XY      0.10E-08              0    0                              
   9999.00      3.00                                                            
         14.00000000    1    4    1    1    1    1                              
SI#1  -2.202476259656702   0.000028271569115   0.000000000000000                
   14    5                                                                      
   44773.3580780000       5.591476586800000E-004  0.000000000000000E+000        
  0.000000000000000E+000  0.000000000000000E+000  0.000000000000000E+000        
   6717.19921040000       4.320604018900000E-003  0.000000000000000E+000        
  0.000000000000000E+000  0.000000000000000E+000  0.000000000000000E+000        
   1528.89603250000       2.218709646000000E-002  0.000000000000000E+000        
  0.000000000000000E+000  0.000000000000000E+000  0.000000000000000E+000        
   432.547465850000       8.648924911600001E-002  0.000000000000000E+000        
  0.000000000000000E+000  0.000000000000000E+000  0.000000000000000E+000        
   140.615052260000       0.249398897160000       0.000000000000000E+000        
  0.000000000000000E+000  0.000000000000000E+000  0.000000000000000E+000        
   49.8576367240000       0.460171973660000       0.000000000000000E+000        
  0.000000000000000E+000  0.000000000000000E+000  0.000000000000000E+000        
   18.4349748850000       0.342502365750000       0.000000000000000E+000        
  0.000000000000000E+000  0.000000000000000E+000  0.000000000000000E+000        
   86.5338861110000       0.000000000000000E+000  2.130006300700000E-002        
  0.000000000000000E+000  0.000000000000000E+000  0.000000000000000E+000        
   26.6246068460000       0.000000000000000E+000  9.467613931799999E-002        
  0.000000000000000E+000  0.000000000000000E+000  0.000000000000000E+000        
   4.49530571590000       0.000000000000000E+000 -0.326162648590000             
  0.000000000000000E+000  0.000000000000000E+000  0.000000000000000E+000        
   2.10350457100000       0.000000000000000E+000  0.000000000000000E+000        
   1.39808038500000       0.000000000000000E+000  0.000000000000000E+000        
   1.01060949220000       0.000000000000000E+000  0.000000000000000E+000        
  0.638657866990000       0.000000000000000E+000  0.000000000000000E+000        
  0.237017514890000       0.000000000000000E+000  0.000000000000000E+000        
  0.000000000000000E+000   1.00000000000000       0.000000000000000E+000        
  8.570340536200000E-002  0.000000000000000E+000  0.000000000000000E+000        
  0.000000000000000E+000  0.000000000000000E+000   1.00000000000000             
    9    5                                                                      
   394.475036280000       2.628569395900000E-003  0.000000000000000E+000        
  0.000000000000000E+000  0.000000000000000E+000  0.000000000000000E+000        
   93.1376831040000       2.055625774900000E-002  0.000000000000000E+000        
  0.000000000000000E+000  0.000000000000000E+000  0.000000000000000E+000        
   29.5196087420000       9.207026280100000E-002  0.000000000000000E+000        
  0.000000000000000E+000  0.000000000000000E+000  0.000000000000000E+000        
   10.7816637910000       0.255658897390000       0.000000000000000E+000        
  0.000000000000000E+000  0.000000000000000E+000  0.000000000000000E+000        
   4.16265747780000       0.421117071850000       0.000000000000000E+000        
  0.000000000000000E+000  0.000000000000000E+000  0.000000000000000E+000        
   1.62479729890000       0.000000000000000E+000  0.344017463180000             
  0.000000000000000E+000  0.000000000000000E+000  0.000000000000000E+000        
  0.543066604930000       0.000000000000000E+000  0.000000000000000E+000        
   1.00000000000000       0.000000000000000E+000  0.000000000000000E+000        
  0.205820739560000       0.000000000000000E+000  0.000000000000000E+000        
  0.000000000000000E+000   1.00000000000000       0.000000000000000E+000        
  7.005348730600000E-002  0.000000000000000E+000  0.000000000000000E+000        
  0.000000000000000E+000  0.000000000000000E+000   1.00000000000000             
    3    3                                                                      
  0.160000000000000        1.00000000000000       0.000000000000000E+000        
  0.000000000000000E+000                                                        
   2.30300000000000       0.000000000000000E+000   1.00000000000000             
  0.000000000000000E+000                                                        
  0.476000000000000       0.000000000000000E+000  0.000000000000000E+000        
   1.00000000000000                                                             
    1    1                                                                      
  0.336000000000000        1.00000000000000                                     
          1.00000000    1    3    1    1    1                                   
H #2   3.180685562606844   2.644310184260687   0.000000000000000                
    5    3                                                                      
   34.0613410000000       6.025197800000000E-003  0.000000000000000E+000        
  0.000000000000000E+000                                                        
   5.12357460000000       4.502109400000000E-002  0.000000000000000E+000        
  0.000000000000000E+000                                                        
   1.16466260000000       0.201897260000000       0.000000000000000E+000        
  0.000000000000000E+000                                                        
  0.327230410000000       0.000000000000000E+000   1.00000000000000             
  0.000000000000000E+000                                                        
  0.103072410000000       0.000000000000000E+000  0.000000000000000E+000        
   1.00000000000000                                                             
    2    2                                                                      
   1.40700000000000        1.00000000000000       0.000000000000000E+000        
  0.388000000000000       0.000000000000000E+000   1.00000000000000             
    1    1                                                                      
   1.05700000000000        1.00000000000000                                     
          1.00000000    1    3    1    1    1                                   
H #3  -3.180634651223398   1.321904528785453   2.289592652440932                
    5    3                                                                      
   34.0613410000000       6.025197800000000E-003  0.000000000000000E+000        
  0.000000000000000E+000                                                        
   5.12357460000000       4.502109400000000E-002  0.000000000000000E+000        
  0.000000000000000E+000                                                        
   1.16466260000000       0.201897260000000       0.000000000000000E+000        
  0.000000000000000E+000                                                        
  0.327230410000000       0.000000000000000E+000   1.00000000000000             
  0.000000000000000E+000                                                        
  0.103072410000000       0.000000000000000E+000  0.000000000000000E+000        
   1.00000000000000                                                             
    2    2                                                                      
   1.40700000000000        1.00000000000000       0.000000000000000E+000        
  0.388000000000000       0.000000000000000E+000   1.00000000000000             
    1    1                                                                      
   1.05700000000000        1.00000000000000                                     
FINISH                                                                          
 
********************************************************************************
 One- and two-electron integrals over symmetry-adapted AOs are calculated.

  Spherical harmonics are used.
  
   3 types of atoms
   2 symmetry operations

   Reflection in the XY-plane
   Rotation about the Z-axis
  
  Integrals less than  0.10E-13 are neglected.

  Atomic type number  1 :
  -----------------------

    Nuclear charge:                       14
    number of symmetry independent atoms:  1
    highest orbital type:                  f

      1 groups of CGTOs of s type
      1 groups of CGTOs of p type
      1 groups of CGTOs of d type
      1 groups of CGTOs of f type

    nuclear coordinates (in a.u.) are :

    SI#1       -2.202476259656702        0.000028271569115        0.000000000000000
  
   Basis function not normalized: 
   Center (as ordered in MOL file):   1
   Angular Momentum type          : s
   Offset within angular momentum :  1
   <chi|chi>                      :    0.9800696183
   Basis function not normalized: 
   Center (as ordered in MOL file):   1
   Angular Momentum type          : s
   Offset within angular momentum :  2
   <chi|chi>                      :    3.5674023608
   Basis function not normalized: 
   Center (as ordered in MOL file):   1
   Angular Momentum type          : s
   Offset within angular momentum :  3
   <chi|chi>                      :    0.5012129918
   Basis function not normalized: 
   Center (as ordered in MOL file):   1
   Angular Momentum type          : p
   Offset within angular momentum :  1
   <chi|chi>                      :    1.4356825837
   Basis function not normalized: 
   Center (as ordered in MOL file):   1
   Angular Momentum type          : p
   Offset within angular momentum :  2
   <chi|chi>                      :    2.9068291788
  Atomic type number  2 :
  -----------------------

    Nuclear charge:                        1
    number of symmetry independent atoms:  1
    highest orbital type:                  d

      1 groups of CGTOs of s type
      1 groups of CGTOs of p type
      1 groups of CGTOs of d type

    nuclear coordinates (in a.u.) are :

    H #2        3.180685562606844        2.644310184260687        0.000000000000000
  
   Basis function not normalized: 
   Center (as ordered in MOL file):   2
   Angular Momentum type          : s
   Offset within angular momentum :  1
   <chi|chi>                      :    4.2221530402
  Atomic type number  3 :
  -----------------------

    Nuclear charge:                        1
    number of symmetry independent atoms:  1
    highest orbital type:                  d

      1 groups of CGTOs of s type
      1 groups of CGTOs of p type
      1 groups of CGTOs of d type

    nuclear coordinates (in a.u.) are :

    H #3       -3.180634651223398        1.321904528785453        2.289592652440932
  
   Basis function not normalized: 
   Center (as ordered in MOL file):   3
   Angular Momentum type          : s
   Offset within angular momentum :  1
   <chi|chi>                      :    4.2221530402
   Internuclear distances (A) :

     for atom SI#1 (coordinates :  -2.20248   0.00003   0.00000)

     SI#1   3     distance is  2.331
     H #2   1     distance is  3.174
     H #2   3     distance is  1.492
     H #3   1     distance is  1.492
     H #3   3     distance is  3.174

     for atom H #2 (coordinates :   3.18069   2.64431   0.00000)

     H #2   3     distance is  4.378
     H #3   1     distance is  3.645
     H #3   3     distance is  2.423

     for atom H #3 (coordinates :  -3.18063   1.32190   2.28959)

     H #3   2     distance is  2.423
     H #3   3     distance is  3.645
     H #3   4     distance is  4.377

   Group multiplication table :

         1   2   3   4
         2   1   4   3
         3   4   1   2
         4   3   2   1

   Gaussian basis information :

   atom                 exponent      coefficients

 SI#1  1    S   
+                 1   44773.358078   0.0005591   0.0000000   0.0000000   0.0000000   0.0000000
                  2    6717.199210   0.0043206   0.0000000   0.0000000   0.0000000   0.0000000
                  3    1528.896033   0.0221871   0.0000000   0.0000000   0.0000000   0.0000000
                  4     432.547466   0.0864892   0.0000000   0.0000000   0.0000000   0.0000000
                  5     140.615052   0.2493989   0.0000000   0.0000000   0.0000000   0.0000000
                  6      49.857637   0.4601720   0.0000000   0.0000000   0.0000000   0.0000000
                  7      18.434975   0.3425024   0.0000000   0.0000000   0.0000000   0.0000000
                  8      86.533886   0.0000000   0.0213001   0.0000000   0.0000000   0.0000000
                  9      26.624607   0.0000000   0.0946761   0.0000000   0.0000000   0.0000000
                 10       4.495306   0.0000000  -0.3261626   0.0000000   0.0000000   0.0000000
                 11       2.103505   0.0000000   0.0000000   1.3980804   0.0000000   0.0000000
                 12       1.010609   0.0000000   0.0000000   0.6386579   0.0000000   0.0000000
                 13       0.237018   0.0000000   0.0000000   0.0000000   1.0000000   0.0000000
                 14       0.085703   0.0000000   0.0000000   0.0000000   0.0000000   1.0000000

 SI#1  3    S   
+                15   44773.358078   0.0005591   0.0000000   0.0000000   0.0000000   0.0000000
                 16    6717.199210   0.0043206   0.0000000   0.0000000   0.0000000   0.0000000
                 17    1528.896033   0.0221871   0.0000000   0.0000000   0.0000000   0.0000000
                 18     432.547466   0.0864892   0.0000000   0.0000000   0.0000000   0.0000000
                 19     140.615052   0.2493989   0.0000000   0.0000000   0.0000000   0.0000000
                 20      49.857637   0.4601720   0.0000000   0.0000000   0.0000000   0.0000000
                 21      18.434975   0.3425024   0.0000000   0.0000000   0.0000000   0.0000000
                 22      86.533886   0.0000000   0.0213001   0.0000000   0.0000000   0.0000000
                 23      26.624607   0.0000000   0.0946761   0.0000000   0.0000000   0.0000000
                 24       4.495306   0.0000000  -0.3261626   0.0000000   0.0000000   0.0000000
                 25       2.103505   0.0000000   0.0000000   1.3980804   0.0000000   0.0000000
                 26       1.010609   0.0000000   0.0000000   0.6386579   0.0000000   0.0000000
                 27       0.237018   0.0000000   0.0000000   0.0000000   1.0000000   0.0000000
                 28       0.085703   0.0000000   0.0000000   0.0000000   0.0000000   1.0000000

 SI#1  1    X   
+                29     394.475036   0.0026286   0.0000000   0.0000000   0.0000000   0.0000000
                 30      93.137683   0.0205563   0.0000000   0.0000000   0.0000000   0.0000000
                 31      29.519609   0.0920703   0.0000000   0.0000000   0.0000000   0.0000000
                 32      10.781664   0.2556589   0.0000000   0.0000000   0.0000000   0.0000000
                 33       4.162657   0.4211171   0.0000000   0.0000000   0.0000000   0.0000000
                 34       1.624797   0.0000000   0.3440175   0.0000000   0.0000000   0.0000000
                 35       0.543067   0.0000000   0.0000000   1.0000000   0.0000000   0.0000000
                 36       0.205821   0.0000000   0.0000000   0.0000000   1.0000000   0.0000000
                 37       0.070053   0.0000000   0.0000000   0.0000000   0.0000000   1.0000000

 SI#1  3    X   
+                38     394.475036   0.0026286   0.0000000   0.0000000   0.0000000   0.0000000
                 39      93.137683   0.0205563   0.0000000   0.0000000   0.0000000   0.0000000
                 40      29.519609   0.0920703   0.0000000   0.0000000   0.0000000   0.0000000
                 41      10.781664   0.2556589   0.0000000   0.0000000   0.0000000   0.0000000
                 42       4.162657   0.4211171   0.0000000   0.0000000   0.0000000   0.0000000
                 43       1.624797   0.0000000   0.3440175   0.0000000   0.0000000   0.0000000
                 44       0.543067   0.0000000   0.0000000   1.0000000   0.0000000   0.0000000
                 45       0.205821   0.0000000   0.0000000   0.0000000   1.0000000   0.0000000
                 46       0.070053   0.0000000   0.0000000   0.0000000   0.0000000   1.0000000

 SI#1  1    Y   
+                47     394.475036   0.0026286   0.0000000   0.0000000   0.0000000   0.0000000
                 48      93.137683   0.0205563   0.0000000   0.0000000   0.0000000   0.0000000
                 49      29.519609   0.0920703   0.0000000   0.0000000   0.0000000   0.0000000
                 50      10.781664   0.2556589   0.0000000   0.0000000   0.0000000   0.0000000
                 51       4.162657   0.4211171   0.0000000   0.0000000   0.0000000   0.0000000
                 52       1.624797   0.0000000   0.3440175   0.0000000   0.0000000   0.0000000
                 53       0.543067   0.0000000   0.0000000   1.0000000   0.0000000   0.0000000
                 54       0.205821   0.0000000   0.0000000   0.0000000   1.0000000   0.0000000
                 55       0.070053   0.0000000   0.0000000   0.0000000   0.0000000   1.0000000

 SI#1  3    Y   
+                56     394.475036   0.0026286   0.0000000   0.0000000   0.0000000   0.0000000
                 57      93.137683   0.0205563   0.0000000   0.0000000   0.0000000   0.0000000
                 58      29.519609   0.0920703   0.0000000   0.0000000   0.0000000   0.0000000
                 59      10.781664   0.2556589   0.0000000   0.0000000   0.0000000   0.0000000
                 60       4.162657   0.4211171   0.0000000   0.0000000   0.0000000   0.0000000
                 61       1.624797   0.0000000   0.3440175   0.0000000   0.0000000   0.0000000
                 62       0.543067   0.0000000   0.0000000   1.0000000   0.0000000   0.0000000
                 63       0.205821   0.0000000   0.0000000   0.0000000   1.0000000   0.0000000
                 64       0.070053   0.0000000   0.0000000   0.0000000   0.0000000   1.0000000

 SI#1  1    Z   
+                65     394.475036   0.0026286   0.0000000   0.0000000   0.0000000   0.0000000
                 66      93.137683   0.0205563   0.0000000   0.0000000   0.0000000   0.0000000
                 67      29.519609   0.0920703   0.0000000   0.0000000   0.0000000   0.0000000
                 68      10.781664   0.2556589   0.0000000   0.0000000   0.0000000   0.0000000
                 69       4.162657   0.4211171   0.0000000   0.0000000   0.0000000   0.0000000
                 70       1.624797   0.0000000   0.3440175   0.0000000   0.0000000   0.0000000
                 71       0.543067   0.0000000   0.0000000   1.0000000   0.0000000   0.0000000
                 72       0.205821   0.0000000   0.0000000   0.0000000   1.0000000   0.0000000
                 73       0.070053   0.0000000   0.0000000   0.0000000   0.0000000   1.0000000

 SI#1  3    Z   
+                74     394.475036   0.0026286   0.0000000   0.0000000   0.0000000   0.0000000
                 75      93.137683   0.0205563   0.0000000   0.0000000   0.0000000   0.0000000
                 76      29.519609   0.0920703   0.0000000   0.0000000   0.0000000   0.0000000
                 77      10.781664   0.2556589   0.0000000   0.0000000   0.0000000   0.0000000
                 78       4.162657   0.4211171   0.0000000   0.0000000   0.0000000   0.0000000
                 79       1.624797   0.0000000   0.3440175   0.0000000   0.0000000   0.0000000
                 80       0.543067   0.0000000   0.0000000   1.0000000   0.0000000   0.0000000
                 81       0.205821   0.0000000   0.0000000   0.0000000   1.0000000   0.0000000
                 82       0.070053   0.0000000   0.0000000   0.0000000   0.0000000   1.0000000

 SI#1  1    XX  
+                83       0.160000   1.0000000   0.0000000   0.0000000
                 84       2.303000   0.0000000   1.0000000   0.0000000
                 85       0.476000   0.0000000   0.0000000   1.0000000

 SI#1  3    XX  
+                86       0.160000   1.0000000   0.0000000   0.0000000
                 87       2.303000   0.0000000   1.0000000   0.0000000
                 88       0.476000   0.0000000   0.0000000   1.0000000

 SI#1  1    XY  
+                89       0.160000   1.0000000   0.0000000   0.0000000
                 90       2.303000   0.0000000   1.0000000   0.0000000
                 91       0.476000   0.0000000   0.0000000   1.0000000

 SI#1  3    XY  
+                92       0.160000   1.0000000   0.0000000   0.0000000
                 93       2.303000   0.0000000   1.0000000   0.0000000
                 94       0.476000   0.0000000   0.0000000   1.0000000

 SI#1  1    XZ  
+                95       0.160000   1.0000000   0.0000000   0.0000000
                 96       2.303000   0.0000000   1.0000000   0.0000000
                 97       0.476000   0.0000000   0.0000000   1.0000000

 SI#1  3    XZ  
+                98       0.160000   1.0000000   0.0000000   0.0000000
                 99       2.303000   0.0000000   1.0000000   0.0000000
                100       0.476000   0.0000000   0.0000000   1.0000000

 SI#1  1    YY  
+               101       0.160000   1.0000000   0.0000000   0.0000000
                102       2.303000   0.0000000   1.0000000   0.0000000
                103       0.476000   0.0000000   0.0000000   1.0000000

 SI#1  3    YY  
+               104       0.160000   1.0000000   0.0000000   0.0000000
                105       2.303000   0.0000000   1.0000000   0.0000000
                106       0.476000   0.0000000   0.0000000   1.0000000

 SI#1  1    YZ  
+               107       0.160000   1.0000000   0.0000000   0.0000000
                108       2.303000   0.0000000   1.0000000   0.0000000
                109       0.476000   0.0000000   0.0000000   1.0000000

 SI#1  3    YZ  
+               110       0.160000   1.0000000   0.0000000   0.0000000
                111       2.303000   0.0000000   1.0000000   0.0000000
                112       0.476000   0.0000000   0.0000000   1.0000000

 SI#1  1    ZZ  
+               113       0.160000   1.0000000   0.0000000   0.0000000
                114       2.303000   0.0000000   1.0000000   0.0000000
                115       0.476000   0.0000000   0.0000000   1.0000000

 SI#1  3    ZZ  
+               116       0.160000   1.0000000   0.0000000   0.0000000
                117       2.303000   0.0000000   1.0000000   0.0000000
                118       0.476000   0.0000000   0.0000000   1.0000000

 SI#1  1    F300
+               119       0.336000   1.0000000

 SI#1  3    F300
+               120       0.336000   1.0000000

 SI#1  1    F210
+               121       0.336000   1.0000000

 SI#1  3    F210
+               122       0.336000   1.0000000

 SI#1  1    F201
+               123       0.336000   1.0000000

 SI#1  3    F201
+               124       0.336000   1.0000000

 SI#1  1    F120
+               125       0.336000   1.0000000

 SI#1  3    F120
+               126       0.336000   1.0000000

 SI#1  1    F111
+               127       0.336000   1.0000000

 SI#1  3    F111
+               128       0.336000   1.0000000

 SI#1  1    F102
+               129       0.336000   1.0000000

 SI#1  3    F102
+               130       0.336000   1.0000000

 SI#1  1    F030
+               131       0.336000   1.0000000

 SI#1  3    F030
+               132       0.336000   1.0000000

 SI#1  1    F021
+               133       0.336000   1.0000000

 SI#1  3    F021
+               134       0.336000   1.0000000

 SI#1  1    F012
+               135       0.336000   1.0000000

 SI#1  3    F012
+               136       0.336000   1.0000000

 SI#1  1    F003
+               137       0.336000   1.0000000

 SI#1  3    F003
+               138       0.336000   1.0000000

 H #2  1    S   
+               139      34.061341   0.0060252   0.0000000   0.0000000
                140       5.123575   0.0450211   0.0000000   0.0000000
                141       1.164663   0.2018973   0.0000000   0.0000000
                142       0.327230   0.0000000   1.0000000   0.0000000
                143       0.103072   0.0000000   0.0000000   1.0000000

 H #2  3    S   
+               144      34.061341   0.0060252   0.0000000   0.0000000
                145       5.123575   0.0450211   0.0000000   0.0000000
                146       1.164663   0.2018973   0.0000000   0.0000000
                147       0.327230   0.0000000   1.0000000   0.0000000
                148       0.103072   0.0000000   0.0000000   1.0000000

 H #2  1    X   
+               149       1.407000   1.0000000   0.0000000
                150       0.388000   0.0000000   1.0000000

 H #2  3    X   
+               151       1.407000   1.0000000   0.0000000
                152       0.388000   0.0000000   1.0000000

 H #2  1    Y   
+               153       1.407000   1.0000000   0.0000000
                154       0.388000   0.0000000   1.0000000

 H #2  3    Y   
+               155       1.407000   1.0000000   0.0000000
                156       0.388000   0.0000000   1.0000000

 H #2  1    Z   
+               157       1.407000   1.0000000   0.0000000
                158       0.388000   0.0000000   1.0000000

 H #2  3    Z   
+               159       1.407000   1.0000000   0.0000000
                160       0.388000   0.0000000   1.0000000

 H #2  1    XX  
+               161       1.057000   1.0000000

 H #2  3    XX  
+               162       1.057000   1.0000000

 H #2  1    XY  
+               163       1.057000   1.0000000

 H #2  3    XY  
+               164       1.057000   1.0000000

 H #2  1    XZ  
+               165       1.057000   1.0000000

 H #2  3    XZ  
+               166       1.057000   1.0000000

 H #2  1    YY  
+               167       1.057000   1.0000000

 H #2  3    YY  
+               168       1.057000   1.0000000

 H #2  1    YZ  
+               169       1.057000   1.0000000

 H #2  3    YZ  
+               170       1.057000   1.0000000

 H #2  1    ZZ  
+               171       1.057000   1.0000000

 H #2  3    ZZ  
+               172       1.057000   1.0000000

 H #3  1    S   
+               173      34.061341   0.0060252   0.0000000   0.0000000
                174       5.123575   0.0450211   0.0000000   0.0000000
                175       1.164663   0.2018973   0.0000000   0.0000000
                176       0.327230   0.0000000   1.0000000   0.0000000
                177       0.103072   0.0000000   0.0000000   1.0000000

 H #3  2    S   
+               178      34.061341   0.0060252   0.0000000   0.0000000
                179       5.123575   0.0450211   0.0000000   0.0000000
                180       1.164663   0.2018973   0.0000000   0.0000000
                181       0.327230   0.0000000   1.0000000   0.0000000
                182       0.103072   0.0000000   0.0000000   1.0000000

 H #3  3    S   
+               183      34.061341   0.0060252   0.0000000   0.0000000
                184       5.123575   0.0450211   0.0000000   0.0000000
                185       1.164663   0.2018973   0.0000000   0.0000000
                186       0.327230   0.0000000   1.0000000   0.0000000
                187       0.103072   0.0000000   0.0000000   1.0000000

 H #3  4    S   
+               188      34.061341   0.0060252   0.0000000   0.0000000
                189       5.123575   0.0450211   0.0000000   0.0000000
                190       1.164663   0.2018973   0.0000000   0.0000000
                191       0.327230   0.0000000   1.0000000   0.0000000
                192       0.103072   0.0000000   0.0000000   1.0000000

 H #3  1    X   
+               193       1.407000   1.0000000   0.0000000
                194       0.388000   0.0000000   1.0000000

 H #3  2    X   
+               195       1.407000   1.0000000   0.0000000
                196       0.388000   0.0000000   1.0000000

 H #3  3    X   
+               197       1.407000   1.0000000   0.0000000
                198       0.388000   0.0000000   1.0000000

 H #3  4    X   
+               199       1.407000   1.0000000   0.0000000
                200       0.388000   0.0000000   1.0000000

 H #3  1    Y   
+               201       1.407000   1.0000000   0.0000000
                202       0.388000   0.0000000   1.0000000

 H #3  2    Y   
+               203       1.407000   1.0000000   0.0000000
                204       0.388000   0.0000000   1.0000000

 H #3  3    Y   
+               205       1.407000   1.0000000   0.0000000
                206       0.388000   0.0000000   1.0000000

 H #3  4    Y   
+               207       1.407000   1.0000000   0.0000000
                208       0.388000   0.0000000   1.0000000

 H #3  1    Z   
+               209       1.407000   1.0000000   0.0000000
                210       0.388000   0.0000000   1.0000000

 H #3  2    Z   
+               211       1.407000   1.0000000   0.0000000
                212       0.388000   0.0000000   1.0000000

 H #3  3    Z   
+               213       1.407000   1.0000000   0.0000000
                214       0.388000   0.0000000   1.0000000

 H #3  4    Z   
+               215       1.407000   1.0000000   0.0000000
                216       0.388000   0.0000000   1.0000000

 H #3  1    XX  
+               217       1.057000   1.0000000

 H #3  2    XX  
+               218       1.057000   1.0000000

 H #3  3    XX  
+               219       1.057000   1.0000000

 H #3  4    XX  
+               220       1.057000   1.0000000

 H #3  1    XY  
+               221       1.057000   1.0000000

 H #3  2    XY  
+               222       1.057000   1.0000000

 H #3  3    XY  
+               223       1.057000   1.0000000

 H #3  4    XY  
+               224       1.057000   1.0000000

 H #3  1    XZ  
+               225       1.057000   1.0000000

 H #3  2    XZ  
+               226       1.057000   1.0000000

 H #3  3    XZ  
+               227       1.057000   1.0000000

 H #3  4    XZ  
+               228       1.057000   1.0000000

 H #3  1    YY  
+               229       1.057000   1.0000000

 H #3  2    YY  
+               230       1.057000   1.0000000

 H #3  3    YY  
+               231       1.057000   1.0000000

 H #3  4    YY  
+               232       1.057000   1.0000000

 H #3  1    YZ  
+               233       1.057000   1.0000000

 H #3  2    YZ  
+               234       1.057000   1.0000000

 H #3  3    YZ  
+               235       1.057000   1.0000000

 H #3  4    YZ  
+               236       1.057000   1.0000000

 H #3  1    ZZ  
+               237       1.057000   1.0000000

 H #3  2    ZZ  
+               238       1.057000   1.0000000

 H #3  3    ZZ  
+               239       1.057000   1.0000000

 H #3  4    ZZ  
+               240       1.057000   1.0000000
186168
  1  2  3  4  5  6  7  8  9 10 11 12 13 14 15 16 17 18 19 20 21 22 23 24***
****** 25 26 27*** 28*** 29 30 31 32 33 34 35 36 37 38*** 39 40 41 42 43 44
 45 46 47 48 49 50 51 52*** 53 54 55 56 57 58 59 60 61 62 63 64 65 66*** 67
 68 69 70 71 72 73 74 75 76 77 78 79 80 81 82 83 84*** 85 86 87 88 89 90 91
 92 93 94 95 96 97 98 99100101102103104105106107108*********109110111***112
***113114115116117118119120121122***123124125126127128129130131132133134135
136***137138139140141142143144145146147148149150***151152153154155156157158
159160161162163164165166167168***
1

             SYMMETRY TRANSFORMATION INFO
            168 SYMMETRY ADAPTED BASIS FUNCTIONS 


          irreducible representation number 1

    1    1  SI#1     1s     2   1   1.0   2   1.0
    2    2  SI#1     1s     2   3   1.0   4   1.0
    3    3  SI#1     1s     2   5   1.0   6   1.0
    4    4  SI#1     1s     2   7   1.0   8   1.0
    5    5  SI#1     1s     2   9   1.0  10   1.0
    6    6  SI#1     2px    2  11   1.0  12  -1.0
    7    7  SI#1     2px    2  13   1.0  14  -1.0
    8    8  SI#1     2px    2  15   1.0  16  -1.0
    9    9  SI#1     2px    2  17   1.0  18  -1.0
   10   10  SI#1     2px    2  19   1.0  20  -1.0
   11   11  SI#1     2py    2  21   1.0  22  -1.0
   12   12  SI#1     2py    2  23   1.0  24  -1.0
   13   13  SI#1     2py    2  25   1.0  26  -1.0
   14   14  SI#1     2py    2  27   1.0  28  -1.0
   15   15  SI#1     2py    2  29   1.0  30  -1.0
   16   16  SI#1     3d2-   6  41  -1.0  59  -1.0  71   2.0  42  -1.0  60  -1.0  72   2.0
   17   17  SI#1     3d2-   6  43  -1.0  61  -1.0  73   2.0  44  -1.0  62  -1.0  74   2.0
   18   18  SI#1     3d2-   6  45  -1.0  63  -1.0  75   2.0  46  -1.0  64  -1.0  76   2.0
   19   19  SI#1     3d1-   2  47   1.0  48   1.0
   20   20  SI#1     3d1-   2  49   1.0  50   1.0
   21   21  SI#1     3d1-   2  51   1.0  52   1.0
   22   22  SI#1     3d1+   4  41   1.0  59  -1.0  42   1.0  60  -1.0
   23   23  SI#1     3d1+   4  43   1.0  61  -1.0  44   1.0  62  -1.0
   24   24  SI#1     3d1+   4  45   1.0  63  -1.0  46   1.0  64  -1.0
   25   25  SI#1     4f3-   6  77  -1.0  83  -1.0  87   4.0  78   1.0  84   1.0  88  -4.0
   26   26  SI#1     4f2-   6  79  -1.0  89  -1.0  93   4.0  80   1.0  90   1.0  94  -4.0
   27   27  SI#1     4f0    4  77   1.0  83  -3.0  78  -1.0  84   3.0
   28   28  SI#1     4f2+   4  79   3.0  89  -1.0  80  -3.0  90   1.0
   29   29  H #2     1s     2  97   1.0  98   1.0
   30   30  H #2     1s     2  99   1.0 100   1.0
   31   31  H #2     1s     2 101   1.0 102   1.0
   32   32  H #2     2px    2 103   1.0 104  -1.0
   33   33  H #2     2px    2 105   1.0 106  -1.0
   34   34  H #2     2py    2 107   1.0 108  -1.0
   35   35  H #2     2py    2 109   1.0 110  -1.0
   36   36  H #2     3d2-   6 115  -1.0 121  -1.0 125   2.0 116  -1.0 122  -1.0 126   2.0
   37   37  H #2     3d1-   2 117   1.0 118   1.0
   38   38  H #2     3d1+   4 115   1.0 121  -1.0 116   1.0 122  -1.0
   39   39  H #3     1s     4 127   1.0 128   1.0 129   1.0 130   1.0
   40   40  H #3     1s     4 131   1.0 132   1.0 133   1.0 134   1.0
   41   41  H #3     1s     4 135   1.0 136   1.0 137   1.0 138   1.0
   42   42  H #3     2px    4 139   1.0 140   1.0 141  -1.0 142  -1.0
   43   43  H #3     2px    4 143   1.0 144   1.0 145  -1.0 146  -1.0
   44   44  H #3     2py    4 147   1.0 148   1.0 149  -1.0 150  -1.0
   45   45  H #3     2py    4 151   1.0 152   1.0 153  -1.0 154  -1.0
   46   46  H #3     2pz    4 155   1.0 156  -1.0 157   1.0 158  -1.0
   47   47  H #3     2pz    4 159   1.0 160  -1.0 161   1.0 162  -1.0
   48   48  H #3     3d2-  12 163  -1.0 175  -1.0 183   2.0 164  -1.0 176  -1.0 184   2.0 165  -1.0 177  -1.0
                              185   2.0 166  -1.0 178  -1.0 186   2.0
   49   49  H #3     3d1-   4 167   1.0 168   1.0 169   1.0 170   1.0
   50   50  H #3     3d0    4 171   1.0 172  -1.0 173  -1.0 174   1.0
   51   51  H #3     3d1+   8 163   1.0 175  -1.0 164   1.0 176  -1.0 165   1.0 177  -1.0 166   1.0 178  -1.0

   52   52  H #3     3d2+   4 179   1.0 180  -1.0 181  -1.0 182   1.0


          irreducible representation number 2

   53    1  SI#1     2pz    2  31   1.0  32   1.0
   54    2  SI#1     2pz    2  33   1.0  34   1.0
   55    3  SI#1     2pz    2  35   1.0  36   1.0
   56    4  SI#1     2pz    2  37   1.0  38   1.0
   57    5  SI#1     2pz    2  39   1.0  40   1.0
   58    6  SI#1     3d0    2  53   1.0  54  -1.0
   59    7  SI#1     3d0    2  55   1.0  56  -1.0
   60    8  SI#1     3d0    2  57   1.0  58  -1.0
   61    9  SI#1     3d2+   2  65   1.0  66  -1.0
   62   10  SI#1     3d2+   2  67   1.0  68  -1.0
   63   11  SI#1     3d2+   2  69   1.0  70  -1.0
   64   12  SI#1     4f1-   6  81  -3.0  91  -3.0  95   2.0  82  -3.0  92  -3.0  96   2.0
   65   13  SI#1     4f1+   2  85   1.0  86   1.0
   66   14  SI#1     4f3+   4  81   1.0  91  -1.0  82   1.0  92  -1.0
   67   15  H #2     2pz    2 111   1.0 112   1.0
   68   16  H #2     2pz    2 113   1.0 114   1.0
   69   17  H #2     3d0    2 119   1.0 120  -1.0
   70   18  H #2     3d2+   2 123   1.0 124  -1.0
   71   19  H #3     1s     4 127   1.0 128  -1.0 129   1.0 130  -1.0
   72   20  H #3     1s     4 131   1.0 132  -1.0 133   1.0 134  -1.0
   73   21  H #3     1s     4 135   1.0 136  -1.0 137   1.0 138  -1.0
   74   22  H #3     2px    4 139   1.0 140  -1.0 141  -1.0 142   1.0
   75   23  H #3     2px    4 143   1.0 144  -1.0 145  -1.0 146   1.0
   76   24  H #3     2py    4 147   1.0 148  -1.0 149  -1.0 150   1.0
   77   25  H #3     2py    4 151   1.0 152  -1.0 153  -1.0 154   1.0
   78   26  H #3     2pz    4 155   1.0 156   1.0 157   1.0 158   1.0
   79   27  H #3     2pz    4 159   1.0 160   1.0 161   1.0 162   1.0
   80   28  H #3     3d2-  12 163  -1.0 175  -1.0 183   2.0 164   1.0 176   1.0 184  -2.0 165  -1.0 177  -1.0
                              185   2.0 166   1.0 178   1.0 186  -2.0
   81   29  H #3     3d1-   4 167   1.0 168  -1.0 169   1.0 170  -1.0
   82   30  H #3     3d0    4 171   1.0 172   1.0 173  -1.0 174  -1.0
   83   31  H #3     3d1+   8 163   1.0 175  -1.0 164  -1.0 176   1.0 165   1.0 177  -1.0 166  -1.0 178   1.0

   84   32  H #3     3d2+   4 179   1.0 180   1.0 181  -1.0 182  -1.0


          irreducible representation number 3

   85    1  SI#1     1s     2   1   1.0   2  -1.0
   86    2  SI#1     1s     2   3   1.0   4  -1.0
   87    3  SI#1     1s     2   5   1.0   6  -1.0
   88    4  SI#1     1s     2   7   1.0   8  -1.0
   89    5  SI#1     1s     2   9   1.0  10  -1.0
   90    6  SI#1     2px    2  11   1.0  12   1.0
   91    7  SI#1     2px    2  13   1.0  14   1.0
   92    8  SI#1     2px    2  15   1.0  16   1.0
   93    9  SI#1     2px    2  17   1.0  18   1.0
   94   10  SI#1     2px    2  19   1.0  20   1.0
   95   11  SI#1     2py    2  21   1.0  22   1.0
   96   12  SI#1     2py    2  23   1.0  24   1.0
   97   13  SI#1     2py    2  25   1.0  26   1.0
   98   14  SI#1     2py    2  27   1.0  28   1.0
   99   15  SI#1     2py    2  29   1.0  30   1.0
  100   16  SI#1     3d2-   6  41  -1.0  59  -1.0  71   2.0  42   1.0  60   1.0  72  -2.0
  101   17  SI#1     3d2-   6  43  -1.0  61  -1.0  73   2.0  44   1.0  62   1.0  74  -2.0
  102   18  SI#1     3d2-   6  45  -1.0  63  -1.0  75   2.0  46   1.0  64   1.0  76  -2.0
  103   19  SI#1     3d1-   2  47   1.0  48  -1.0
  104   20  SI#1     3d1-   2  49   1.0  50  -1.0
  105   21  SI#1     3d1-   2  51   1.0  52  -1.0
  106   22  SI#1     3d1+   4  41   1.0  59  -1.0  42  -1.0  60   1.0
  107   23  SI#1     3d1+   4  43   1.0  61  -1.0  44  -1.0  62   1.0
  108   24  SI#1     3d1+   4  45   1.0  63  -1.0  46  -1.0  64   1.0
  109   25  SI#1     4f3-   6  77  -1.0  83  -1.0  87   4.0  78  -1.0  84  -1.0  88   4.0
  110   26  SI#1     4f2-   6  79  -1.0  89  -1.0  93   4.0  80  -1.0  90  -1.0  94   4.0
  111   27  SI#1     4f0    4  77   1.0  83  -3.0  78   1.0  84  -3.0
  112   28  SI#1     4f2+   4  79   3.0  89  -1.0  80   3.0  90  -1.0
  113   29  H #2     1s     2  97   1.0  98  -1.0
  114   30  H #2     1s     2  99   1.0 100  -1.0
  115   31  H #2     1s     2 101   1.0 102  -1.0
  116   32  H #2     2px    2 103   1.0 104   1.0
  117   33  H #2     2px    2 105   1.0 106   1.0
  118   34  H #2     2py    2 107   1.0 108   1.0
  119   35  H #2     2py    2 109   1.0 110   1.0
  120   36  H #2     3d2-   6 115  -1.0 121  -1.0 125   2.0 116   1.0 122   1.0 126  -2.0
  121   37  H #2     3d1-   2 117   1.0 118  -1.0
  122   38  H #2     3d1+   4 115   1.0 121  -1.0 116  -1.0 122   1.0
  123   39  H #3     1s     4 127   1.0 128   1.0 129  -1.0 130  -1.0
  124   40  H #3     1s     4 131   1.0 132   1.0 133  -1.0 134  -1.0
  125   41  H #3     1s     4 135   1.0 136   1.0 137  -1.0 138  -1.0
  126   42  H #3     2px    4 139   1.0 140   1.0 141   1.0 142   1.0
  127   43  H #3     2px    4 143   1.0 144   1.0 145   1.0 146   1.0
  128   44  H #3     2py    4 147   1.0 148   1.0 149   1.0 150   1.0
  129   45  H #3     2py    4 151   1.0 152   1.0 153   1.0 154   1.0
  130   46  H #3     2pz    4 155   1.0 156  -1.0 157  -1.0 158   1.0
  131   47  H #3     2pz    4 159   1.0 160  -1.0 161  -1.0 162   1.0
  132   48  H #3     3d2-  12 163  -1.0 175  -1.0 183   2.0 164  -1.0 176  -1.0 184   2.0 165   1.0 177   1.0
                              185  -2.0 166   1.0 178   1.0 186  -2.0
  133   49  H #3     3d1-   4 167   1.0 168   1.0 169  -1.0 170  -1.0
  134   50  H #3     3d0    4 171   1.0 172  -1.0 173   1.0 174  -1.0
  135   51  H #3     3d1+   8 163   1.0 175  -1.0 164   1.0 176  -1.0 165  -1.0 177   1.0 166  -1.0 178   1.0

  136   52  H #3     3d2+   4 179   1.0 180  -1.0 181   1.0 182  -1.0


          irreducible representation number 4

  137    1  SI#1     2pz    2  31   1.0  32  -1.0
  138    2  SI#1     2pz    2  33   1.0  34  -1.0
  139    3  SI#1     2pz    2  35   1.0  36  -1.0
  140    4  SI#1     2pz    2  37   1.0  38  -1.0
  141    5  SI#1     2pz    2  39   1.0  40  -1.0
  142    6  SI#1     3d0    2  53   1.0  54   1.0
  143    7  SI#1     3d0    2  55   1.0  56   1.0
  144    8  SI#1     3d0    2  57   1.0  58   1.0
  145    9  SI#1     3d2+   2  65   1.0  66   1.0
  146   10  SI#1     3d2+   2  67   1.0  68   1.0
  147   11  SI#1     3d2+   2  69   1.0  70   1.0
  148   12  SI#1     4f1-   6  81  -3.0  91  -3.0  95   2.0  82   3.0  92   3.0  96  -2.0
  149   13  SI#1     4f1+   2  85   1.0  86  -1.0
  150   14  SI#1     4f3+   4  81   1.0  91  -1.0  82  -1.0  92   1.0
  151   15  H #2     2pz    2 111   1.0 112  -1.0
  152   16  H #2     2pz    2 113   1.0 114  -1.0
  153   17  H #2     3d0    2 119   1.0 120   1.0
  154   18  H #2     3d2+   2 123   1.0 124   1.0
  155   19  H #3     1s     4 127   1.0 128  -1.0 129  -1.0 130   1.0
  156   20  H #3     1s     4 131   1.0 132  -1.0 133  -1.0 134   1.0
  157   21  H #3     1s     4 135   1.0 136  -1.0 137  -1.0 138   1.0
  158   22  H #3     2px    4 139   1.0 140  -1.0 141   1.0 142  -1.0
  159   23  H #3     2px    4 143   1.0 144  -1.0 145   1.0 146  -1.0
  160   24  H #3     2py    4 147   1.0 148  -1.0 149   1.0 150  -1.0
  161   25  H #3     2py    4 151   1.0 152  -1.0 153   1.0 154  -1.0
  162   26  H #3     2pz    4 155   1.0 156   1.0 157  -1.0 158  -1.0
  163   27  H #3     2pz    4 159   1.0 160   1.0 161  -1.0 162  -1.0
  164   28  H #3     3d2-  12 163  -1.0 175  -1.0 183   2.0 164   1.0 176   1.0 184  -2.0 165   1.0 177   1.0
                              185  -2.0 166  -1.0 178  -1.0 186   2.0
  165   29  H #3     3d1-   4 167   1.0 168  -1.0 169  -1.0 170   1.0
  166   30  H #3     3d0    4 171   1.0 172   1.0 173   1.0 174   1.0
  167   31  H #3     3d1+   8 163   1.0 175  -1.0 164  -1.0 176   1.0 165  -1.0 177   1.0 166   1.0 178  -1.0

  168   32  H #3     3d2+   4 179   1.0 180   1.0 181   1.0 182   1.0
  Nuclear repulsion energy :   90.8419049653 a.u.
  required memory for a1 array                5411750  words 
  required memory for a2 array                2269589  words 
 @GETMEM-I,  Allocated      73 MB of main memory.
  @MOLECU-I, One electron integrals (CPU/WALL):        0.05/       0.06 seconds.
  @TWOEL-I,    2179574 integrals of symmetry type  I I I I
  @TWOEL-I,    9723054 integrals of symmetry type  I J I J
  @TWOEL-I,    5088004 integrals of symmetry type  I I J J
  @TWOEL-I,    8306658 integrals of symmetry type  I J K L
  @TWOEL-I, Total number of 2-e integrals   25297290.
  @MOLECU-I, Two electron integrals (CPU/WALL):        8.64/       8.87 seconds.
  @CHECKOUT-I, Total execution time (CPU/WALL):        9.18/       9.61 seconds.
--executable xvmol finished with status     0 in        9.72 seconds (walltime).
 --invoking executable--
/home/nike/cfour_v2.00beta/cfour_v2.00beta/bin/xvmol2ja
 @GETMEM-I,  Allocated   11444 MB of main memory.
  @CHECKOUT-I, Total execution time (CPU/WALL):        0.02/       0.03 seconds.
--executable xvmol2ja finished with status     0 in        0.11 seconds (walltime).
 --invoking executable--
/home/nike/cfour_v2.00beta/cfour_v2.00beta/bin/xvscf
  There are  168 functions in the AO basis.

  There are 4 irreducible representations.

       Irrep        # of functions
         1                 52
         2                 32
         3                 52
         4                 32


  Parameters for SCF calculation: 
        SCF reference function:  RHF  
  Maximum number of iterations: ****
     Full symmetry point group: C2h 
     Computational point group: C2h 
        Initial density matrix: MOREAD                 
     SCF convergence tolerance: 10**(-12)
  DIIS convergence acceleration:  ON
          Latest start for DIIS:   5
                     DIIS order:   6

  Memory information:    1169036 words required.
  Fock matrices are constructed from AO integral file.
 @GETMEM-I,  Allocated       8 MB of main memory.
  Initialization and symmetry analysis required      0.018 seconds.

  @INITGES-I, Occupancies from core Hamiltonian:

          Alpha population by irrep:   6    2    6    3
           Beta population by irrep:   6    2    6    3


 total no. of electrons in initial guess :  0.000000000000000E+000
  --------------------------------------------------------------------
  Iteration         Total Energy            Largest Density Difference
  --------------------------------------------------------------------
       0            90.841904965258948              0.0000000000D+00
   current occupation vector 
     6  2  6  3
     6  2  6  3
  processed                2179574  ao basis integrals from 
                  3633  buffers.
  processed                5088004  ao basis integrals from 
                  8481  buffers.
  processed                9723054  ao basis integrals from 
                 16206  buffers.
       1          -492.728901522380340              0.1593386909D+01
   current occupation vector 
     6  2  6  3
     6  2  6  3
  processed                2179574  ao basis integrals from 
                  3633  buffers.
  processed                5088004  ao basis integrals from 
                  8481  buffers.
  processed                9723054  ao basis integrals from 
                 16206  buffers.
       2          -453.339082444470534              0.9501900591D+02
   current occupation vector 
     6  2  7  2
     6  2  7  2
  processed                2179574  ao basis integrals from 
                  3633  buffers.
  processed                5088004  ao basis integrals from 
                  8481  buffers.
  processed                9723054  ao basis integrals from 
                 16206  buffers.
       3          -532.443381268297117              0.9513715573D+02
   current occupation vector 
     7  2  6  2
     7  2  6  2
  processed                2179574  ao basis integrals from 
                  3633  buffers.
  processed                5088004  ao basis integrals from 
                  8481  buffers.
  processed                9723054  ao basis integrals from 
                 16206  buffers.
       4          -470.398787676815971              0.8443684193D+02
   current occupation vector 
     6  2  7  2
     6  2  7  2
 
 sum over diagonal and offdiagdiagonal of C(T)*S*C for irrep
                     1
  2.252642516964443E-013  1.686201153766304E-013
 reorthoganalization of MOs is carried out
 sum over diagonal and offdiagdiagonal of C(T)*S*C for irrep
                     1
 -1.465494392505207E-014 -2.650913786717410E-014
 
 sum over diagonal and offdiagdiagonal of C(T)*S*C for irrep
                     2
  3.452793606584237E-014 -1.346393665246940E-013
 reorthoganalization of MOs is carried out
 sum over diagonal and offdiagdiagonal of C(T)*S*C for irrep
                     2
  3.330669073875470E-016 -7.538853420865210E-015
 
 sum over diagonal and offdiagdiagonal of C(T)*S*C for irrep
                     3
  3.936850845320805E-013  3.970856731512169E-014
 reorthoganalization of MOs is carried out
 sum over diagonal and offdiagdiagonal of C(T)*S*C for irrep
                     3
  4.862776847858186E-014  1.037987633870863E-013
 
 sum over diagonal and offdiagdiagonal of C(T)*S*C for irrep
                     4
  9.614531393253856E-014 -2.072314914621424E-013
 reorthoganalization of MOs is carried out
 sum over diagonal and offdiagdiagonal of C(T)*S*C for irrep
                     4
 -1.265654248072678E-014  2.449868730680775E-014
  processed                2179574  ao basis integrals from 
                  3633  buffers.
  processed                5088004  ao basis integrals from 
                  8481  buffers.
  processed                9723054  ao basis integrals from 
                 16206  buffers.
       5          -537.648975566742365              0.8443914039D+02
   current occupation vector 
     7  2  6  2
     7  2  6  2
  processed                2179574  ao basis integrals from 
                  3633  buffers.
  processed                5088004  ao basis integrals from 
                  8481  buffers.
  processed                9723054  ao basis integrals from 
                 16206  buffers.
       6          -572.420297651314058              0.1860543327D+01
   current occupation vector 
     7  2  6  2
     7  2  6  2
  processed                2179574  ao basis integrals from 
                  3633  buffers.
  processed                5088004  ao basis integrals from 
                  8481  buffers.
  processed                9723054  ao basis integrals from 
                 16206  buffers.
       7          -579.764027147788283              0.1591331180D+01
   current occupation vector 
     7  2  6  2
     7  2  6  2
  processed                2179574  ao basis integrals from 
                  3633  buffers.
  processed                5088004  ao basis integrals from 
                  8481  buffers.
  processed                9723054  ao basis integrals from 
                 16206  buffers.
       8          -581.317135226427354              0.7762691201D+00
   current occupation vector 
     7  2  6  2
     7  2  6  2
  processed                2179574  ao basis integrals from 
                  3633  buffers.
  processed                5088004  ao basis integrals from 
                  8481  buffers.
  processed                9723054  ao basis integrals from 
                 16206  buffers.
       9          -581.363460953399908              0.8659917566D-01
   current occupation vector 
     7  2  6  2
     7  2  6  2
 
 sum over diagonal and offdiagdiagonal of C(T)*S*C for irrep
                     1
  2.383648833870211E-013 -1.763013343582710E-013
 reorthoganalization of MOs is carried out
 sum over diagonal and offdiagdiagonal of C(T)*S*C for irrep
                     1
  8.881784197001252E-015  2.806043508486460E-013
 
 sum over diagonal and offdiagdiagonal of C(T)*S*C for irrep
                     2
  6.616929226765933E-014 -2.175651494717570E-013
 reorthoganalization of MOs is carried out
 sum over diagonal and offdiagdiagonal of C(T)*S*C for irrep
                     2
  5.218048215738236E-015 -1.095610130854984E-014
 
 sum over diagonal and offdiagdiagonal of C(T)*S*C for irrep
                     3
  4.235500838944972E-013  7.061253136687893E-013
 reorthoganalization of MOs is carried out
 sum over diagonal and offdiagdiagonal of C(T)*S*C for irrep
                     3
 -8.992806499463768E-015 -1.422955604047842E-013
 
 sum over diagonal and offdiagdiagonal of C(T)*S*C for irrep
                     4
 -1.321165399303936E-014 -3.404613284101801E-015
 reorthoganalization of MOs is carried out
 sum over diagonal and offdiagdiagonal of C(T)*S*C for irrep
                     4
  8.770761894538737E-015 -3.387786264383663E-015
  processed                2179574  ao basis integrals from 
                  3633  buffers.
  processed                5088004  ao basis integrals from 
                  8481  buffers.
  processed                9723054  ao basis integrals from 
                 16206  buffers.
      10          -581.365072319303408              0.9411711292D-02
   current occupation vector 
     7  2  6  2
     7  2  6  2
  processed                2179574  ao basis integrals from 
                  3633  buffers.
  processed                5088004  ao basis integrals from 
                  8481  buffers.
  processed                9723054  ao basis integrals from 
                 16206  buffers.
      11          -581.365121479234631              0.3624814773D-02
   current occupation vector 
     7  2  6  2
     7  2  6  2
  processed                2179574  ao basis integrals from 
                  3633  buffers.
[...]
        T2        AB    0.0000000000 0.0000000939    3    6    8   84
    -------------------------------------------------------------------
   The AA contribution to the correlation energy is:   -0.0186003 a.u.
   The AB contribution to the correlation energy is:   -0.2784654 a.u.
   The total correlation energy is -0.315665976564 a.u.
   The total correlation energy is -0.315665976564 a.u.
  Current DIIS expansion coefficients : 
 [   1] 0.0022800384 [   2] 0.0047415942 [   3]-0.0818059544 [   4] 0.0093098458
 [   5] 1.0654744759
  Convergence information after    10 iterations: 
  Largest element of residual vector : -0.63389629E-06.
  Largest element of DIIS residual   : -0.50149697E-06.
   Largest T1 amplitudes for spin case AA:
   i       a                 i       a                 i       a    
-----------------------------------------------------------------------------
[  6      84    ]-0.02120 [  4      53    ] 0.02120 [  3       8    ]-0.01762
[  2       9    ] 0.01047 [  7     129    ] 0.01047 [  3      14    ]-0.01020
[  5      85    ] 0.01001 [  6      89    ] 0.00691 [  4      56    ] 0.00691
[  3      10    ] 0.00684 [  3      17    ] 0.00655 [  5      90    ] 0.00649
[  2      12    ] 0.00590 [  7     131    ] 0.00589 [  6      86    ]-0.00573
-----------------------------------------------------------------------------
   Norm of T1AA vector (      287 symmetry allowed elements):  0.0475512457.
-----------------------------------------------------------------------------
   Largest T2 amplitudes for spin case AB:
       _       _                 _       _                 _       _
   i   j   a   b             i   j   a   b             i   j   a   b
-----------------------------------------------------------------------------
[  3   3  84  84]-0.02721 [  3   3  53  53]-0.02720 [  3   3  87  87]-0.02514
[  6   6  84  84]-0.02347 [  4   4  53  53]-0.02346 [  2   2  84  84]-0.02251
[  7   7  53  53]-0.02251 [  3   3  83  83]-0.02006 [  3   3  87  83]-0.01997
[  3   3  83  87]-0.01997 [  3   3  88  84]-0.01628 [  3   3  84  88]-0.01628
[  3   3  55  53] 0.01628 [  3   3  53  55] 0.01628 [  3   3  10  10]-0.01619
-----------------------------------------------------------------------------
   Norm of T2AB vector (   281475 symmetry allowed elements):  0.3904417240.
-----------------------------------------------------------------------------
  W(mnij) AB contribution =  0.0727996013 a.u.
  W(abef) AB contribution =  0.1053400911 a.u.
  W(mbej) AB contribution = -0.2609290191 a.u.
   After  11 iterations, amplitude changes are:
    -------------------------------------------------------------------
                 Spin      RMS          Max.      Max. change for
     Amplitude   Case     Change       Change       i    j    a    b
    -------------------------------------------------------------------
        T1        AA    0.0000000014-0.0000002974    3         8
        T2        AA    0.0000000000 0.0000000227    3    2   85   84
        T2        AB    0.0000000000-0.0000000649    7    7   53   53
    -------------------------------------------------------------------
   The AA contribution to the correlation energy is:   -0.0186003 a.u.
   The AB contribution to the correlation energy is:   -0.2784655 a.u.
   The total correlation energy is -0.315666068437 a.u.
   The total correlation energy is -0.315666068437 a.u.
  Current DIIS expansion coefficients : 
 [   1] 1.3030410263 [   2] 0.0014994744 [   3] 0.0180546191 [   4]-0.0754176361
 [   5]-0.2471774837
  Convergence information after    11 iterations: 
  Largest element of residual vector : -0.29743298E-06.
  Largest element of DIIS residual   : -0.23332677E-06.
  W(mnij) AB contribution =  0.0727996706 a.u.
  W(abef) AB contribution =  0.1053401543 a.u.
  W(mbej) AB contribution = -0.2609292507 a.u.
   After  12 iterations, amplitude changes are:
    -------------------------------------------------------------------
                 Spin      RMS          Max.      Max. change for
     Amplitude   Case     Change       Change       i    j    a    b
    -------------------------------------------------------------------
        T1        AA    0.0000000007-0.0000001318    3         8
        T2        AA    0.0000000000 0.0000000086    3    2   85   84
        T2        AB    0.0000000000 0.0000000165    3    3   87   85
    -------------------------------------------------------------------
   The AA contribution to the correlation energy is:   -0.0186003 a.u.
   The AB contribution to the correlation energy is:   -0.2784655 a.u.
   The total correlation energy is -0.315666097826 a.u.
   The total correlation energy is -0.315666097826 a.u.
  Current DIIS expansion coefficients : 
 [   1]-0.2824722526 [   2] 1.3242573703 [   3]-0.0036654316 [   4] 0.0380335026
 [   5]-0.0761531887
  Convergence information after    12 iterations: 
  Largest element of residual vector : -0.13182829E-06.
  Largest element of DIIS residual   : -0.73864824E-07.
  W(mnij) AB contribution =  0.0727996687 a.u.
  W(abef) AB contribution =  0.1053401529 a.u.
  W(mbej) AB contribution = -0.2609292485 a.u.
   After  13 iterations, amplitude changes are:
    -------------------------------------------------------------------
                 Spin      RMS          Max.      Max. change for
     Amplitude   Case     Change       Change       i    j    a    b
    -------------------------------------------------------------------
        T1        AA    0.0000000002-0.0000000455    3         8
        T2        AA    0.0000000000-0.0000000028    4    3   53    8
        T2        AB    0.0000000000 0.0000000050    3    3   87   85
    -------------------------------------------------------------------
   The AA contribution to the correlation energy is:   -0.0186003 a.u.
   The AB contribution to the correlation energy is:   -0.2784655 a.u.
   The total correlation energy is -0.315666104150 a.u.
   The total correlation energy is -0.315666104150 a.u.
  Current DIIS expansion coefficients : 
 [   1]-0.0878673711 [   2]-0.0411518093 [   3] 1.1230339443 [   4] 0.0050891574
 [   5] 0.0008960787
  Convergence information after    13 iterations: 
  Largest element of residual vector : -0.45503967E-07.
  Largest element of DIIS residual   : -0.26480120E-07.
  W(mnij) AB contribution =  0.0727996645 a.u.
  W(abef) AB contribution =  0.1053401490 a.u.
  W(mbej) AB contribution = -0.2609292362 a.u.
   After  14 iterations, amplitude changes are:
    -------------------------------------------------------------------
                 Spin      RMS          Max.      Max. change for
     Amplitude   Case     Change       Change       i    j    a    b
    -------------------------------------------------------------------
        T1        AA    0.0000000001-0.0000000130    3         8
        T2        AA    0.0000000000-0.0000000012    4    3   53    8
        T2        AB    0.0000000000 0.0000000026    3    3   84   84
    -------------------------------------------------------------------
   The AA contribution to the correlation energy is:   -0.0186003 a.u.
   The AB contribution to the correlation energy is:   -0.2784655 a.u.
   The total correlation energy is -0.315666105553 a.u.
   The total correlation energy is -0.315666105553 a.u.
  Current DIIS expansion coefficients : 
 [   1] 0.0309981717 [   2]-0.1534763544 [   3] 0.0280506358 [   4] 1.0910959691
 [   5] 0.0033315778
  Convergence information after    14 iterations: 
  Largest element of residual vector : -0.13043845E-07.
  Largest element of DIIS residual   : -0.66077306E-08.
  W(mnij) AB contribution =  0.0727996614 a.u.
  W(abef) AB contribution =  0.1053401460 a.u.
  W(mbej) AB contribution = -0.2609292260 a.u.
   After  15 iterations, amplitude changes are:
    -------------------------------------------------------------------
                 Spin      RMS          Max.      Max. change for
     Amplitude   Case     Change       Change       i    j    a    b
    -------------------------------------------------------------------
        T1        AA    0.0000000000-0.0000000036    3         8
        T2        AA    0.0000000000 0.0000000004    6    3   84    8
        T2        AB    0.0000000000 0.0000000010    3    3   53   53
    -------------------------------------------------------------------
   The AA contribution to the correlation energy is:   -0.0186003 a.u.
   The AB contribution to the correlation energy is:   -0.2784655 a.u.
   The total correlation energy is -0.315666105433 a.u.
   The total correlation energy is -0.315666105433 a.u.
  Current DIIS expansion coefficients : 
 [   1] 0.0052539267 [   2] 0.0046189275 [   3]-0.0887323412 [   4]-0.0778917641
 [   5] 1.1567512510
  Convergence information after    15 iterations: 
  Largest element of residual vector : -0.35626518E-08.
  Largest element of DIIS residual   :  0.12719361E-08.
   Largest T1 amplitudes for spin case AA:
   i       a                 i       a                 i       a    
-----------------------------------------------------------------------------
[  6      84    ]-0.02120 [  4      53    ] 0.02120 [  3       8    ]-0.01762
[  2       9    ] 0.01047 [  7     129    ] 0.01047 [  3      14    ]-0.01020
[  5      85    ] 0.01001 [  6      89    ] 0.00691 [  4      56    ] 0.00691
[  3      10    ] 0.00684 [  3      17    ] 0.00655 [  5      90    ] 0.00649
[  2      12    ] 0.00590 [  7     131    ] 0.00589 [  6      86    ]-0.00573
-----------------------------------------------------------------------------
   Norm of T1AA vector (      287 symmetry allowed elements):  0.0475519761.
-----------------------------------------------------------------------------
   Largest T2 amplitudes for spin case AB:
       _       _                 _       _                 _       _
   i   j   a   b             i   j   a   b             i   j   a   b
-----------------------------------------------------------------------------
[  3   3  84  84]-0.02721 [  3   3  53  53]-0.02720 [  3   3  87  87]-0.02514
[  6   6  84  84]-0.02347 [  4   4  53  53]-0.02346 [  2   2  84  84]-0.02251
[  7   7  53  53]-0.02251 [  3   3  83  83]-0.02006 [  3   3  87  83]-0.01997
[  3   3  83  87]-0.01997 [  3   3  88  84]-0.01628 [  3   3  84  88]-0.01628
[  3   3  55  53] 0.01628 [  3   3  53  55] 0.01628 [  3   3  10  10]-0.01619
-----------------------------------------------------------------------------
   Norm of T2AB vector (   281475 symmetry allowed elements):  0.3904419329.
-----------------------------------------------------------------------------
  W(mnij) AB contribution =  0.0727996611 a.u.
  W(abef) AB contribution =  0.1053401454 a.u.
  W(mbej) AB contribution = -0.2609292244 a.u.
   After  16 iterations, amplitude changes are:
    -------------------------------------------------------------------
                 Spin      RMS          Max.      Max. change for
     Amplitude   Case     Change       Change       i    j    a    b
    -------------------------------------------------------------------
        T1        AA    0.0000000000-0.0000000007    3         8
        T2        AA    0.0000000000 0.0000000001    6    3   84    8
        T2        AB    0.0000000000-0.0000000002    2    2  129  129
    -------------------------------------------------------------------
   The AA contribution to the correlation energy is:   -0.0186003 a.u.
   The AB contribution to the correlation energy is:   -0.2784655 a.u.
   The total correlation energy is -0.315666105558 a.u.
   The total correlation energy is -0.315666105558 a.u.
  Current DIIS expansion coefficients : 
 [   1] 1.0856266642 [   2] 0.0060175464 [   3]-0.0048379103 [   4]-0.0522337420
 [   5]-0.0345725583
  Convergence information after    16 iterations: 
  Largest element of residual vector : -0.72253972E-09.
  Largest element of DIIS residual   : -0.55304828E-09.
  Amplitude equations converged in    16iterations.
   The AA contribution to the correlation energy is:   -0.0186003 a.u.
   The AB contribution to the correlation energy is:   -0.2784655 a.u.
   The total correlation energy is -0.315666105523 a.u.
   The total correlation energy is -0.315666105523 a.u.
   The CC iterations have converged.

   Largest T1 amplitudes for spin case AA:
   i       a                 i       a                 i       a    
-----------------------------------------------------------------------------
[  6      84    ]-0.02120 [  4      53    ] 0.02120 [  3       8    ]-0.01762
[  2       9    ] 0.01047 [  7     129    ] 0.01047 [  3      14    ]-0.01020
[  5      85    ] 0.01001 [  6      89    ] 0.00691 [  4      56    ] 0.00691
[  3      10    ] 0.00684 [  3      17    ] 0.00655 [  5      90    ] 0.00649
[  2      12    ] 0.00590 [  7     131    ] 0.00589 [  6      86    ]-0.00573
-----------------------------------------------------------------------------
   Norm of T1AA vector (      287 symmetry allowed elements):  0.0475519772.
-----------------------------------------------------------------------------
   Largest T2 amplitudes for spin case AB:
       _       _                 _       _                 _       _
   i   j   a   b             i   j   a   b             i   j   a   b
-----------------------------------------------------------------------------
[  3   3  84  84]-0.02721 [  3   3  53  53]-0.02720 [  3   3  87  87]-0.02514
[  6   6  84  84]-0.02347 [  4   4  53  53]-0.02346 [  2   2  84  84]-0.02251
[  7   7  53  53]-0.02251 [  3   3  83  83]-0.02006 [  3   3  87  83]-0.01997
[  3   3  83  87]-0.01997 [  3   3  88  84]-0.01628 [  3   3  84  88]-0.01628
[  3   3  55  53] 0.01628 [  3   3  53  55] 0.01628 [  3   3  10  10]-0.01619
-----------------------------------------------------------------------------
   Norm of T2AB vector (   281475 symmetry allowed elements):  0.3904419333.
-----------------------------------------------------------------------------
       Summary of iterative solution of CC equations 
      -----------------------------------------------------------
                       Correlation           Total
       Iteration         Energy              Energy
      -----------------------------------------------------------
            0        -0.265220473932    -581.630346424123  DIIS 
            1        -0.301865434574    -581.666991384766  DIIS 
            2        -0.311373766727    -581.676499716919  DIIS 
            3        -0.315142958901    -581.680268909092  DIIS 
            4        -0.315599284358    -581.680725234549  DIIS 
            5        -0.315668953247    -581.680794903439  DIIS 
            6        -0.315665700698    -581.680791650890  DIIS 
            7        -0.315665803179    -581.680791753370  DIIS 
            8        -0.315665173626    -581.680791123817  DIIS 
            9        -0.315665747012    -581.680791697203  DIIS 
           10        -0.315665976564    -581.680791926755  DIIS 
           11        -0.315666068437    -581.680792018628  DIIS 
           12        -0.315666097826    -581.680792048017  DIIS 
           13        -0.315666104150    -581.680792054341  DIIS 
           14        -0.315666105553    -581.680792055745  DIIS 
           15        -0.315666105433    -581.680792055624  DIIS 
           16        -0.315666105523    -581.680792055714  DIIS 
      -----------------------------------------------------------
      A miracle has come to pass. The CC iterations have converged.
 @DIMT3-I, Dimensions of T3 amplitudes : 
               # abc          # ijk       Symmetry    Spin 
                   141315              6     1          1
                   139960             10     2          1
                   141240              9     3          1
                   139960             10     4          1
                   430695             36     1          2
                   424380             36     2          2
                   430620             39     3          2
                   424380             36     4          2
                   430695             36     1          3
                   424380             36     2          3
                   430620             39     3          3
                   424380             36     4          3
                   141315              6     1          4
                   139960             10     2          4
                   141240              9     3          4
                   139960             10     4          4
 @DIMT3-I, Dimensions of T3 amplitudes : 
               # abc          # ijk       Symmetry    Spin 
                   141315              6     1          1
                   139960             10     2          1
                   141240              9     3          1
                   139960             10     4          1
                   430695             36     1          2
                   424380             36     2          2
                   430620             39     3          2
                   424380             36     4          2
                   430695             36     1          3
                   424380             36     2          3
                   430620             39     3          3
                   424380             36     4          3
                   141315              6     1          4
                   139960             10     2          4
                   141240              9     3          4
                   139960             10     4          4
 @TRPS-I, Welcome to TRPS. Watch your RUs ! 
 @TRPS-I, Method is CCSD(T) 
 @TRPS-I, Calculation type is energy 
 @TRPS-I, Reference function information : 
          Reference function is Hartree-Fock 
          Reference function is RHF Hartree-Fock 
 @TRPS-I, INT1 is true 
 @TRPS-I, INT2 is false 
 @TRPS-I, Lengths of ijka integrals. #1       5574
                                     #2       5574
                                     #3      13157
                                     #4      13157
                                    Max      13157
 @INITRP-I, Initializing W intermediate lists. 
 @SETOOOV-I, Some OOOV lists are being transposed. 
 @TRPS-I, Available memory in integer words   1499959040
          Number of pre-allocated words for TRPS2       186904
          Number of free words for TRPS2   1499772136
 @TRPS2-I, Spin case AAB 
 @TRPS2-I, Number of free integer words 1499772136
           Number of free double  words 1499772136
           Ratio                                 1
 @TRPS2-I, E4TBAA      -0.004639405517
  @TRPS2-I, E4TAAA  -1.672120653332991E-004
 @TRPS2-I, E5ST A    0.000057233504596
 @TRPS2-I, E5ST B    0.000049570048125
 @SETOOOV-I, Some OOOV lists are being transposed. 
 @CCENRG-I, CCSD/QCISD energy will now be evaluated. 
 @CCENRG-I, Correlation energies. ECCAA       -0.018600296191
                                  ECCBB        0.000000000000
                                  ECCAB       -0.278465513141
                                  Total       -0.315666105523
 @CCENRG-I, Reference   energy    -581.365125950191
            CCSD/QCISD energy     -581.680792055714
          E4T (T(CCSD)) = -0.009613235164
          E5ST          =  0.000213607105
          E4ST          =  0.000000000000
          In other words  
          <T3[2](Dagger) D3  T3[2]> = -0.009613235164
          <T1   (Dagger) Q1 WT3[2]> =  0.000213607105
          <T2   (Dagger) Q2 FT3[2]> =  0.000000000000
        E(CCSD)           =    -581.680792055714
        E(CCSD + T(CCSD)) =    -581.690405290878
        E(CCSD(T))        =    -581.690191683772
  @CHECKOUT-I, Total execution time (CPU/WALL):       23.52/      23.77 seconds.
--executable xvcc finished with status     0 in       23.92 seconds (walltime).
  The final electronic energy is      -581.690191683772241 a.u. 
  This computation required                           72.53 seconds (walltime).
