 --invoking executable--
/home/nike/cfour_v2.00beta/bin/xjoda


   *************************************************************************
         <<<     CCCCCC     CCCCCC   |||     CCCCCC     CCCCCC   >>>
       <<<      CCC        CCC       |||    CCC        CCC         >>>
      <<<      CCC        CCC        |||   CCC        CCC            >>>
    <<<        CCC        CCC        |||   CCC        CCC              >>>
      <<<      CCC        CCC        |||   CCC        CCC            >>>
       <<<      CCC        CCC       |||    CCC        CCC         >>>
         <<<     CCCCCC     CCCCCC   |||     CCCCCC     CCCCCC   >>>
   *************************************************************************

     ****************************************************************
     * CFOUR Coupled-Cluster techniques for Computational Chemistry *
     ****************************************************************
 

   Department of Chemistry                Institut fuer Physikalische Chemie
   University of Texas at Austin          Universitaet Mainz
   Austin, TX  78712, USA                 D-55099 Mainz, Germany
 
                       Version 2.00beta
 
                     wob146                                            
                     Fri Dec 21 16:52:01 EST 2018                      
                     integer*8 version is running
 
********************************************************************************
*                          Input from ZMAT file                                *
********************************************************************************
TITLE                                                                           
O                                                                               
                                                                                
*ACES2(CALC=CCSD                                                                
FROZEN_CORE=ON                                                                  
#DROPMO=1                                                                       
INPUT_MRCC=OFF                                                                  
CC_PROG=MRCC                                                                    
XFORM_TOL=18                                                                    
SAVE_INTS=ON                                                                    
SCF_EXPORDER=6                                                                  
SCF_EXPSTART=5                                                                  
#SCF_DAMPING=1000                                                               
SCF_EXTRAPOLATION=ON                                                            
SCF_CONV=10                                                                     
SCF_MAXCYC=9999                                                                 
CC_CONV=10                                                                      
CC_MAXCYC=999                                                                   
T3_EXTRAPOL=ON                                                                  
REFERENCE=ROHF                                                                  
CHARGE=+1                                                                       
MULT=4                                                                          
ABCDTYPE=STANDARD                                                               
OCCUPATION=2-1-1-0-1-0-0-0/2-0-0-0-0-0-0-0                                      
MEM=32                                                                          
MEM_UNIT=GB                                                                     
BASIS=SPECIAL)                                                                  
                                                                                
O:aV6Z-EMSL                                                                     
                                                                                
********************************************************************************
  @GTFLGS-W, Keyword #DROPMO not known and is ignored.
  @GTFLGS-W, Keyword #SCF_DAMPING not known and is ignored.
    -------------------------------------------------------------------
                    CFOUR Control Parameters 
    -------------------------------------------------------------------
        External           Internal           Value            Units
          Name               Name
    -------------------------------------------------------------------
       ABCDTYPE             IABCDT         STANDARD     [  0]   ***   
       ANHARMONIC           IANHAR         OFF          [  0]   ***   
       ANH_ALGORIT          IANALG         STANDARD     [  0]   ***   
       ANH_DERIVAT          IANDER         SECOND       [  1]   ***   
       ANH_STEPSIZ          ICUBST             50000          x 10-6  
       ANH_SYMMETR          IANHSM         ABELIAN      [  0]   ***   
       AO_LADDERS           IAOLAD         SINGLEPASS   [  1]   ***   
       BASIS                IBASIS         SPECIAL      [  0]   ***   
       BREIT                IBREIT         OFF          [  0]   ***   
       BRUCK_CONV           IBRTOL          10D-  4             ***   
       BRUECKNER            IBRKNR             OFF      [  0]   ***   
       BUFFERSIZE           IBUFFS            600               ***   
       CACHE_RECS           ICHREC             10               ***   
       CALCLEVEL            ICLLVL           CCSD       [ 10]   ***   
       CCORBOPT             ICCORB             OFF      [  0] x 0.01  
       CC_CONV              ICCCNV          10D- 10             ***   
       CC_EXPORDER          ICCEOR              5               ***   
       CC_EXTRAPOL          ICCEXT             DIIS     [  1]   ***   
       CC_MAXCYC            ICCCYC            999              cycles 
       CC_PROGRAM           ICCPRO         MRCC         [  2]   ***   
       CHARGE               ICHRGE              1               ***   
       CHOLESKY             ICHOLE         OFF          [  0]   ***   
       CIS_CONV             ICISTL              5               ***   
       COMM_SIZE            IPSIZE            ***               ***   
       CONSTANT             ICONST         OLD          [  1]   ***   
       CONTINUUM            ICONTU         NONE         [  0]   ***   
       CONTRACTION          ICNTYP          GENERAL     [  1]   ***   
       COORDINATES          ICOORD         INTERNAL     [  0]   ***   
       CPHF_CONVER          ICPHFT          10D- 16             ***   
       CPHF_MAXCYC          ICPHFC             64              cycles 
       CUBIC                ICUBIC         OFF          [  0]   ***   
       CURVILINEAR          ICURVY            OFF       [  0]   ***   
       DBOC                 IDBOC          OFF          [  0]   ***   
       DCT                  IDCT           OFF          [  0]   ***   
       DERIV_LEV            IDRLVL            ZERO      [  0]   ***   
       DIAG_MRCC            IEOMST          10D-  0             ***   
       DIFF_TYPE            IDIFTY         RELAXED      [  0]   ***   
       DIRECT               IDIRCT         OFF          [  0]   ***   
       DROPMO               IDRPMO      NONE         
       ECP                  IECP           OFF          [  0]   ***   
       EIGENVECTOR          IVEC                1               ***   
       EL_ANHARM            IELANH         OFF          [  0]   ***   
       EOMFOLLOW            IEOMSR         ENERGY       [  0]   ***   
       EOM_MRCC             IMRCCE         NEW          [  1]   ***   
       EOM_NONIT            EOMNON         OFF          [  0]   ***   
       EOM_NSING            IEOMSI          10D-  0             ***   
       EOM_NSTATES          IMRCCD         DAVIDSON     [  0]   ***   
       EOM_NTRIP            IEOMTR          10D-  0             ***   
       EOM_ORDER            IEXORD         ENERGY       [  0]   ***   
       ESTATE_CONV          IEXTOL          10D-  5             ***   
       ESTATE_DIAG          IEXDIG         ITERATIVE    [  0]   ***   
       ESTATE_LOCK          IESLOC         ON           [  1]   ***   
       ESTATE_MAXC          IEXMXC             20               ***   
       ESTATE_PROP          IEXPRP         OFF          [  0]   ***   
       EVAL_HESS            IRECAL              0            # of cyc.
       EXCITATION           IEXCIT              0               ***   
       EXCITE               IEXCIT         NONE         [  0]   ***   
       FCGRADNEW            IFCGNW         OFF          [  0]   ***   
       FC_FIELD             IFINFC              0             x 10-6  
       FD_CALTYPE           IFDCAL         GRADONLY     [  0]   ***   
       FD_PROJECT           IFDPRJ         OFF          [  1]   ***   
       FD_STEPSIZE          IDISFD              0            10-4 bohr
       FD_USEGROUP          IFDGRP         FULL         [  0]   ***   
       FILE_RECSIZ          IFLREC              4096           words  
       FINITE_PERT          IFIPER              0             x 10-6  
       FIXGEOM              IFIXGM         OFF          [  0]   ***   
       FOCK                 IFOCK          AO           [  1]   ***   
       FREQ_ALGORI          IVIALG         STANDARD     [  0]   ***   
       FROZEN_CORE          IFROCO         ON           [  1]   ***   
       FROZEN_VIRT          IFROVI         OFF          [  0]   ***   
       GAMMA_ABCD           IGABCD         STORE        [  0]   ***   
       GAMMA_ABCI           IGABCI         STORE        [  0]   ***   
       GENBAS_1             IGNBS1              0               ***   
       GENBAS_2             IGNBS2              0               ***   
       GENBAS_3             IGNBS3              0               ***   
       GENBAS_4             IGNBS4              0               ***   
       GEO_CONV             ICONTL              5              H/bohr 
       GEO_MAXCYC           IOPTCY             50               ***   
       GEO_MAXSTEP          IMXSTP            300            millibohr
       GEO_METHOD           INR            SINGLE_POINT [  5]   ***   
       GIAO                 IGIAO          OFF          [  1]   ***   
       GIMIC                IGIMIC         OFF          [  0]   ***   
       GRID                 IGRID          OFF          [  0]   ***   
       GRID_ALGO            IGALGO         SERIAL       [  0]   ***   
       GUESS                IGUESS            MOREAD    [  0]   ***   
       HBAR                 IHBAR              OFF      [  0]   ***   
       HESS_TYPE            IHESTP         SCF          [  0]   ***   
       HF2_FILE             IHF2Fl         USE          [  1]   ***   
       HFSTABILITY          ISTABL         OFF          [  0]   ***   
       INCORE               INCORE             OFF      [  0]   ***   
       INPUT_MRCC           IMRCC          OFF          [  0]   ***   
       INTEGRALS            INTTYP             VMOL     [  1]   ***   
       JODA_PRINT           IJPRNT              0               ***   
       LINDEP_TOL           ILINDP              8               ***   
       LINEQ_CONV           IZTACN          10D-  7           cycles  
       LINEQ_EXPOR          ILMAXD              5               ***   
       LINEQ_MAXCY          ILMAXC             50               ***   
       LINEQ_TYPE           ILTYPE         DIIS         [  1]   ***   
       LOCK_ORBOCC          ILOCOC             OFF      [  0]   ***   
       MEMORY_SIZE          IMEMSZ         *********           words  
       MEM_UNIT             IMEMU          GB           [  3]   ***   
       MRCC                 IMRCCC         OFF          [  0]   ***   
       MULTIPLICTY          IMULTP              4               ***   
       NEGEVAL              IDIE             ABORT      [  0]   ***   
       NEWNORM              INEWNO         OFF          [  0]   ***   
       NON-HF               INONHF              ON      [  1]   ***   
       NTOP_TAMP            ITOPT2             15               ***   
       NUC_MODEL            INUCMO         POINT        [  0]   ***   
       OCCUPATION           IOCCU  A   2,  1,  1,  0,  1,  0,  0,  0,
                                   B   2,  0,  0,  0,  0,  0,  0,  0,
       OPEN-SHELL           IOPEN          SPIN-ORBITAL [  0]   ***   
       ORBITALS             IORBTP         SEMICANONICAL[  1]   ***   
       PARALLEL             IPARAL         ON           [  1]   ***   
       PARA_INT             IPINTS         ON           [  1]   ***   
       PARA_PRINT           IPPRIN              0               ***   
       PERT_ORB             IPTORB         STANDARD     [  0]   ***   
       POINTS               IGRDFD              0               ***   
       PRINT                IPRNT               0               ***   
       PROPS                IPROPS             OFF      [  0]   ***   
       PROP_INTEGR          IINTYP         INTERNAL     [  0]   ***   
       PSI                  IPSI           OFF          [  0]   ***   
       QUARTIC              IQUART         OFF          [  0]   ***   
       RAMAN_INT            IRAMIN         OFF          [  0]   ***   
       RAMAN_ORB            IRAMRE         UNRELAXED    [  0]   ***   
       RDO                  IRDOFM             OFF      [  0]   ***   
       REFERENCE            IREFNC             ROHF     [  2]   ***   
       RELATIVIST           IRELAT         OFF          [  0]   ***   
       RELAX_DENS           IRDENS             OFF      [  0]   ***   
       RESET_FLAGS          IRESET             OFF      [  0]   ***   
       RESTART_CC           ICCRES         OFF          [  0]   ***   
       ROT_EVEC             ROTVEC              0               ***   
       SAVE_INTS            ISVINT              ON      [  1]   ***   
       SCALE_ON             ISTCRT              0               ***   
       SCF_CONV             ISCFCV          10D- 10             ***   
       SCF_DAMPING          IDAMP               0             x 10-3  
       SCF_EXPORDE          IRPPOR              6               ***   
       SCF_EXPSTAR          IRPPLS              5               ***   
       SCF_EXTRAPO          IRPP                ON      [  1]   ***   
       SCF_MAXCYC           ISCFCY            ***              cycles 
       SCF_NOSTOP           ISCFST         OFF          [  0]   ***   
       SCF_PRINT            ISCFPR              0               ***   
       SD_FIELD             IFINSD              0             x 10-6  
       SEQUENCE             ISEQUE         OFF          [  0]   ***   
       SOPERT               IPERSO         OFF          [  0]   ***   
       SPHERICAL            IDFGHI             ON       [  1]   ***   
       SPINORBIT            ISOCAL         OFF          [  0]   ***   
       SPINROTATIO          ISRCON         OFF          [  0]   ***   
       SPIN_FLIP            ISPFLP         OFF          [  0]   ***   
       SPIN_ORBIT           ISPORB         OFF          [  0]   ***   
       SPIN_SCAL            ISCSMP         OFF          [  0]   ***   
       SUBGROUP             ISUBGP         DEFAULT      [  0]   ***   
       SUBGRPAXIS           ISBXYZ         X            [  0]   ***   
       SYMMETRY             ISYM             ON         [  0]   ***   
       SYM_CHECK            ISYMCK         OVERRIDE     [  1]   ***   
       T3_EXTRAPOL          IT3EXT         ON           [  1]   ***   
       TAMP_SUM             IEVERY              5               ***   
       TESTSUITE            ITESTS         OFF          [  0]   ***   
       THERMOCH             ITHERM         OFF          [  0]   ***   
       TOL_CHOLESK          ITOLCH          10D-  4             ***   
       TRANGRAD             IRESRM         OFF          [  0]   ***   
       TRANS_INV            ITRAIN         USE          [  0]   ***   
       TREAT_PERT           ITREAT         SIMULTANEOUS [  0]   ***   
       UIJ_THRESHO          IUIJTH              1               ***   
       UNITS                IUNITS         ANGSTROM     [  0]   ***   
       UNOS                 IUNOS          OFF          [  0]   ***   
       UPDATE_HESS          IHUPDT         ON           [  1]   ***   
       VIBPHASE             ISETPH         STANDARD     [  0]   ***   
       VIBRATION            IVIB              NO        [  0]   ***   
       VIB_ALGORIT          IGEALG         STANDARD     [  0]   ***   
       VNATORB              IVNORB         OFF          [  0]   ***   
       VTRAN                IVTRAN         FULL/PARTIAL [  0]   ***   
       XFIELD               IXEFLD              0             x 10-6  
       XFORM_TOL            IXFTOL          10D- 18             ***   
       YFIELD               IYEFLD              0             x 10-6  
       ZFIELD               IZEFLD              0             x 10-6  
    -------------------------------------------------------------------
   1 entries found in Z-matrix 
   Job Title : TITLE                                                                           
  1  O          8    15.99491
 factor:   60.1997200000000     
   Rotational constants (in cm-1): 

   Rotational constants (in MHz): 

********************************************************************************
   The full molecular point group is I h .
   The largest Abelian subgroup of the full molecular point group is D2h .
   The computational point group is D2h .
********************************************************************************
  @GTFLGS-W, Keyword #DROPMO not known and is ignored.
  @GTFLGS-W, Keyword #SCF_DAMPING not known and is ignored.
  There is   1 frozen-core orbital.
  There is   1 frozen-core orbital.
  There are  189 basis functions.
 @GEOPT-W, Archive file not created for single-point calculation.
  @CHECKOUT-I, Total execution time (CPU/WALL):        0.11/       0.31 seconds.
--executable xjoda finished with status     0 in        0.67 seconds (walltime).
 --invoking executable--
/home/nike/cfour_v2.00beta/bin/xvmol
 Serial version of molecule started
********************************************************************************
                    Input from MOL file
********************************************************************************
INTGRL        1    0    1    0    0    0    0    0    0                         
         *** CFOUR Program System (Release V0.1) ***                            
TITLE                                                                           
    1    3 X  Y   Z   0.10E-08              0    0                              
   9999.00      3.00                                                            
          8.00000000    1    7    1    1    1    1    1    1    1               
O #1   0.000000000000000   0.000000000000000   0.000000000000000                
   17    8                                                                      
   570800.000000000       5.500000000000000E-006 -1.200000000000000E-006        
  0.000000000000000E+000  0.000000000000000E+000  0.000000000000000E+000        
  0.000000000000000E+000  0.000000000000000E+000  0.000000000000000E+000        
   85480.0000000000       4.310000000000000E-005 -9.700000000000000E-006        
  0.000000000000000E+000  0.000000000000000E+000  0.000000000000000E+000        
  0.000000000000000E+000  0.000000000000000E+000  0.000000000000000E+000        
   19460.0000000000       2.266000000000000E-004 -5.140000000000000E-005        
  0.000000000000000E+000  0.000000000000000E+000  0.000000000000000E+000        
  0.000000000000000E+000  0.000000000000000E+000  0.000000000000000E+000        
   5512.00000000000       9.563000000000000E-004 -2.169000000000000E-004        
  0.000000000000000E+000  0.000000000000000E+000  0.000000000000000E+000        
  0.000000000000000E+000  0.000000000000000E+000  0.000000000000000E+000        
   1798.00000000000       3.473200000000000E-003 -7.916000000000001E-004        
  0.000000000000000E+000  0.000000000000000E+000  0.000000000000000E+000        
  0.000000000000000E+000  0.000000000000000E+000  0.000000000000000E+000        
   648.900000000000       1.119770000000000E-002 -2.559000000000000E-003        
  0.000000000000000E+000  0.000000000000000E+000  0.000000000000000E+000        
  0.000000000000000E+000  0.000000000000000E+000  0.000000000000000E+000        
   253.100000000000       3.238760000000000E-002 -7.533100000000000E-003        
  0.000000000000000E+000  0.000000000000000E+000  0.000000000000000E+000        
  0.000000000000000E+000  0.000000000000000E+000  0.000000000000000E+000        
   104.900000000000       8.285969999999999E-002 -1.978890000000000E-002        
  0.000000000000000E+000  0.000000000000000E+000  0.000000000000000E+000        
  0.000000000000000E+000  0.000000000000000E+000  0.000000000000000E+000        
   45.6500000000000       0.179583800000000      -4.606280000000000E-002        
  0.000000000000000E+000  0.000000000000000E+000  0.000000000000000E+000        
  0.000000000000000E+000  0.000000000000000E+000  0.000000000000000E+000        
   20.6200000000000       0.305221100000000      -8.919560000000000E-002        
  0.000000000000000E+000  0.000000000000000E+000  0.000000000000000E+000        
  0.000000000000000E+000  0.000000000000000E+000  0.000000000000000E+000        
   9.58700000000000       0.340893400000000      -0.137542100000000             
  0.000000000000000E+000  0.000000000000000E+000  0.000000000000000E+000        
  0.000000000000000E+000  0.000000000000000E+000  0.000000000000000E+000        
   4.49300000000000       0.177426100000000      -0.105119400000000             
   1.00000000000000       0.000000000000000E+000  0.000000000000000E+000        
  0.000000000000000E+000  0.000000000000000E+000  0.000000000000000E+000        
   1.83700000000000       2.049100000000000E-002  0.144771400000000             
  0.000000000000000E+000   1.00000000000000       0.000000000000000E+000        
  0.000000000000000E+000  0.000000000000000E+000  0.000000000000000E+000        
  0.834900000000000      -9.680000000000000E-004  0.441463300000000             
  0.000000000000000E+000  0.000000000000000E+000   1.00000000000000             
  0.000000000000000E+000  0.000000000000000E+000  0.000000000000000E+000        
  0.365800000000000       1.057100000000000E-003  0.444681400000000             
  0.000000000000000E+000  0.000000000000000E+000  0.000000000000000E+000        
   1.00000000000000       0.000000000000000E+000  0.000000000000000E+000        
  0.157000000000000      -9.720000000000000E-005  0.128242500000000             
  0.000000000000000E+000  0.000000000000000E+000  0.000000000000000E+000        
  0.000000000000000E+000   1.00000000000000       0.000000000000000E+000        
  5.935000000000000E-002  0.000000000000000E+000  0.000000000000000E+000        
  0.000000000000000E+000  0.000000000000000E+000  0.000000000000000E+000        
  0.000000000000000E+000  0.000000000000000E+000   1.00000000000000             
   11    7                                                                      
   525.600000000000       1.666000000000000E-004  0.000000000000000E+000        
  0.000000000000000E+000  0.000000000000000E+000  0.000000000000000E+000        
  0.000000000000000E+000  0.000000000000000E+000                                
   124.600000000000       1.433300000000000E-003  0.000000000000000E+000        
  0.000000000000000E+000  0.000000000000000E+000  0.000000000000000E+000        
  0.000000000000000E+000  0.000000000000000E+000                                
   40.3400000000000       7.547600000000000E-003  0.000000000000000E+000        
  0.000000000000000E+000  0.000000000000000E+000  0.000000000000000E+000        
  0.000000000000000E+000  0.000000000000000E+000                                
   15.1800000000000       2.859450000000000E-002  0.000000000000000E+000        
  0.000000000000000E+000  0.000000000000000E+000  0.000000000000000E+000        
  0.000000000000000E+000  0.000000000000000E+000                                
   6.24500000000000       8.438850000000001E-002  0.000000000000000E+000        
  0.000000000000000E+000  0.000000000000000E+000  0.000000000000000E+000        
  0.000000000000000E+000  0.000000000000000E+000                                
   2.73200000000000       0.187483400000000        1.00000000000000             
  0.000000000000000E+000  0.000000000000000E+000  0.000000000000000E+000        
  0.000000000000000E+000  0.000000000000000E+000                                
   1.22700000000000       0.297905700000000       0.000000000000000E+000        
   1.00000000000000       0.000000000000000E+000  0.000000000000000E+000        
  0.000000000000000E+000  0.000000000000000E+000                                
  0.549200000000000       0.338557500000000       0.000000000000000E+000        
  0.000000000000000E+000   1.00000000000000       0.000000000000000E+000        
  0.000000000000000E+000  0.000000000000000E+000                                
  0.241800000000000       0.247260900000000       0.000000000000000E+000        
  0.000000000000000E+000  0.000000000000000E+000   1.00000000000000             
  0.000000000000000E+000  0.000000000000000E+000                                
  0.102500000000000       7.003350000000000E-002  0.000000000000000E+000        
  0.000000000000000E+000  0.000000000000000E+000  0.000000000000000E+000        
   1.00000000000000       0.000000000000000E+000                                
  3.380000000000000E-002  0.000000000000000E+000  0.000000000000000E+000        
  0.000000000000000E+000  0.000000000000000E+000  0.000000000000000E+000        
  0.000000000000000E+000   1.00000000000000                                     
    6    6                                                                      
   8.25300000000000        1.00000000000000       0.000000000000000E+000        
  0.000000000000000E+000  0.000000000000000E+000  0.000000000000000E+000        
  0.000000000000000E+000                                                        
   3.59700000000000       0.000000000000000E+000   1.00000000000000             
  0.000000000000000E+000  0.000000000000000E+000  0.000000000000000E+000        
  0.000000000000000E+000                                                        
   1.56800000000000       0.000000000000000E+000  0.000000000000000E+000        
   1.00000000000000       0.000000000000000E+000  0.000000000000000E+000        
  0.000000000000000E+000                                                        
  0.684000000000000       0.000000000000000E+000  0.000000000000000E+000        
  0.000000000000000E+000   1.00000000000000       0.000000000000000E+000        
  0.000000000000000E+000                                                        
  0.298000000000000       0.000000000000000E+000  0.000000000000000E+000        
  0.000000000000000E+000  0.000000000000000E+000   1.00000000000000             
  0.000000000000000E+000                                                        
  0.115000000000000       0.000000000000000E+000  0.000000000000000E+000        
  0.000000000000000E+000  0.000000000000000E+000  0.000000000000000E+000        
   1.00000000000000                                                             
    5    5                                                                      
   5.43000000000000        1.00000000000000       0.000000000000000E+000        
  0.000000000000000E+000  0.000000000000000E+000  0.000000000000000E+000        
   2.41600000000000       0.000000000000000E+000   1.00000000000000             
  0.000000000000000E+000  0.000000000000000E+000  0.000000000000000E+000        
   1.07500000000000       0.000000000000000E+000  0.000000000000000E+000        
   1.00000000000000       0.000000000000000E+000  0.000000000000000E+000        
  0.478000000000000       0.000000000000000E+000  0.000000000000000E+000        
  0.000000000000000E+000   1.00000000000000       0.000000000000000E+000        
  0.195000000000000       0.000000000000000E+000  0.000000000000000E+000        
  0.000000000000000E+000  0.000000000000000E+000   1.00000000000000             
    4    4                                                                      
   5.21100000000000        1.00000000000000       0.000000000000000E+000        
  0.000000000000000E+000  0.000000000000000E+000                                
   2.19000000000000       0.000000000000000E+000   1.00000000000000             
  0.000000000000000E+000  0.000000000000000E+000                                
  0.920000000000000       0.000000000000000E+000  0.000000000000000E+000        
   1.00000000000000       0.000000000000000E+000                                
  0.406000000000000       0.000000000000000E+000  0.000000000000000E+000        
  0.000000000000000E+000   1.00000000000000                                     
    3    3                                                                      
   3.87200000000000        1.00000000000000       0.000000000000000E+000        
  0.000000000000000E+000                                                        
   1.50500000000000       0.000000000000000E+000   1.00000000000000             
  0.000000000000000E+000                                                        
  0.748000000000000       0.000000000000000E+000  0.000000000000000E+000        
   1.00000000000000                                                             
    2    2                                                                      
   2.77300000000000        1.00000000000000       0.000000000000000E+000        
   1.34500000000000       0.000000000000000E+000   1.00000000000000             
FINISH                                                                          
 
********************************************************************************
 One- and two-electron integrals over symmetry-adapted AOs are calculated.

  Spherical harmonics are used.
  
  Integrals less than  0.10E-13 are neglected.

  Nuclear repulsion energy :    0.0000000000 a.u.
  required memory for a1 array               20520796  words 
  required memory for a2 array               33534552  words 
 @GETMEM-I,  Allocated     427 MB of main memory.
  @MOLECU-I, One electron integrals (CPU/WALL):        0.13/       0.15 seconds.
  @TWOEL-I,     480996 integrals of symmetry type  I I I I
  @TWOEL-I,    4113870 integrals of symmetry type  I J I J
  @TWOEL-I,    2363771 integrals of symmetry type  I I J J
  @TWOEL-I,   10113407 integrals of symmetry type  I J K L
  @TWOEL-I, Total number of 2-e integrals   17072044.
  @MOLECU-I, Two electron integrals (CPU/WALL):       49.68/      49.75 seconds.
  @CHECKOUT-I, Total execution time (CPU/WALL):       49.98/      50.11 seconds.
--executable xvmol finished with status     0 in       50.35 seconds (walltime).
 --invoking executable--
/home/nike/cfour_v2.00beta/bin/xvmol2ja
 @GETMEM-I,  Allocated   30517 MB of main memory.
  @CHECKOUT-I, Total execution time (CPU/WALL):        0.01/       0.01 seconds.
--executable xvmol2ja finished with status     0 in        0.31 seconds (walltime).
 --invoking executable--
/home/nike/cfour_v2.00beta/bin/xvscf
  There are  189 functions in the AO basis.

  There are 8 irreducible representations.

       Irrep        # of functions
         1                 40
         2                 26
         3                 26
         4                 20
         5                 26
         6                 20
         7                 20
         8                 11


  Parameters for SCF calculation: 
        SCF reference function: ROHF  
  Maximum number of iterations: 9999
     Full symmetry point group: I h 
     Computational point group: D2h 
        Initial density matrix: MOREAD                 
     SCF convergence tolerance: 10**(-10)
  DIIS convergence acceleration:  ON
          Latest start for DIIS:   5
                     DIIS order:   6

     Alpha population by irrep:   2    1    1    0    1    0    0    0
      Beta population by irrep:   2    0    0    0    0    0    0    0


  Memory information:    2725225 words required.
  Fock matrices are constructed from AO integral file.
 @GETMEM-I,  Allocated      20 MB of main memory.
  Initialization and symmetry analysis required      0.001 seconds.

 total no. of electrons in initial guess :  0.000000000000000E+000
 total no. of electrons in initial guess :  0.000000000000000E+000
  --------------------------------------------------------------------
  Iteration         Total Energy            Largest Density Difference
  --------------------------------------------------------------------
       0             0.000000000000000              0.0000000000D+00
   current occupation vector 
     2  1  1  0  1  0  0  0
     2  0  0  0  0  0  0  0
       1           -69.177607626662905              0.9132525258D+01
   current occupation vector 
     2  1  1  0  1  0  0  0
     2  0  0  0  0  0  0  0
       2           -71.114735689157854              0.9055074033D+01
   current occupation vector 
     2  1  1  0  1  0  0  0
     2  0  0  0  0  0  0  0
       3           -74.119460410447516              0.1833342709D+01
   current occupation vector 
     2  1  1  0  1  0  0  0
     2  0  0  0  0  0  0  0
       4           -74.344040214110279              0.8522212927D+00
   current occupation vector 
     2  1  1  0  1  0  0  0
     2  0  0  0  0  0  0  0
       5           -74.370525503272717              0.2362563954D+00
   current occupation vector 
     2  1  1  0  1  0  0  0
     2  0  0  0  0  0  0  0
       6           -74.372529574529835              0.4180735826D-01
   current occupation vector 
     2  1  1  0  1  0  0  0
     2  0  0  0  0  0  0  0
       7           -74.372584100220294              0.5255548285D-02
   current occupation vector 
     2  1  1  0  1  0  0  0
     2  0  0  0  0  0  0  0
       8           -74.372585567518414              0.1289400798D-02
   current occupation vector 
     2  1  1  0  1  0  0  0
     2  0  0  0  0  0  0  0
       9           -74.372586001460419              0.4616184247D-03
   current occupation vector 
     2  1  1  0  1  0  0  0
     2  0  0  0  0  0  0  0
      10           -74.372586003291957              0.4979862268D-04
   current occupation vector 
     2  1  1  0  1  0  0  0
     2  0  0  0  0  0  0  0
      11           -74.372586003295481              0.1335395317D-05
   current occupation vector 
     2  1  1  0  1  0  0  0
     2  0  0  0  0  0  0  0
      12           -74.372586003295709              0.1792208946D-06
   current occupation vector 
     2  1  1  0  1  0  0  0
     2  0  0  0  0  0  0  0
      13           -74.372586003295538              0.1085164810D-07
   current occupation vector 
     2  1  1  0  1  0  0  0
     2  0  0  0  0  0  0  0
      14           -74.372586003295581              0.7319855555D-09
   current occupation vector 
     2  1  1  0  1  0  0  0
     2  0  0  0  0  0  0  0

  SCF has converged.

 Density matrix saved to file den.dat
 total alpha spin electron number:   5.00000000000000     
 total  beta spin electron number:   2.00000000000000     
     E(ROHF)=       -74.372586003295510              0.5827582861D-10

  Eigenvector printing suppressed.


       The average multiplicity is    4.0000000
  The expectation value of S**2 is    3.7500000

 @PUTMOS-I, Writing converged MOs to NEWMOS. 
 @PUTMOS-I, Symmetry   1 Full Blocks 10 Partial Blocksize   0
 @PUTMOS-I, Symmetry   2 Full Blocks  6 Partial Blocksize   2
 @PUTMOS-I, Symmetry   3 Full Blocks  6 Partial Blocksize   2
 @PUTMOS-I, Symmetry   4 Full Blocks  5 Partial Blocksize   0
 @PUTMOS-I, Symmetry   5 Full Blocks  6 Partial Blocksize   2
 @PUTMOS-I, Symmetry   6 Full Blocks  5 Partial Blocksize   0
 @PUTMOS-I, Symmetry   7 Full Blocks  5 Partial Blocksize   0
 @PUTMOS-I, Symmetry   8 Full Blocks  2 Partial Blocksize   3
  @DMPJOB-I, Rotating orbitals to semicanonical basis.
             *** Eigenvalues correspond to new basis. ***

  @PRJDEN-I, Basis set contains h and/or higher angular momentum functions.
             Analysis of density matrix symmetry not available.
             Check irreps of the molecular orbitals in the full point group
             for presence of an asymmetric solution.

 
  ORBITAL EIGENVALUES (ALPHA)  (1H = 27.2113838 eV)

       MO #        E(hartree)               E(eV)           FULLSYM    COMPSYM
       ----   --------------------   --------------------   -------   ---------
    1     1         -21.4115052434        -582.6366873343      Ag        Ag (1)
    2     2          -2.0585096760         -56.0148968889      Ag        Ag (1)
    3    67          -1.3269139836         -36.1071657042     T1u       B3u (3)
    4    41          -1.3269139836         -36.1071657042     T1u       B2u (2)
    5   113          -1.3269139836         -36.1071657042     T1u       B1u (5)
  +++++++++++++++++++++++++++++++++++++++++++++++++++++++++++++++++++++++++++++
    6     3          -0.1449285236          -3.9437056810      Ag        Ag (1)
    7    42          -0.0991680525          -2.6984999403     T1u       B2u (2)
    8    68          -0.0991680525          -2.6984999403     T1u       B3u (3)
    9   114          -0.0991680525          -2.6984999402     T1u       B1u (5)
   10    93           0.0869518062           2.3660789711      Hg       B1g (4)
   11     4           0.0869518062           2.3660789711      Hg        Ag (1)
   12   159           0.0869518062           2.3660789711      Hg       B2g (7)
   13   139           0.0869518062           2.3660789711      Hg       B3g (6)
   14     5           0.0869518062           2.3660789711      Hg        Ag (1)
   15    69           0.0877619641           2.3881244905     T1u       B3u (3)
   16    43           0.0877619641           2.3881244905     T1u       B2u (2)
   17   115           0.0877619641           2.3881244905     T1u       B1u (5)
   18     6           0.2485826193           6.7642770646      Ag        Ag (1)
   19   116           0.5010614806          13.6345762663       u       B1u (5)
   20    70           0.5010614806          13.6345762663       u       B3u (3)
   21   179           0.5010614806          13.6345762663       u        Au (8)
   22   117           0.5010614806          13.6345762663       u       B1u (5)
   23    71           0.5010614806          13.6345762663       u       B3u (3)
   24    44           0.5010614806          13.6345762663       u       B2u (2)
   25    45           0.5010614806          13.6345762663       u       B2u (2)
   26   140           0.6660345043          18.1237205325      Hg       B3g (6)
   27    94           0.6660345043          18.1237205325      Hg       B1g (4)
   28     7           0.6660345043          18.1237205325      Hg        Ag (1)
   29     8           0.6660345043          18.1237205325      Hg        Ag (1)
   30   160           0.6660345043          18.1237205325      Hg       B2g (7)
   31    72           0.7156386215          19.4735172049     T1u       B3u (3)
   32    46           0.7156386215          19.4735172049     T1u       B2u (2)
   33   118           0.7156386215          19.4735172049     T1u       B1u (5)
   34     9           1.5873940720          43.1951893660      Ag        Ag (1)
   35    95           1.6654765629          45.3199219943       g       B1g (4)
   36    10           1.6654765629          45.3199219943       g        Ag (1)
   37    11           1.6654765629          45.3199219943       g        Ag (1)
   38   161           1.6654765629          45.3199219943       g       B2g (7)
   39    12           1.6654765629          45.3199219943       g        Ag (1)
   40   162           1.6654765629          45.3199219943       g       B2g (7)
   41   141           1.6654765629          45.3199219943       g       B3g (6)
   42    96           1.6654765629          45.3199219943       g       B1g (4)
   43   142           1.6654765629          45.3199219943       g       B3g (6)
   44    47           1.8438676539          50.1741904440       u       B2u (2)
   45   119           1.8438676539          50.1741904440       u       B1u (5)
   46    73           1.8438676539          50.1741904440       u       B3u (3)
   47   180           1.8438676539          50.1741904440       u        Au (8)
   48   120           1.8438676539          50.1741904440       u       B1u (5)
   49    48           1.8438676539          50.1741904440       u       B2u (2)
   50    74           1.8438676539          50.1741904440       u       B3u (3)
   51    97           2.0587224655          56.0206871861      Hg       B1g (4)
   52   163           2.0587224655          56.0206871861      Hg       B2g (7)
   53   143           2.0587224655          56.0206871861      Hg       B3g (6)
   54    13           2.0587224655          56.0206871861      Hg        Ag (1)
   55    14           2.0587224655          56.0206871861      Hg        Ag (1)
   56    75           2.4776488011          67.4202524974     T1u       B3u (3)
   57    49           2.4776488011          67.4202524974     T1u       B2u (2)
   58   121           2.4776488011          67.4202524974     T1u       B1u (5)
   59   122           3.9713006233         108.0645855247               B1u (5)
   60   181           3.9713006233         108.0645855247                Au (8)
   61    76           3.9713006233         108.0645855247               B3u (3)
   62   182           3.9713006233         108.0645855247                Au (8)
   63   123           3.9713006233         108.0645855247               B1u (5)
   64    50           3.9713006233         108.0645855247               B2u (2)
   65    77           3.9713006233         108.0645855247               B3u (3)
   66    51           3.9713006233         108.0645855247               B2u (2)
   67    78           3.9713006233         108.0645855247               B3u (3)
   68   124           3.9713006233         108.0645855247               B1u (5)
   69    52           3.9713006233         108.0645855247               B2u (2)
   70   125           4.8196139449         131.1483649176       u       B1u (5)
   71   183           4.8196139449         131.1483649176       u        Au (8)
   72   126           4.8196139449         131.1483649176       u       B2u (5)
   73    53           4.8196139449         131.1483649176       u       B1u (2)
   74    79           4.8196139449         131.1483649176       u       B3u (3)
   75    80           4.8196139449         131.1483649176       u       B3u (3)
   76    54           4.8196139449         131.1483649176       u       B2u (2)
   77    15           4.8974025967         133.2651017782       g        Ag (1)
   78    98           4.8974025967         133.2651017782       g       B1g (4)
   79   164           4.8974025967         133.2651017782       g       B2g (7)
   80   144           4.8974025967         133.2651017782       g       B3g (6)
   81    99           4.8974025967         133.2651017782       g       B1g (4)
   82   165           4.8974025967         133.2651017782       g       B2g (7)
   83    16           4.8974025967         133.2651017782       g        Ag (1)
   84   145           4.8974025967         133.2651017782       g       B3g (6)
   85    17           4.8974025967         133.2651017782       g        Ag (1)
   86   166           5.3937496175         146.7713910675      Hg       B2g (7)
   87   146           5.3937496175         146.7713910675      Hg       B3g (6)
   88    18           5.3937496175         146.7713910675      Hg        Ag (1)
   89   100           5.3937496175         146.7713910675      Hg       B1g (4)
   90    19           5.3937496175         146.7713910675      Hg        Ag (1)
   91    20           5.6897149834         154.8250182371      Ag        Ag (1)
   92    81           7.0280646979         191.2433660047     T1u       B3u (3)
   93    55           7.0280646979         191.2433660047     T1u       B2u (2)
   94   127           7.0280646979         191.2433660047     T1u       B1u (5)
   95    21           8.8261628994         240.1721063105    XXXX      XXXX (1)
   96    22           8.8261628994         240.1721063105    XXXX      XXXX (1)
   97    23           8.8261628994         240.1721063105    XXXX      XXXX (1)
   98   101           8.8261628994         240.1721063105    XXXX      XXXX (4)
   99   167           8.8261628994         240.1721063105    XXXX      XXXX (7)
  100   102           8.8261628994         240.1721063105    XXXX      XXXX (4)
  101   147           8.8261628994         240.1721063105    XXXX      XXXX (6)
  102   148           8.8261628994         240.1721063105    XXXX      XXXX (6)
  103   168           8.8261628994         240.1721063105    XXXX      XXXX (7)
  104   103           8.8261628994         240.1721063105    XXXX      XXXX (4)
  105   169           8.8261628994         240.1721063105    XXXX      XXXX (7)
  106    24           8.8261628994         240.1721063105    XXXX      XXXX (1)
  107   149           8.8261628994         240.1721063105    XXXX      XXXX (6)
  108   128          10.2032582796         277.6447772558               B3u (5)
  109    82          10.2032582796         277.6447772558               B1u (3)
  110   129          10.2032582796         277.6447772558               B2u (5)
  111    56          10.2032582796         277.6447772558               B1u (2)
  112    57          10.2032582796         277.6447772558               B2u (2)
  113    83          10.2032582796         277.6447772558               B3u (3)
  114   184          10.2032582796         277.6447772558                Au (8)
  115   185          10.2032582796         277.6447772558                Au (8)
  116   130          10.2032582796         277.6447772558               B1u (5)
  117    84          10.2032582796         277.6447772558               B3u (3)
  118    58          10.2032582796         277.6447772558               B2u (2)
  119    85          11.5632312102         314.6515226551       u       B3u (3)
  120    59          11.5632312102         314.6515226551       u       B2u (2)
  121    86          11.5632312102         314.6515226551       u       B3u (3)
  122   131          11.5632312102         314.6515226551       u       B1u (5)
  123    60          11.5632312102         314.6515226551       u       B2u (2)
  124   186          11.5632312102         314.6515226551       u        Au (8)
  125   132          11.5632312102         314.6515226551       u       B1u (5)
  126   170          12.3166948786         335.1543117305       g       B2g (7)
  127   150          12.3166948786         335.1543117305       g       B3g (6)
  128   104          12.3166948786         335.1543117305       g        Ag (4)
  129    25          12.3166948786         335.1543117305       g       B1g (1)
  130   105          12.3166948786         335.1543117305       g       B1g (4)
  131   171          12.3166948786         335.1543117305       g       B2g (7)
  132   151          12.3166948786         335.1543117305       g       B3g (6)
  133    26          12.3166948786         335.1543117305       g        Ag (1)
  134    27          12.3166948786         335.1543117305       g        Ag (1)
  135   172          13.5227805978         367.9735731539      Hg       B2g (7)
  136   152          13.5227805978         367.9735731539      Hg       B3g (6)
  137   106          13.5227805978         367.9735731539      Hg       B1g (4)
  138    28          13.5227805978         367.9735731539      Hg        Ag (1)
  139    29          13.5227805978         367.9735731539      Hg        Ag (1)
  140    30          19.0116178159         517.3324294209      Ag        Ag (1)
  141    61          21.6889131259         590.1853396988     T1u       B2u (2)
  142   133          21.6889131259         590.1853396988     T1u       B1u (5)
  143    87          21.6889131259         590.1853396989     T1u       B3u (3)
  144   173          22.0613409875         600.3196171864    XXXX      XXXX (7)
  145   153          22.0613409875         600.3196171864    XXXX      XXXX (6)
  146   107          22.0613409875         600.3196171864    XXXX      XXXX (4)
  147   174          22.0613409875         600.3196171864    XXXX      XXXX (7)
  148   154          22.0613409875         600.3196171864    XXXX      XXXX (6)
  149   108          22.0613409875         600.3196171864    XXXX      XXXX (4)
  150   155          22.0613409875         600.3196171864    XXXX      XXXX (6)
  151   175          22.0613409875         600.3196171864    XXXX      XXXX (7)
  152    31          22.0613409875         600.3196171864    XXXX      XXXX (1)
  153    32          22.0613409875         600.3196171864    XXXX      XXXX (1)
  154    33          22.0613409875         600.3196171864    XXXX      XXXX (1)
  155   109          22.0613409875         600.3196171864    XXXX      XXXX (4)
  156    34          22.0613409875         600.3196171864    XXXX      XXXX (1)
  157   134          26.0923924893         710.0101067970               B1u (5)
  158    62          26.0923924893         710.0101067970               B2u (2)
  159    88          26.0923924893         710.0101067970               B3u (3)
  160   135          26.0923924893         710.0101067970               B2u (5)
  161    63          26.0923924893         710.0101067970               B1u (2)
  162   187          26.0923924893         710.0101067970                Au (8)
  163   188          26.0923924893         710.0101067970                Au (8)
  164    89          26.0923924893         710.0101067970               B3u (3)
  165   136          26.0923924893         710.0101067970               B1u (5)
  166    64          26.0923924893         710.0101067970               B2u (2)
  167    90          26.0923924893         710.0101067970               B3u (3)
  168   137          27.7006438065         753.7728506689       u       B1u (5)
  169    91          27.7006438065         753.7728506689       u       B2u (3)
  170    65          27.7006438065         753.7728506689       u       B3u (2)
  171   138          27.7006438065         753.7728506689       u       B1u (5)
  172    66          27.7006438065         753.7728506689       u       B2u (2)
  173    92          27.7006438065         753.7728506689       u       B3u (3)
  174   189          27.7006438065         753.7728506689       u        Au (8)
  175   176          30.7294077515         836.1897088753       g       B2g (7)
  176   110          30.7294077515         836.1897088753       g       B1g (4)
  177   156          30.7294077515         836.1897088753       g       B3g (6)
  178   177          30.7294077515         836.1897088753       g       B2g (7)
  179    35          30.7294077515         836.1897088753       g        Ag (1)
  180   111          30.7294077515         836.1897088753       g       B1g (4)
  181   157          30.7294077515         836.1897088753       g       B3g (6)
  182    36          30.7294077515         836.1897088753       g        Ag (1)
  183    37          30.7294077515         836.1897088753       g        Ag (1)
  184    38          33.7367377586         918.0233199704      Hg        Ag (1)
  185   112          33.7367377586         918.0233199704      Hg       B1g (4)
  186    39          33.7367377586         918.0233199704      Hg        Ag (1)
  187   158          33.7367377586         918.0233199704      Hg       B3g (6)
  188   178          33.7367377586         918.0233199704      Hg       B2g (7)
  189    40          98.7072280966        2685.9602695044      Ag        Ag (1)


 
  ORBITAL EIGENVALUES ( BETA)  (1H = 27.2113838 eV)

       MO #        E(hartree)               E(eV)           FULLSYM    COMPSYM
       ----   --------------------   --------------------   -------   ---------
    1     1         -21.2815201991        -579.0996144031      Ag        Ag (1)
    2     2          -1.5425811343         -41.9757673171      Ag        Ag (1)
  +++++++++++++++++++++++++++++++++++++++++++++++++++++++++++++++++++++++++++++
    3   113          -0.3831733724         -10.4266777071     T1u       B1u (5)
    4    41          -0.3831733724         -10.4266777071     T1u       B2u (2)
    5    67          -0.3831733724         -10.4266777071     T1u       B3u (3)
    6     3          -0.1319917319          -3.5916776767      Ag        Ag (1)
    7    68          -0.0836295572          -2.2756759799     T1u       B3u (3)
    8   114          -0.0836295572          -2.2756759799     T1u       B1u (5)
    9    42          -0.0836295572          -2.2756759799     T1u       B2u (2)
   10    93           0.0954061882           2.5961344048      Hg       B1g (4)
   11     4           0.0954061882           2.5961344048      Hg        Ag (1)
   12   159           0.0954061882           2.5961344048      Hg       B2g (7)
   13   139           0.0954061882           2.5961344048      Hg       B3g (6)
   14     5           0.0954061882           2.5961344048      Hg        Ag (1)
   15    69           0.1329761749           3.6184657354     T1u       B3u (3)
   16   115           0.1329761749           3.6184657354     T1u       B1u (5)
   17    43           0.1329761749           3.6184657354     T1u       B2u (2)
   18     6           0.2844199205           7.7394596227      Ag        Ag (1)
   19   179           0.5044732087          13.7274141096       u        Au (8)
   20    70           0.5044732087          13.7274141096       u       B3u (3)
   21    71           0.5044732087          13.7274141096       u       B3u (3)
   22    44           0.5044732087          13.7274141096       u       B2u (2)
   23    45           0.5044732087          13.7274141096       u       B2u (2)
   24   116           0.5044732087          13.7274141096       u       B1u (5)
   25   117           0.5044732087          13.7274141096       u       B1u (5)
   26    94           0.7258499519          19.7513816353      Hg       B1g (4)
   27   160           0.7258499519          19.7513816353      Hg       B2g (7)
   28     7           0.7258499519          19.7513816353      Hg        Ag (1)
   29     8           0.7258499519          19.7513816353      Hg        Ag (1)
   30   140           0.7258499519          19.7513816353      Hg       B3g (6)
   31    72           0.8151119832          22.1803250306     T1u       B3u (3)
   32    46           0.8151119832          22.1803250306     T1u       B2u (2)
   33   118           0.8151119832          22.1803250306     T1u       B1u (5)
   34     9           1.6714241237          45.4817633543      Ag        Ag (1)
   35   161           1.6719723346          45.4966809335       g       B2g (7)
   36    95           1.6719723346          45.4966809335       g       B1g (4)
   37    10           1.6719723346          45.4966809335       g        Ag (1)
   38    11           1.6719723346          45.4966809335       g        Ag (1)
   39    12           1.6719723346          45.4966809335       g        Ag (1)
   40    96           1.6719723346          45.4966809335       g       B1g (4)
   41   141           1.6719723346          45.4966809335       g       B3g (6)
   42   162           1.6719723346          45.4966809335       g       B2g (7)
   43   142           1.6719723346          45.4966809335       g       B3g (6)
   44   119           1.8736388057          50.9843046816       u       B1u (5)
   45    73           1.8736388057          50.9843046816       u       B3u (3)
   46    47           1.8736388057          50.9843046816       u       B2u (2)
   47    48           1.8736388057          50.9843046816       u       B2u (2)
   48   180           1.8736388057          50.9843046816       u        Au (8)
   49    74           1.8736388057          50.9843046816       u       B3u (3)
   50   120           1.8736388057          50.9843046816       u       B1u (5)
   51   163           2.1941563318          59.7060301049      Hg       B2g (7)
   52   143           2.1941563318          59.7060301049      Hg       B3g (6)
   53    13           2.1941563318          59.7060301049      Hg        Ag (1)
   54    97           2.1941563318          59.7060301049      Hg       B1g (4)
   55    14           2.1941563318          59.7060301049      Hg        Ag (1)
   56    75           2.6118207654          71.0712573141     T1u       B3u (3)
   57   121           2.6118207654          71.0712573141     T1u       B1u (5)
   58    49           2.6118207654          71.0712573141     T1u       B2u (2)
   59   181           3.9820354839         108.3566959355                Au (8)
   60   122           3.9820354839         108.3566959355               B1u (5)
   61    76           3.9820354839         108.3566959355               B3u (3)
   62   123           3.9820354839         108.3566959355               B1u (5)
   63    50           3.9820354839         108.3566959355               B2u (2)
   64   182           3.9820354839         108.3566959355                Au (8)
   65    77           3.9820354839         108.3566959355               B3u (3)
   66   124           3.9820354839         108.3566959355               B2u (5)
   67    51           3.9820354839         108.3566959355               B1u (2)
   68    78           3.9820354839         108.3566959355               B3u (3)
   69    52           3.9820354839         108.3566959355               B2u (2)
   70    79           4.8980092683         133.2816101510       u       B3u (3)
   71   125           4.8980092683         133.2816101510       u       B1u (5)
   72    80           4.8980092683         133.2816101510       u       B3u (3)
   73   183           4.8980092683         133.2816101510       u        Au (8)
   74    53           4.8980092683         133.2816101510       u       B2u (2)
   75   126           4.8980092683         133.2816101510       u       B1u (5)
   76    54           4.8980092683         133.2816101510       u       B2u (2)
   77    98           4.9323398691         134.2157933074       g       B1g (4)
   78    99           4.9323398691         134.2157933074       g       B1g (4)
   79   164           4.9323398691         134.2157933074       g       B2g (7)
   80    15           4.9323398691         134.2157933074       g        Ag (1)
   81   165           4.9323398691         134.2157933074       g       B2g (7)
   82    16           4.9323398691         134.2157933074       g        Ag (1)
   83   144           4.9323398691         134.2157933074       g       B3g (6)
   84   145           4.9323398691         134.2157933074       g       B3g (6)
   85    17           4.9323398691         134.2157933074       g        Ag (1)
   86   166           5.5539738334         151.1313137055      Hg       B2g (7)
   87    18           5.5539738334         151.1313137055      Hg        Ag (1)
   88   146           5.5539738334         151.1313137055      Hg       B3g (6)
   89    19           5.5539738334         151.1313137055      Hg        Ag (1)
   90   100           5.5539738334         151.1313137055      Hg       B1g (4)
   91    20           5.8037921522         157.9292158619      Ag        Ag (1)
   92    81           7.1614600771         194.8732388675     T1u       B3u (3)
   93   127           7.1614600771         194.8732388675     T1u       B1u (5)
   94    55           7.1614600771         194.8732388675     T1u       B2u (2)
   95    21           8.8438427845         240.6532004486    XXXX      XXXX (1)
   96    22           8.8438427845         240.6532004486    XXXX      XXXX (1)
   97    23           8.8438427845         240.6532004486    XXXX      XXXX (1)
   98   101           8.8438427845         240.6532004486    XXXX      XXXX (4)
   99   167           8.8438427845         240.6532004486    XXXX      XXXX (7)
  100   102           8.8438427845         240.6532004486    XXXX      XXXX (4)
  101   147           8.8438427845         240.6532004486    XXXX      XXXX (6)
  102   148           8.8438427845         240.6532004486    XXXX      XXXX (6)
  103   168           8.8438427845         240.6532004486    XXXX      XXXX (7)
  104    24           8.8438427845         240.6532004486    XXXX      XXXX (1)
  105   103           8.8438427845         240.6532004486    XXXX      XXXX (4)
  106   149           8.8438427845         240.6532004486    XXXX      XXXX (6)
  107   169           8.8438427845         240.6532004486    XXXX      XXXX (7)
  108   128          10.2392172277         278.6232699961               B1u (5)
  109    56          10.2392172277         278.6232699961               B2u (2)
  110    82          10.2392172277         278.6232699961               B3u (3)
  111   129          10.2392172277         278.6232699961               B1u (5)
  112    57          10.2392172277         278.6232699961               B2u (2)
  113    83          10.2392172277         278.6232699961               B3u (3)
  114   184          10.2392172277         278.6232699961                Au (8)
  115   185          10.2392172277         278.6232699961                Au (8)
  116   130          10.2392172277         278.6232699961               B1u (5)
  117    58          10.2392172277         278.6232699961               B2u (2)
  118    84          10.2392172277         278.6232699961               B3u (3)
  119    85          11.6683617750         317.5122708058       u       B3u (3)
  120    59          11.6683617750         317.5122708058       u       B2u (2)
  121   131          11.6683617750         317.5122708058       u       B1u (5)
  122    60          11.6683617750         317.5122708058       u       B2u (2)
  123    86          11.6683617750         317.5122708058       u       B3u (3)
  124   186          11.6683617750         317.5122708058       u        Au (8)
  125   132          11.6683617750         317.5122708058       u       B1u (5)
  126   104          12.3870148576         337.0678156692       g       B1g (4)
  127   150          12.3870148576         337.0678156692       g       B3g (6)
  128   170          12.3870148576         337.0678156692       g       B2g (7)
  129   171          12.3870148576         337.0678156692       g       B2g (7)
  130   151          12.3870148576         337.0678156692       g       B3g (6)
  131   105          12.3870148576         337.0678156692       g       B1g (4)
  132    25          12.3870148576         337.0678156692       g        Ag (1)
  133    26          12.3870148576         337.0678156692       g        Ag (1)
  134    27          12.3870148576         337.0678156692       g        Ag (1)
  135   172          13.6559247318         371.5966092893      Hg       B2g (7)
  136    28          13.6559247318         371.5966092893      Hg        Ag (1)
  137   106          13.6559247318         371.5966092893      Hg       B1g (4)
  138   152          13.6559247318         371.5966092893      Hg       B3g (6)
  139    29          13.6559247318         371.5966092893      Hg        Ag (1)
  140    30          19.1023401456         519.8011095552      Ag        Ag (1)
  141    61          21.7805622914         592.6792403164     T1u       B2u (2)
  142   133          21.7805622914         592.6792403164     T1u       B1u (5)
  143    87          21.7805622914         592.6792403164     T1u       B3u (3)
  144   107          22.1009204711         601.3966297056    XXXX      XXXX (4)
  145   173          22.1009204711         601.3966297056    XXXX      XXXX (7)
  146   153          22.1009204711         601.3966297056    XXXX      XXXX (6)
  147   174          22.1009204711         601.3966297056    XXXX      XXXX (7)
  148   154          22.1009204711         601.3966297056    XXXX      XXXX (6)
  149   108          22.1009204711         601.3966297056    XXXX      XXXX (4)
  150   175          22.1009204711         601.3966297056    XXXX      XXXX (7)
  151   155          22.1009204711         601.3966297056    XXXX      XXXX (6)
  152    31          22.1009204711         601.3966297056    XXXX      XXXX (1)
  153    32          22.1009204711         601.3966297056    XXXX      XXXX (1)
  154    33          22.1009204711         601.3966297056    XXXX      XXXX (1)
  155   109          22.1009204711         601.3966297056    XXXX      XXXX (4)
  156    34          22.1009204711         601.3966297056    XXXX      XXXX (1)
  157   134          26.1525016171         711.6457593462               B1u (5)
  158   187          26.1525016171         711.6457593462                Au (8)
  159    62          26.1525016171         711.6457593462               B2u (2)
  160    63          26.1525016171         711.6457593462               B2u (2)
  161    88          26.1525016171         711.6457593462               B3u (3)
  162   135          26.1525016171         711.6457593462               B1u (5)
  163    64          26.1525016171         711.6457593462               B2u (2)
  164   136          26.1525016171         711.6457593462               B3u (5)
  165    89          26.1525016171         711.6457593462               B1u (3)
  166   188          26.1525016171         711.6457593462                Au (8)
  167    90          26.1525016171         711.6457593462               B3u (3)
  168   137          27.7925447946         756.2736037274       u       B1u (5)
  169   138          27.7925447946         756.2736037274       u       B3u (5)
  170    91          27.7925447946         756.2736037274       u       B1u (3)
  171    65          27.7925447946         756.2736037274       u       B2u (2)
  172    66          27.7925447946         756.2736037274       u       B2u (2)
  173   189          27.7925447946         756.2736037274       u        Au (8)
  174    92          27.7925447946         756.2736037274       u       B3u (3)
  175   156          30.8056462252         838.2642632432       g       B3g (6)
  176   176          30.8056462252         838.2642632432       g       B2g (7)
  177   110          30.8056462252         838.2642632432       g       B1g (4)
  178   111          30.8056462252         838.2642632432       g       B1g (4)
  179   157          30.8056462252         838.2642632432       g       B3g (6)
  180    35          30.8056462252         838.2642632432       g        Ag (1)
  181   177          30.8056462252         838.2642632432       g       B2g (7)
  182    36          30.8056462252         838.2642632432       g        Ag (1)
  183    37          30.8056462252         838.2642632432       g        Ag (1)
  184    38          33.8210278309         920.3169694788      Hg        Ag (1)
  185    39          33.8210278309         920.3169694788      Hg        Ag (1)
  186   112          33.8210278309         920.3169694788      Hg       B1g (4)
  187   158          33.8210278309         920.3169694788      Hg       B3g (6)
  188   178          33.8210278309         920.3169694788      Hg       B2g (7)
  189    40          98.7387389787        2686.8177242101      Ag        Ag (1)


  VSCF finished.

  @CHECKOUT-I, Total execution time (CPU/WALL):        2.48/       2.52 seconds.
--executable xvscf finished with status     0 in        2.71 seconds (walltime).
 --invoking executable--
/home/nike/cfour_v2.00beta/bin/xvtran
 @GETMEM-I,  Allocated   30517 MB of main memory.
  Full UHF integral transformation
  The following   1 alpha MOs will be dropped.
    1
  There are 188 active alpha molecular orbitals.
  The following   1 beta MOs will be dropped.
    1
  There are 188 active beta molecular orbitals.
  Transformation of IIII integrals :
  2 passes through the AO integral file were required.
      480996 AO integrals were read.
      558594 MO integrals (Spin case AAAA) were written to HF2AA.
      558594 MO integrals (Spin case BBBB) were written to HF2BB.
     1114659 MO integrals (Spin case AABB) were written to HF2AB.
  Transformation of IIJJ integrals :
  2 passes through the AO integral file were required.
     2363771 AO integrals were read.
     2640590 MO integrals (Spin case AAAA) were written to HF2AA.
     2640590 MO integrals (Spin case BBBB) were written to HF2BB.
     5281180 MO integrals (Spin case AABB) were written to HF2AB.
  Transformation of IJIJ integrals :
  2 passes through the AO integral file were required.
     4113870 AO integrals were read.
     4892091 MO integrals (Spin case AAAA) were written to HF2AA.
     4892091 MO integrals (Spin case BBBB) were written to HF2BB.
     9768945 MO integrals (Spin case AABB) were written to HF2AB.
  Transformation of IJKL integrals :
  2 passes through the AO integral file were required.
    10113407 AO integrals were read.
    11732448 MO integrals (Spin case AAAA) were written to HF2AA.
    11732448 MO integrals (Spin case BBBB) were written to HF2BB.
    23464896 MO integrals (Spin case AABB) were written to HF2AB.
  Summary of active molecular orbitals: 
------------------------------------------------------------------------
                         * Spin case alpha *
 
  Index      Eigenvalue    Symmetry    Index      Eigenvalue    Symmetry
------------------------------------------------------------------------
     1        -2.0585097        1        95         1.6654766        4
     2        -1.3269140        2        96         1.6654766        4
     3        -1.3269140        3        97         2.0587225        4
     4        -1.3269140        5        98         4.8974026        4
     5        -0.1449285        1        99         4.8974026        4
     6         0.0869518        1       100         5.3937496        4
     7         0.0869518        1       101         8.8261629        4
     8         0.2485826        1       102         8.8261629        4
     9         0.6660345        1       103         8.8261629        4
    10         0.6660345        1       104        12.3166949        4
    11         1.5873941        1       105        12.3166949        4
    12         1.6654766        1       106        13.5227806        4
    13         1.6654766        1       107        22.0613410        4
    14         1.6654766        1       108        22.0613410        4
    15         2.0587225        1       109        22.0613410        4
    16         2.0587225        1       110        30.7294078        4
    17         4.8974026        1       111        30.7294078        4
    18         4.8974026        1       112        33.7367378        4
    19         4.8974026        1       113        -0.0991681        5
    20         5.3937496        1       114         0.0877620        5
    21         5.3937496        1       115         0.5010615        5
    22         5.6897150        1       116         0.5010615        5
    23         8.8261629        1       117         0.7156386        5
    24         8.8261629        1       118         1.8438677        5
    25         8.8261629        1       119         1.8438677        5
    26         8.8261629        1       120         2.4776488        5
    27        12.3166949        1       121         3.9713006        5
    28        12.3166949        1       122         3.9713006        5
    29        12.3166949        1       123         3.9713006        5
    30        13.5227806        1       124         4.8196139        5
    31        13.5227806        1       125         4.8196139        5
    32        19.0116178        1       126         7.0280647        5
    33        22.0613410        1       127        10.2032583        5
    34        22.0613410        1       128        10.2032583        5
    35        22.0613410        1       129        10.2032583        5
    36        22.0613410        1       130        11.5632312        5
    37        30.7294078        1       131        11.5632312        5
    38        30.7294078        1       132        21.6889131        5
    39        30.7294078        1       133        26.0923925        5
    40        33.7367378        1       134        26.0923925        5
    41        33.7367378        1       135        26.0923925        5
    42        98.7072281        1       136        27.7006438        5
    43        -0.0991681        2       137        27.7006438        5
    44         0.0877620        2       138         0.0869518        6
    45         0.5010615        2       139         0.6660345        6
    46         0.5010615        2       140         1.6654766        6
    47         0.7156386        2       141         1.6654766        6
    48         1.8438677        2       142         2.0587225        6
    49         1.8438677        2       143         4.8974026        6
    50         2.4776488        2       144         4.8974026        6
    51         3.9713006        2       145         5.3937496        6
    52         3.9713006        2       146         8.8261629        6
    53         3.9713006        2       147         8.8261629        6
    54         4.8196139        2       148         8.8261629        6
    55         4.8196139        2       149        12.3166949        6
    56         7.0280647        2       150        12.3166949        6
    57        10.2032583        2       151        13.5227806        6
    58        10.2032583        2       152        22.0613410        6
    59        10.2032583        2       153        22.0613410        6
    60        11.5632312        2       154        22.0613410        6
    61        11.5632312        2       155        30.7294078        6
    62        21.6889131        2       156        30.7294078        6
    63        26.0923925        2       157        33.7367378        6
    64        26.0923925        2       158         0.0869518        7
    65        26.0923925        2       159         0.6660345        7
    66        27.7006438        2       160         1.6654766        7
    67        27.7006438        2       161         1.6654766        7
    68        -0.0991681        3       162         2.0587225        7
    69         0.0877620        3       163         4.8974026        7
    70         0.5010615        3       164         4.8974026        7
    71         0.5010615        3       165         5.3937496        7
    72         0.7156386        3       166         8.8261629        7
    73         1.8438677        3       167         8.8261629        7
    74         1.8438677        3       168         8.8261629        7
    75         2.4776488        3       169        12.3166949        7
    76         3.9713006        3       170        12.3166949        7
    77         3.9713006        3       171        13.5227806        7
    78         3.9713006        3       172        22.0613410        7
    79         4.8196139        3       173        22.0613410        7
    80         4.8196139        3       174        22.0613410        7
    81         7.0280647        3       175        30.7294078        7
    82        10.2032583        3       176        30.7294078        7
    83        10.2032583        3       177        33.7367378        7
    84        10.2032583        3       178         0.5010615        8
    85        11.5632312        3       179         1.8438677        8
    86        11.5632312        3       180         3.9713006        8
    87        21.6889131        3       181         3.9713006        8
    88        26.0923925        3       182         4.8196139        8
    89        26.0923925        3       183        10.2032583        8
    90        26.0923925        3       184        10.2032583        8
    91        27.7006438        3       185        11.5632312        8
    92        27.7006438        3       186        26.0923925        8
    93         0.0869518        4       187        26.0923925        8
    94         0.6660345        4       188        27.7006438        8
------------------------------------------------------------------------
------------------------------------------------------------------------
                         * Spin case beta *
 
  Index      Eigenvalue    Symmetry    Index      Eigenvalue    Symmetry
------------------------------------------------------------------------
     1        -1.5425811        1        95         1.6719723        4
     2        -0.1319917        1        96         2.1941563        4
     3         0.0954062        1        97         4.9323399        4
     4         0.0954062        1        98         4.9323399        4
     5         0.2844199        1        99         5.5539738        4
     6         0.7258500        1       100         8.8438428        4
     7         0.7258500        1       101         8.8438428        4
     8         1.6714241        1       102         8.8438428        4
     9         1.6719723        1       103        12.3870149        4
    10         1.6719723        1       104        12.3870149        4
    11         1.6719723        1       105        13.6559247        4
    12         2.1941563        1       106        22.1009205        4
    13         2.1941563        1       107        22.1009205        4
    14         4.9323399        1       108        22.1009205        4
    15         4.9323399        1       109        30.8056462        4
    16         4.9323399        1       110        30.8056462        4
    17         5.5539738        1       111        33.8210278        4
    18         5.5539738        1       112        -0.3831734        5
    19         5.8037922        1       113        -0.0836296        5
    20         8.8438428        1       114         0.1329762        5
    21         8.8438428        1       115         0.5044732        5
    22         8.8438428        1       116         0.5044732        5
    23         8.8438428        1       117         0.8151120        5
    24        12.3870149        1       118         1.8736388        5
    25        12.3870149        1       119         1.8736388        5
    26        12.3870149        1       120         2.6118208        5
    27        13.6559247        1       121         3.9820355        5
    28        13.6559247        1       122         3.9820355        5
    29        19.1023401        1       123         3.9820355        5
    30        22.1009205        1       124         4.8980093        5
    31        22.1009205        1       125         4.8980093        5
    32        22.1009205        1       126         7.1614601        5
    33        22.1009205        1       127        10.2392172        5
    34        30.8056462        1       128        10.2392172        5
    35        30.8056462        1       129        10.2392172        5
    36        30.8056462        1       130        11.6683618        5
    37        33.8210278        1       131        11.6683618        5
    38        33.8210278        1       132        21.7805623        5
    39        98.7387390        1       133        26.1525016        5
    40        -0.3831734        2       134        26.1525016        5
    41        -0.0836296        2       135        26.1525016        5
    42         0.1329762        2       136        27.7925448        5
    43         0.5044732        2       137        27.7925448        5
    44         0.5044732        2       138         0.0954062        6
    45         0.8151120        2       139         0.7258500        6
    46         1.8736388        2       140         1.6719723        6
    47         1.8736388        2       141         1.6719723        6
    48         2.6118208        2       142         2.1941563        6
[...]
 CPU time [min]:  1764.785                   Wall time [min]:   168.034
 
 Iteration  5  CC energy:   -74.50389374  Energy decrease:   0.00000064
 ======================================================================
 Norm of residual vector:     0.00000871
 CPU time [min]:  2090.711                   Wall time [min]:   197.790
 
 Iteration  6  CC energy:   -74.50389395  Energy decrease:   0.00000021
 ======================================================================
 Norm of residual vector:     0.00000255
 CPU time [min]:  2418.505                   Wall time [min]:   227.656
 
 Iteration  7  CC energy:   -74.50389398  Energy decrease:   0.00000003
 ======================================================================
 Norm of residual vector:     0.00000087
 CPU time [min]:  2748.569                   Wall time [min]:   257.897
 
 Iteration  8  CC energy:   -74.50389398  Energy decrease:   2.3390E-09
 ======================================================================
 Norm of residual vector:     0.00000029
 CPU time [min]:  3081.748                   Wall time [min]:   288.137
 
 Iteration  9  CC energy:   -74.50389398  Energy decrease:   2.1619E-09
 ======================================================================
 Norm of residual vector:     0.00000010
 CPU time [min]:  3403.021                   Wall time [min]:   317.488
 
 Iteration 10  CC energy:   -74.50389398  Energy decrease:   5.2560E-10
 ======================================================================
 
 Iteration has converged in 10 steps.
 
 Final results:
 Total CCSDTQ energy [au]:           -74.503893978004
 
 Perturbative corrections are calculated...
 ======================================================================
 Spin case  1   Alpha:  4   Beta:  1
 Number of excitations:        33947140
 CPU time [min]:  4281.640                   Wall time [min]:   383.252
 ======================================================================
 Spin case  2   Alpha:  4   Beta:  1
 Number of excitations:        137217335
 CPU time [min]:  8060.760                   Wall time [min]:   675.676
 ======================================================================
 Spin case  3   Alpha:  4   Beta:  1
 Number of excitations:        34306676
 CPU time [min]:  8899.868                   Wall time [min]:   736.422
 ======================================================================
 Spin case  4   Alpha:  4   Beta:  1
 Number of excitations:        203641071
 CPU time [min]: 14271.901                   Wall time [min]:  1110.892
 ======================================================================
 Spin case  5   Alpha:  4   Beta:  1
 Number of excitations:        138722520
 CPU time [min]: 17586.096                   Wall time [min]:  1342.467
 ======================================================================
 Spin case  6   Alpha:  4   Beta:  1
 Number of excitations:        131391006
 CPU time [min]: 20565.721                   Wall time [min]:  1556.969
 ======================================================================
 Spin case  7   Alpha:  4   Beta:  1
 Number of excitations:        205838736
 CPU time [min]: 25446.341                   Wall time [min]:  1907.933
 ======================================================================
 Spin case  8   Alpha:  4   Beta:  1
 Number of excitations:        31078214
 CPU time [min]: 26100.244                   Wall time [min]:  1954.235
 ======================================================================
 Spin case  9   Alpha:  4   Beta:  1
 Number of excitations:        132776616
 CPU time [min]: 29085.766                   Wall time [min]:  2167.437
 ======================================================================
 Spin case 10   Alpha:  4   Beta:  1
 Number of excitations:        31409524
 CPU time [min]: 29738.965                   Wall time [min]:  2213.310
 ======================================================================
 Number of 5-fold excitations: 1080328838
 
 T_3^+ contribution:               0.000000009954
 T_1^+ * T_2^+ contribution:      -0.000000002464
 T_1^+ * <ab||ij> contribution:   -0.000000001475
 T_2^+ * f_ai contribution:       -0.000000000290
 T_2^+ contribution:               0.000000042415
 
 CPU time [min]: 29742.766                   Wall time [min]:  2213.748
 
 Total CCSDTQ[P] energy [au]:        -74.503893928099
 Total CCSDTQ(P)/A energy [au]:      -74.503893928099
 Total CCSDTQ(P)/B energy [au]:      -74.503893927400
 
 Dominant cluster amplitudes
 Printing threshold:  1.00E-02
 
    1.000000  Reference determinant                                     
   -0.017819  1b -> 5b                                                  
    0.021281  1b -> 17b                                                 
   -0.012321  1b -> 33b                                                 
    0.014197  1a -> 5a                                                  
   -0.018189  1a -> 17a                                                 
    0.013965  1a -> 33a                                                 
    0.010825  3a 1b -> 17a 3b                                           
    0.024565  3a 1b -> 29a 3b                                           
   -0.021825  3a 1b -> 53a 3b                                           
   -0.012092  3a 1b -> 54a 3b                                           
    0.010397  3a 1b -> 88a 3b                                           
    0.010206  3a 1b -> 10a 2b                                           
   -0.022307  3a 1b -> 26a 2b                                           
    0.021608  3a 1b -> 51a 2b                                           
   -0.010094  3a 1b -> 86a 2b                                           
   -0.010947  2a 1b -> 13a 2b                                           
    0.010825  2a 1b -> 17a 2b                                           
    0.025148  2a 1b -> 28a 2b                                           
    0.021384  2a 1b -> 53a 2b                                           
   -0.012855  2a 1b -> 54a 2b                                           
    0.010206  2a 1b -> 10a 3b                                           
   -0.022307  2a 1b -> 26a 3b                                           
    0.021608  2a 1b -> 51a 3b                                           
   -0.010094  2a 1b -> 86a 3b                                           
    0.010206  4a 1b -> 9a 3b                                            
   -0.022307  4a 1b -> 27a 3b                                           
    0.021608  4a 1b -> 52a 3b                                           
   -0.010094  4a 1b -> 87a 3b                                           
    0.010206  4a 1b -> 11a 2b                                           
   -0.022307  4a 1b -> 25a 2b                                           
    0.021608  4a 1b -> 50a 2b                                           
   -0.010094  4a 1b -> 85a 2b                                           
    0.010659  3a 1b -> 30a 17b                                          
   -0.010879  3a 1b -> 30a 33b                                          
    0.010206  3a 1b -> 9a 4b                                            
   -0.022307  3a 1b -> 27a 4b                                           
    0.021608  3a 1b -> 52a 4b                                           
   -0.010094  3a 1b -> 87a 4b                                           
    0.010659  2a 1b -> 31a 17b                                          
   -0.010879  2a 1b -> 31a 33b                                          
    0.010206  2a 1b -> 11a 4b                                           
   -0.022307  2a 1b -> 25a 4b                                           
    0.021608  2a 1b -> 50a 4b                                           
   -0.010094  2a 1b -> 85a 4b                                           
    0.011662  4a 1b -> 12a 4b                                           
    0.010825  4a 1b -> 17a 4b                                           
   -0.017400  4a 1b -> 28a 4b                                           
   -0.018992  4a 1b -> 29a 4b                                           
    0.024947  4a 1b -> 54a 4b                                           
   -0.011638  4a 1b -> 89a 4b                                           
    0.010659  4a 1b -> 32a 17b                                          
   -0.010879  4a 1b -> 32a 33b                                          
    0.011523  2a 3a -> 30a 31a                                          
    0.010598  2a 3a -> 51a 53a                                          
   -0.011523  3a 4a -> 30a 32a                                          
   -0.011523  2a 4a -> 31a 32a                                          

 ************************ 2018-12-23 08:43:53 *************************
 Executing goldstone...

 Generation of MRCC equations in terms of H and T...
 Generation of antisymmetrized Goldstone diagrams...
 Number of diagrams in T^1 equations:    15
 Number of diagrams in T^2 equations:    38
 Number of diagrams in T^3 equations:    54
 Number of diagrams in T^4 equations:    80
 Number of diagrams in T^5 equations:    99
 Translation of diagrams to factorized equations...
 Number of restricted diagrams in T^1 equations:     30
 Number of restricted diagrams in T^2 equations:    129
 Number of restricted diagrams in T^3 equations:    306
 Number of restricted diagrams in T^4 equations:    669
 Number of restricted diagrams in T^5 equations:   1238
 Optimizing intermediate calculation...
 Number of floating-point operations per iteration step:   2.8367E+14
 Probable CPU time per iteration step (hours):   2836.66
 Required memory (Mbytes):  154071.2
 Number of intermediates:                                 718
 Number of intermediates to be stored:                    245
 Length of intermediate file (Mbytes):   49849.1

 ************************ 2018-12-23 08:43:53 *************************
 Executing xmrcc...

 **********************************************************************
 MRCC(                     5 ) calculation 
 
 
 Allocation of****** Mbytes of memory...
 Number of spinorbitals:                   376
 Number of alpha electrons:                        4
 Number of beta electrons:                         1
 Number of active particles:                   186
 Number of active holes:                         0
 Spin multiplicity:                     2
 z-component of spin:  1.5
 Spatial symmetry:                      8
 Convergence criterion:  1.0E-07
 Construction of occupation graphs...
 Number of                     0 -fold excitations:                      1
 Number of                     1 -fold excitations:                    151
 Number of                     2 -fold excitations:                  30659
 Number of                     3 -fold excitations:                2870031
 Number of                     4 -fold excitations:              101213285
 Number of                     5 -fold excitations:             1080328838
 Total number of configurations:             1184442965
 Calculation of coupling coefficients...
 Length of intermediate file (Mbytes):   37201.7
 
 ======================================================================
 
 Memory requirements /Mbyte/: 
               Minimal        Optimal
 Real*8:      92167.1439     94608.3202
 Integer:     17453.3738
 Total:      109620.5177    112061.6939
 

 ************************ 2018-12-23 08:56:16 *************************
 Executing mrcc...

 **********************************************************************
 CCSDTQP calculation                                                    
 
 
 OpenMP parallel version is running.
 Number of CPUs:  15
 Allocation of94608.3 Mbytes of memory...
 Number of spinorbitals: 376
 Number of alpha electrons:  4
 Number of beta  electrons:  1
 Number of active particles:                   186
 Number of active holes:                         0
 Spin multiplicity: 2
 z-component of spin:  1.5
 Spatial symmetry: 8
 Convergence criterion:  1.0E-07
 Construction of occupation graphs...
 Number of 0-fold excitations: 1
 Number of 1-fold excitations: 151
 Number of 2-fold excitations: 30659
 Number of 3-fold excitations: 2870031
 Number of 4-fold excitations: 101213285
 Number of 5-fold excitations: 1080328838
 Total number of determinants: 1184442965
 Calculation of coupling coefficients...
 Initial cluster amplitudes are read from unit 16.
 Length of intermediate file (Mbytes):   37201.7
 Reading integral list from unit 55...
 Sorting integrals...
 Sorting integrals...
 Sorting integrals...
 Sorting integrals...
 Energy of reference determinant [au]:     -74.372586003296
 Calculation of MP denominators...
 
 Starting CC iteration...
 ======================================================================
 Norm of residual vector:     0.00173093
 CPU time [min]:  4679.407                   Wall time [min]:   451.867
 
 Iteration  1  CC energy:   -74.50389398  Energy decrease:   8.2437E-11
 ======================================================================
 Norm of residual vector:     0.00025002
 CPU time [min]:  9405.535                   Wall time [min]:   901.852
 
 Iteration  2  CC energy:   -74.50389398  Energy decrease:   2.7427E-12
 ======================================================================
 Norm of residual vector:     0.00005538
 CPU time [min]: 14140.878                   Wall time [min]:  1348.462
 
 Iteration  3  CC energy:   -74.50389389  Energy decrease:   0.00000009
 ======================================================================
 Norm of residual vector:     0.00001067
 CPU time [min]: 18895.917                   Wall time [min]:  1797.578
 
 Iteration  4  CC energy:   -74.50389399  Energy decrease:   0.00000010
 ======================================================================
 Norm of residual vector:     0.00000231
 CPU time [min]: 23613.667                   Wall time [min]:  2246.937
 
 Iteration  5  CC energy:   -74.50389403  Energy decrease:   0.00000004
 ======================================================================
 Norm of residual vector:     0.00000057
 CPU time [min]: 28345.741                   Wall time [min]:  2699.335
 
 Iteration  6  CC energy:   -74.50389404  Energy decrease:   0.00000001
 ======================================================================
 Norm of residual vector:     0.00000014
 CPU time [min]: 33081.092                   Wall time [min]:  3150.403
 
 Iteration  7  CC energy:   -74.50389404  Energy decrease:   1.4738E-09
 ======================================================================
 Norm of residual vector:     0.00000004
 CPU time [min]: 37694.785                   Wall time [min]:  3591.305
 
 Iteration  8  CC energy:   -74.50389404  Energy decrease:   1.3053E-10
 ======================================================================
 
 Iteration has converged in  8 steps.
 
 Final results:
 Total CCSDTQP energy [au]:          -74.503894043202
 
 Dominant cluster amplitudes
 Printing threshold:  1.00E-02
 
    1.000000  Reference determinant                                     
   -0.017819  1b -> 5b                                                  
    0.021281  1b -> 17b                                                 
   -0.012321  1b -> 33b                                                 
    0.014197  1a -> 5a                                                  
   -0.018189  1a -> 17a                                                 
    0.013965  1a -> 33a                                                 
    0.010825  3a 1b -> 17a 3b                                           
    0.024565  3a 1b -> 29a 3b                                           
   -0.021825  3a 1b -> 53a 3b                                           
   -0.012092  3a 1b -> 54a 3b                                           
    0.010397  3a 1b -> 88a 3b                                           
    0.010206  3a 1b -> 10a 2b                                           
   -0.022307  3a 1b -> 26a 2b                                           
    0.021608  3a 1b -> 51a 2b                                           
   -0.010094  3a 1b -> 86a 2b                                           
   -0.010947  2a 1b -> 13a 2b                                           
    0.010825  2a 1b -> 17a 2b                                           
    0.025148  2a 1b -> 28a 2b                                           
    0.021384  2a 1b -> 53a 2b                                           
   -0.012855  2a 1b -> 54a 2b                                           
    0.010206  2a 1b -> 10a 3b                                           
   -0.022307  2a 1b -> 26a 3b                                           
    0.021608  2a 1b -> 51a 3b                                           
   -0.010094  2a 1b -> 86a 3b                                           
    0.010206  4a 1b -> 9a 3b                                            
   -0.022307  4a 1b -> 27a 3b                                           
    0.021608  4a 1b -> 52a 3b                                           
   -0.010094  4a 1b -> 87a 3b                                           
    0.010206  4a 1b -> 11a 2b                                           
   -0.022307  4a 1b -> 25a 2b                                           
    0.021608  4a 1b -> 50a 2b                                           
   -0.010094  4a 1b -> 85a 2b                                           
    0.010659  3a 1b -> 30a 17b                                          
   -0.010879  3a 1b -> 30a 33b                                          
    0.010206  3a 1b -> 9a 4b                                            
   -0.022307  3a 1b -> 27a 4b                                           
    0.021608  3a 1b -> 52a 4b                                           
   -0.010094  3a 1b -> 87a 4b                                           
    0.010659  2a 1b -> 31a 17b                                          
   -0.010879  2a 1b -> 31a 33b                                          
    0.010206  2a 1b -> 11a 4b                                           
   -0.022307  2a 1b -> 25a 4b                                           
    0.021608  2a 1b -> 50a 4b                                           
   -0.010094  2a 1b -> 85a 4b                                           
    0.011662  4a 1b -> 12a 4b                                           
    0.010825  4a 1b -> 17a 4b                                           
   -0.017400  4a 1b -> 28a 4b                                           
   -0.018992  4a 1b -> 29a 4b                                           
    0.024947  4a 1b -> 54a 4b                                           
   -0.011638  4a 1b -> 89a 4b                                           
    0.010659  4a 1b -> 32a 17b                                          
   -0.010879  4a 1b -> 32a 33b                                          
    0.011523  2a 3a -> 30a 31a                                          
    0.010598  2a 3a -> 51a 53a                                          
   -0.011523  3a 4a -> 30a 32a                                          
   -0.011523  2a 4a -> 31a 32a                                          
 
 ************************ 2018-12-25 20:48:59 *************************
                      Normal termination of mrcc.
 **********************************************************************
--executable dmrcc finished with status     0 in   359576.66 seconds (walltime).
  The final electronic energy is       -74.503894043201726 a.u. 
  This computation required                       359819.63 seconds (walltime).
--- SharcNET Job Epilogue ---
Job completed successfully.
               jobid: 1651713
               resid: 3127195
         exit status: 0
      allocated time: 359821
           user time: 4076330
         system time: 50582
peak rss=133371248640; peak vsz=142873042944 (bytes)
atime=359821; utime=4076330; stime=50582; exit=0
