 --invoking executable--
/project1/nike/cfour_v2.00beta_May2019xnmol_noLABBASIS/bin/xjoda


   *************************************************************************
         <<<     CCCCCC     CCCCCC   |||     CCCCCC     CCCCCC   >>>
       <<<      CCC        CCC       |||    CCC        CCC         >>>
      <<<      CCC        CCC        |||   CCC        CCC            >>>
    <<<        CCC        CCC        |||   CCC        CCC              >>>
      <<<      CCC        CCC        |||   CCC        CCC            >>>
       <<<      CCC        CCC       |||    CCC        CCC         >>>
         <<<     CCCCCC     CCCCCC   |||     CCCCCC     CCCCCC   >>>
   *************************************************************************

     ****************************************************************
     * CFOUR Coupled-Cluster techniques for Computational Chemistry *
     ****************************************************************
 

   Department of Chemistry                Institut fuer Physikalische Chemie
   University of Texas at Austin          Universitaet Mainz
   Austin, TX  78712, USA                 D-55099 Mainz, Germany
 
                       Version 2.00beta
 
                     req286                                            
                     Sun Mar  8 19:10:15 EDT 2020                      
                     integer*8 version is running
 
********************************************************************************
*                          Input from ZMAT file                                *
********************************************************************************
TITLE                                                                           
C        0.00000        0.00000        0.00000                                  
C        1.32100        0.00000        0.00000                                  
H       -0.52184        0.94259        0.00000                                  
H        1.95481        0.87397        0.00000                                  
H       -0.56115       -0.92148       -0.00000                                  
F        2.02660       -1.14247        0.00000                                  
                                                                                
*ACES2(CALC=CCSD(T)                                                             
#UNITS=BOHR                                                                     
#GEOM=2.6729874*10/5.29177210903_Pentasilane_def2-QZVP_pbe                      
COORD=CARTESIAN                                                                 
#COORD=INTERNAL                                                                 
PRINT=4                                                                         
JODA_PRINT=4                                                                    
INPUT_MRCC=OFF                                                                  
#CC_PROG=MRCC                                                                   
#FROZEN_CORE=ON                                                                 
DROPMO=1>3                                                                      
CONTRACTION=GENERAL                                                             
#CONTRACTION=SEGMENTED                                                          
RELATIVISTIC=OFF                                                                
#EXCITE=EOMEE                                                                   
#ESTATE_CONV=5                                                                  
#ESTATE_SYM=2/2/2/2/2/2/2/2                                                     
XFORM_TOL=18                                                                    
SAVE_INTS=ON                                                                    
SCF_EXPORDER=6                                                                  
SCF_EXPSTART=5                                                                  
#SCF_DAMPING=1000                                                               
SCF_EXTRAPOLATION=ON                                                            
SCF_CONV=12                                                                     
SCF_MAXCYC=99999                                                                
CC_CONV=9                                                                       
CC_MAXCYC=999                                                                   
T3_EXTRAPOL=ON                                                                  
REFERENCE=ROHF                                                                  
#SYMMETRY=OFF                                                                   
#HFSTABILITY=FOLLOW                                                             
CHARGE=+1                                                                       
MULT=2                                                                          
ABCDTYPE=STANDARD                                                               
#OCCUPATION=3-2-2-0-1-0-0-0/3-1-1-0-1-0-0-0                                     
MEM=4                                                                           
MEM_UNIT=GB                                                                     
BASIS=SPECIAL)                                                                  
                                                                                
C:def2-TZVPP                                                                    
C:def2-TZVPP                                                                    
H:def2-TZVPP                                                                    
H:def2-TZVPP                                                                    
H:def2-TZVPP                                                                    
F:def2-TZVPP                                                                    
                                                                                
********************************************************************************
  @GTFLGS-W, Keyword #UNITS not known and is ignored.
  @GTFLGS-W, Keyword #GEOM not known and is ignored.
  @GTFLGS-W, Keyword #COORD not known and is ignored.
  @GTFLGS-W, Keyword #CC_PROG not known and is ignored.
  @GTFLGS-W, Keyword #FROZEN_CORE not known and is ignored.
  @GTFLGS-W, Keyword #CONTRACTION not known and is ignored.
  @GTFLGS-W, Keyword #EXCITE not known and is ignored.
  @GTFLGS-W, Keyword #ESTATE_CONV not known and is ignored.
  @GTFLGS-W, Keyword #ESTATE_SYM not known and is ignored.
  @GTFLGS-W, Keyword #SCF_DAMPING not known and is ignored.
  @GTFLGS-W, Keyword #SYMMETRY not known and is ignored.
  @GTFLGS-W, Keyword #HFSTABILITY not known and is ignored.
  @GTFLGS-W, Keyword #OCCUPATION not known and is ignored.
    -------------------------------------------------------------------
                    CFOUR Control Parameters 
    -------------------------------------------------------------------
        External           Internal           Value            Units
          Name               Name
    -------------------------------------------------------------------
       ABCDTYPE             IABCDT         STANDARD     [  0]   ***   
       ANHARMONIC           IANHAR         OFF          [  0]   ***   
       ANH_ALGORIT          IANALG         STANDARD     [  0]   ***   
       ANH_DERIVAT          IANDER         SECOND       [  1]   ***   
       ANH_STEPSIZ          ICUBST             50000          x 10-6  
       ANH_SYMMETR          IANHSM         ABELIAN      [  0]   ***   
       AO_LADDERS           IAOLAD         SINGLEPASS   [  1]   ***   
       BASIS                IBASIS         SPECIAL      [  0]   ***   
       BREIT                IBREIT         OFF          [  0]   ***   
       BRUCK_CONV           IBRTOL          10D-  4             ***   
       BRUECKNER            IBRKNR             OFF      [  0]   ***   
       BUFFERSIZE           IBUFFS            600               ***   
       CACHE_RECS           ICHREC             10               ***   
       CALCLEVEL            ICLLVL           CCSD(T)    [ 22]   ***   
       CCORBOPT             ICCORB             OFF      [  0] x 0.01  
       CC_CONV              ICCCNV          10D-  9             ***   
       CC_EXPORDER          ICCEOR              5               ***   
       CC_EXTRAPOL          ICCEXT             DIIS     [  1]   ***   
       CC_MAXCYC            ICCCYC            999              cycles 
       CC_PROGRAM           ICCPRO         VCC          [  0]   ***   
       CHARGE               ICHRGE              1               ***   
       CHOLESKY             ICHOLE         OFF          [  0]   ***   
       CIS_CONV             ICISTL              5               ***   
       COMM_SIZE            IPSIZE            ***               ***   
       CONSTANT             ICONST         OLD          [  1]   ***   
       CONTINUUM            ICONTU         NONE         [  0]   ***   
       CONTRACTION          ICNTYP          GENERAL     [  1]   ***   
       COORDINATES          ICOORD         CARTESIAN    [  1]   ***   
       CPHF_CONVER          ICPHFT          10D- 16             ***   
       CPHF_MAXCYC          ICPHFC             64              cycles 
       CUBIC                ICUBIC         OFF          [  0]   ***   
       CURVILINEAR          ICURVY            OFF       [  0]   ***   
       DBOC                 IDBOC          OFF          [  0]   ***   
       DCT                  IDCT           OFF          [  0]   ***   
       DERIV_LEV            IDRLVL            ZERO      [  0]   ***   
       DIAG_MRCC            IEOMST          10D-  0             ***   
       DIFF_TYPE            IDIFTY         RELAXED      [  0]   ***   
       DIRECT               IDIRCT         OFF          [  0]   ***   
       DROPMO               IDRPMO A   1,  2,  3,
                                   B   1,  2,  3,
       ECP                  IECP           OFF          [  0]   ***   
       EIGENVECTOR          IVEC                1               ***   
       EL_ANHARM            IELANH         OFF          [  0]   ***   
       EOMFOLLOW            IEOMSR         ENERGY       [  0]   ***   
       EOM_MRCC             IMRCCE         NEW          [  1]   ***   
       EOM_NONIT            EOMNON         OFF          [  0]   ***   
       EOM_NSING            IEOMSI          10D-  0             ***   
       EOM_NSTATES          IMRCCD         DAVIDSON     [  0]   ***   
       EOM_NTRIP            IEOMTR          10D-  0             ***   
       EOM_ORDER            IEXORD         ENERGY       [  0]   ***   
       ESTATE_CONV          IEXTOL          10D-  5             ***   
       ESTATE_DIAG          IEXDIG         ITERATIVE    [  0]   ***   
       ESTATE_LOCK          IESLOC         ON           [  1]   ***   
       ESTATE_MAXC          IEXMXC             20               ***   
       ESTATE_PROP          IEXPRP         OFF          [  0]   ***   
       EVAL_HESS            IRECAL              0            # of cyc.
       EXCITATION           IEXCIT              0               ***   
       EXCITE               IEXCIT         NONE         [  0]   ***   
       FCGRADNEW            IFCGNW         OFF          [  0]   ***   
       FC_FIELD             IFINFC              0             x 10-6  
       FD_CALTYPE           IFDCAL         GRADONLY     [  0]   ***   
       FD_PROJECT           IFDPRJ         OFF          [  1]   ***   
       FD_STEPSIZE          IDISFD              0            10-4 bohr
       FD_USEGROUP          IFDGRP         FULL         [  0]   ***   
       FILE_RECSIZ          IFLREC              4096           words  
       FINITE_PERT          IFIPER              0             x 10-6  
       FIXGEOM              IFIXGM         OFF          [  0]   ***   
       FOCK                 IFOCK          AO           [  1]   ***   
       FREQ_ALGORI          IVIALG         STANDARD     [  0]   ***   
       FROZEN_CORE          IFROCO         OFF          [  0]   ***   
       FROZEN_VIRT          IFROVI         OFF          [  0]   ***   
       GAMMA_ABCD           IGABCD         STORE        [  0]   ***   
       GAMMA_ABCI           IGABCI         STORE        [  0]   ***   
       GENBAS_1             IGNBS1              0               ***   
       GENBAS_2             IGNBS2              0               ***   
       GENBAS_3             IGNBS3              0               ***   
       GENBAS_4             IGNBS4              0               ***   
       GEO_CONV             ICONTL              5              H/bohr 
       GEO_MAXCYC           IOPTCY             50               ***   
       GEO_MAXSTEP          IMXSTP            300            millibohr
       GEO_METHOD           INR            SINGLE_POINT [  5]   ***   
       GIAO                 IGIAO          OFF          [  1]   ***   
       GIMIC                IGIMIC         OFF          [  0]   ***   
       GRID                 IGRID          OFF          [  0]   ***   
       GRID_ALGO            IGALGO         SERIAL       [  0]   ***   
       GUESS                IGUESS            MOREAD    [  0]   ***   
       HBAR                 IHBAR              OFF      [  0]   ***   
       HESS_TYPE            IHESTP         SCF          [  0]   ***   
       HF2_FILE             IHF2Fl         USE          [  1]   ***   
       HFSTABILITY          ISTABL         OFF          [  0]   ***   
       INCORE               INCORE             OFF      [  0]   ***   
       INPUT_MRCC           IMRCC          OFF          [  0]   ***   
       INTEGRALS            INTTYP             VMOL     [  1]   ***   
       JODA_PRINT           IJPRNT              4               ***   
       LINDEP_TOL           ILINDP              8               ***   
       LINEQ_CONV           IZTACN          10D-  7           cycles  
       LINEQ_EXPOR          ILMAXD              5               ***   
       LINEQ_MAXCY          ILMAXC             50               ***   
       LINEQ_TYPE           ILTYPE         DIIS         [  1]   ***   
       LOCK_ORBOCC          ILOCOC             OFF      [  0]   ***   
       MEMORY_SIZE          IMEMSZ         500000000           words  
       MEM_UNIT             IMEMU          GB           [  3]   ***   
       MRCC                 IMRCCC         OFF          [  0]   ***   
       MULTIPLICTY          IMULTP              2               ***   
       NEGEVAL              IDIE             ABORT      [  0]   ***   
       NEWNORM              INEWNO         OFF          [  0]   ***   
       NON-HF               INONHF              ON      [  1]   ***   
       NTOP_TAMP            ITOPT2             15               ***   
       NUC_MODEL            INUCMO         POINT        [  0]   ***   
       OCCUPATION           IOCCU   ESTIMATED BY SCF 
       OPEN-SHELL           IOPEN          SPIN-ORBITAL [  0]   ***   
       ORBITALS             IORBTP         SEMICANONICAL[  1]   ***   
       PARALLEL             IPARAL         ON           [  1]   ***   
       PARA_INT             IPINTS         ON           [  1]   ***   
       PARA_PRINT           IPPRIN              0               ***   
       PERT_ORB             IPTORB         STANDARD     [  0]   ***   
       POINTS               IGRDFD              0               ***   
       PRINT                IPRNT               4               ***   
       PROPS                IPROPS             OFF      [  0]   ***   
       PROP_INTEGR          IINTYP         INTERNAL     [  0]   ***   
       PSI                  IPSI           OFF          [  0]   ***   
       QUARTIC              IQUART         OFF          [  0]   ***   
       RAMAN_INT            IRAMIN         OFF          [  0]   ***   
       RAMAN_ORB            IRAMRE         UNRELAXED    [  0]   ***   
       RDO                  IRDOFM             OFF      [  0]   ***   
       REFERENCE            IREFNC             ROHF     [  2]   ***   
       RELATIVIST           IRELAT         OFF          [  0]   ***   
       RELAX_DENS           IRDENS             OFF      [  0]   ***   
       RESET_FLAGS          IRESET             OFF      [  0]   ***   
       RESTART_CC           ICCRES         OFF          [  0]   ***   
       ROT_EVEC             ROTVEC              0               ***   
       SAVE_INTS            ISVINT              ON      [  1]   ***   
       SCALE_ON             ISTCRT              0               ***   
       SCF_CONV             ISCFCV          10D- 12             ***   
       SCF_DAMPING          IDAMP               0             x 10-3  
       SCF_EXPORDE          IRPPOR              6               ***   
       SCF_EXPSTAR          IRPPLS              5               ***   
       SCF_EXTRAPO          IRPP                ON      [  1]   ***   
       SCF_MAXCYC           ISCFCY            ***              cycles 
       SCF_NOSTOP           ISCFST         OFF          [  0]   ***   
       SCF_PRINT            ISCFPR              0               ***   
       SD_FIELD             IFINSD              0             x 10-6  
       SEQUENCE             ISEQUE         OFF          [  0]   ***   
       SOPERT               IPERSO         OFF          [  0]   ***   
       SPHERICAL            IDFGHI             ON       [  1]   ***   
       SPINORBIT            ISOCAL         OFF          [  0]   ***   
       SPINROTATIO          ISRCON         OFF          [  0]   ***   
       SPIN_FLIP            ISPFLP         OFF          [  0]   ***   
       SPIN_ORBIT           ISPORB         OFF          [  0]   ***   
       SPIN_SCAL            ISCSMP         OFF          [  0]   ***   
       SUBGROUP             ISUBGP         DEFAULT      [  0]   ***   
       SUBGRPAXIS           ISBXYZ         X            [  0]   ***   
       SYMMETRY             ISYM             ON         [  0]   ***   
       SYM_CHECK            ISYMCK         OVERRIDE     [  1]   ***   
       T3_EXTRAPOL          IT3EXT         ON           [  1]   ***   
       TAMP_SUM             IEVERY              5               ***   
       TESTSUITE            ITESTS         OFF          [  0]   ***   
       THERMOCH             ITHERM         OFF          [  0]   ***   
       TOL_CHOLESK          ITOLCH          10D-  4             ***   
       TRANGRAD             IRESRM         OFF          [  0]   ***   
       TRANS_INV            ITRAIN         USE          [  0]   ***   
       TREAT_PERT           ITREAT         SIMULTANEOUS [  0]   ***   
       UIJ_THRESHO          IUIJTH              1               ***   
       UNITS                IUNITS         ANGSTROM     [  0]   ***   
       UNOS                 IUNOS          OFF          [  0]   ***   
       UPDATE_HESS          IHUPDT         ON           [  1]   ***   
       VIBPHASE             ISETPH         STANDARD     [  0]   ***   
       VIBRATION            IVIB              NO        [  0]   ***   
       VIB_ALGORIT          IGEALG         STANDARD     [  0]   ***   
       VNATORB              IVNORB         OFF          [  0]   ***   
       VTRAN                IVTRAN         FULL/PARTIAL [  0]   ***   
       XFIELD               IXEFLD              0             x 10-6  
       XFORM_TOL            IXFTOL          10D- 18             ***   
       YFIELD               IYEFLD              0             x 10-6  
       ZFIELD               IZEFLD              0             x 10-6  
    -------------------------------------------------------------------
  @GETXYZ-I,     6 atoms read from ZMAT.
  1  C          6    12.00000
  2  C          6    12.00000
  3  H          1     1.00783
  4  H          1     1.00783
  5  H          1     1.00783
  6  F          9    18.99840
  1  C          6    12.00000
  2  C          6    12.00000
  3  H          1     1.00783
  4  H          1     1.00783
  5  H          1     1.00783
  6  F          9    18.99840
   12.0000000000
   12.0000000000
    1.0078250350
    1.0078250350
    1.0078250350
   18.9984032200
 After translation to center of mass coordinates 
       -2.267940859534    0.854202897334    0.000000000000
        0.228387874268    0.854202897334    0.000000000000
       -3.254075747080    2.635440218450    0.000000000000
        1.426115440332    2.505767184602    0.000000000000
       -3.328360896607   -0.887142296931    0.000000000000
        1.561778907251   -1.304752960733    0.000000000000
  Inertia tensor (amu*bohr**2)
   63.97549   61.68575    0.00000
   61.68575  132.57488    0.00000
    0.00000    0.00000  196.55037
    Inertia tensor:
       63.975485069894   61.685746333236    0.000000000000
       61.685746333236  132.574880185924    0.000000000000
        0.000000000000    0.000000000000  196.550365255818
    Principal axis orientation for molecular system: 
       -2.387938672125   -0.413481837970    0.000000000000
       -0.236191669293    0.852078110436    0.000000000000
       -4.140983189707    0.621942389072    0.000000000000
       -0.041083917774    2.882878170212    0.000000000000
       -2.419176105419   -2.452059274168    0.000000000000
        2.007666740589   -0.332878209572    0.000000000000
    Diagonalized inertia tensor:
       27.694728157428    0.000000000000    0.000000000000
        0.000000000000  168.855637098390    0.000000000000
        0.000000000000    0.000000000000  196.550365255818
    Eigenvectors of inertia tensor: 
        0.861964601735    0.506968465839    0.000000000000
       -0.506968465839    0.861964601735    0.000000000000
        0.000000000000    0.000000000000    1.000000000000
 factor:   60.1997200000000     
   Rotational constants (in cm-1): 
          0.3062813947             0.3565159034             2.1736887850
   Rotational constants (in MHz): 
       9182.0865021597         10688.0793962384         65165.5595083340
  @SYMMETRY-I, Handedness of inertial frame: 1.00000
  @SYMMETRY-I, The symmetry group is 1-fold degenerate.
  @SYMMETRY-I, The molecule belongs to an Abelian group.
   Principal axis orientation for molecule:
       -2.387938672125   -0.413481837970    0.000000000000
       -0.236191669293    0.852078110436    0.000000000000
       -4.140983189707    0.621942389072    0.000000000000
       -0.041083917774    2.882878170212    0.000000000000
       -2.419176105419   -2.452059274168    0.000000000000
        2.007666740589   -0.332878209572    0.000000000000
   Reflection in plane  3 is a valid symmetry operation.
  Symmetry bits:    4   0   0
********************************************************************************
   The full molecular point group is C s .
   The largest Abelian subgroup of the full molecular point group is C s .
   The computational point group is C s .
********************************************************************************
 ----------------------------------------------------------------
 Z-matrix   Atomic            Coordinates (in bohr)
  Symbol    Number           X              Y              Z
 ----------------------------------------------------------------
     C         6        -2.38793867    -0.41348184     0.00000000
     C         6        -0.23619167     0.85207811     0.00000000
     H         1        -4.14098319     0.62194239     0.00000000
     H         1        -0.04108392     2.88287817     0.00000000
     H         1        -2.41917611    -2.45205927     0.00000000
     F         9         2.00766674    -0.33287821     0.00000000
 ----------------------------------------------------------------
   Interatomic distance matrix (Angstroms) 
 
                 C             C             H             H             H    
                [ 1]        [ 2]        [ 3]        [ 4]        [ 5]
  C    [ 1]     0.00000
  C    [ 2]     1.32100     0.00000
  H    [ 3]     1.07740     2.06991     0.00000
  H    [ 4]     2.14129     1.07960     2.47760     0.00000
  H    [ 5]     1.07890     2.09562     1.86448     3.09091     0.00000
  F    [ 6]     2.32644     1.34280     3.29272     2.01772     2.59717
 
                 F    
                [ 6]
  F    [ 6]     0.00000
  Inertia tensor (amu*bohr**2)
   27.69473    0.00000    0.00000
    0.00000  168.85564    0.00000
    0.00000    0.00000  196.55037
   Rotational constants (in cm-1): 
          2.1736887850             0.3565159034             0.3062813947
   Rotational constants (in MHz): 
      65165.5595083341         10688.0793962384          9182.0865021597
  @GTFLGS-W, Keyword #UNITS not known and is ignored.
  @GTFLGS-W, Keyword #GEOM not known and is ignored.
  @GTFLGS-W, Keyword #COORD not known and is ignored.
  @GTFLGS-W, Keyword #CC_PROG not known and is ignored.
  @GTFLGS-W, Keyword #FROZEN_CORE not known and is ignored.
  @GTFLGS-W, Keyword #CONTRACTION not known and is ignored.
  @GTFLGS-W, Keyword #EXCITE not known and is ignored.
  @GTFLGS-W, Keyword #ESTATE_CONV not known and is ignored.
  @GTFLGS-W, Keyword #ESTATE_SYM not known and is ignored.
  @GTFLGS-W, Keyword #SCF_DAMPING not known and is ignored.
  @GTFLGS-W, Keyword #SYMMETRY not known and is ignored.
  @GTFLGS-W, Keyword #HFSTABILITY not known and is ignored.
  @GTFLGS-W, Keyword #OCCUPATION not known and is ignored.
  There are  135 basis functions.
 @GEOPT-W, Archive file not created for single-point calculation.
  @CHECKOUT-I, Total execution time (CPU/WALL):        0.77/       1.01 seconds.
--executable xjoda finished with status     0 in        1.06 seconds (walltime).
 --invoking executable--
/project1/nike/cfour_v2.00beta_May2019xnmol_noLABBASIS/bin/xvmol
Running with 1 threads/proc

********************************************************************************
                   INPUT FROM MOL FILE                                          
********************************************************************************
INTGRL        1    0    1    0    0    0    0    0    0
         *** CFOUR Program System (Release V0.1) *** 
TITLE
    6    1 Z          0.10E-08              0    0
   9999.00      3.00
          6.00000000    1    4    1    1    1    1
C #1  -2.387938672124582  -0.413481837970318   0.000000000000000
   11    5
   13575.3496820000       2.224581435200000E-004  0.000000000000000E+000
  0.000000000000000E+000  0.000000000000000E+000  0.000000000000000E+000
   2035.23336800000       1.723273825200000E-003  0.000000000000000E+000
  0.000000000000000E+000  0.000000000000000E+000  0.000000000000000E+000
   463.225623590000       8.925571531400001E-003  0.000000000000000E+000
  0.000000000000000E+000  0.000000000000000E+000  0.000000000000000E+000
   131.200195980000       3.572798450200000E-002  0.000000000000000E+000
  0.000000000000000E+000  0.000000000000000E+000  0.000000000000000E+000
   42.8530158910000       0.110762599310000       0.000000000000000E+000
  0.000000000000000E+000  0.000000000000000E+000  0.000000000000000E+000
   15.5841857660000       0.242956276260000       0.000000000000000E+000
  0.000000000000000E+000  0.000000000000000E+000  0.000000000000000E+000
   6.20671385080000       0.000000000000000E+000  0.414402634480000     
  0.000000000000000E+000  0.000000000000000E+000  0.000000000000000E+000
   2.57648965270000       0.000000000000000E+000  0.237449686550000     
  0.000000000000000E+000  0.000000000000000E+000  0.000000000000000E+000
  0.576963394190000       0.000000000000000E+000  0.000000000000000E+000
   1.00000000000000       0.000000000000000E+000  0.000000000000000E+000
  0.229728313580000       0.000000000000000E+000  0.000000000000000E+000
  0.000000000000000E+000   1.00000000000000       0.000000000000000E+000
  9.516444002799999E-002  0.000000000000000E+000  0.000000000000000E+000
  0.000000000000000E+000  0.000000000000000E+000   1.00000000000000     
    6    3
   34.6972322440000       5.333365780500000E-003  0.000000000000000E+000
  0.000000000000000E+000
   7.95826228260000       3.586410909200000E-002  0.000000000000000E+000
  0.000000000000000E+000
   2.37808268830000       0.142158733290000       0.000000000000000E+000
  0.000000000000000E+000
  0.814332081830000       0.342704718450000       0.000000000000000E+000
  0.000000000000000E+000
  0.288875472530000       0.000000000000000E+000  0.464458224330000     
  0.000000000000000E+000
  0.100568236710000       0.000000000000000E+000  0.000000000000000E+000
  0.249557898740000     
    2    2
   1.09700000000000        1.00000000000000       0.000000000000000E+000
  0.318000000000000       0.000000000000000E+000   1.00000000000000     
    1    1
  0.761000000000000        1.00000000000000     
          6.00000000    1    4    1    1    1    1
C #2  -0.236191669292667   0.852078110435616   0.000000000000000
   11    5
   13575.3496820000       2.224581435200000E-004  0.000000000000000E+000
  0.000000000000000E+000  0.000000000000000E+000  0.000000000000000E+000
   2035.23336800000       1.723273825200000E-003  0.000000000000000E+000
  0.000000000000000E+000  0.000000000000000E+000  0.000000000000000E+000
   463.225623590000       8.925571531400001E-003  0.000000000000000E+000
  0.000000000000000E+000  0.000000000000000E+000  0.000000000000000E+000
   131.200195980000       3.572798450200000E-002  0.000000000000000E+000
  0.000000000000000E+000  0.000000000000000E+000  0.000000000000000E+000
   42.8530158910000       0.110762599310000       0.000000000000000E+000
  0.000000000000000E+000  0.000000000000000E+000  0.000000000000000E+000
   15.5841857660000       0.242956276260000       0.000000000000000E+000
  0.000000000000000E+000  0.000000000000000E+000  0.000000000000000E+000
   6.20671385080000       0.000000000000000E+000  0.414402634480000     
  0.000000000000000E+000  0.000000000000000E+000  0.000000000000000E+000
   2.57648965270000       0.000000000000000E+000  0.237449686550000     
  0.000000000000000E+000  0.000000000000000E+000  0.000000000000000E+000
  0.576963394190000       0.000000000000000E+000  0.000000000000000E+000
   1.00000000000000       0.000000000000000E+000  0.000000000000000E+000
  0.229728313580000       0.000000000000000E+000  0.000000000000000E+000
  0.000000000000000E+000   1.00000000000000       0.000000000000000E+000
  9.516444002799999E-002  0.000000000000000E+000  0.000000000000000E+000
  0.000000000000000E+000  0.000000000000000E+000   1.00000000000000     
    6    3
   34.6972322440000       5.333365780500000E-003  0.000000000000000E+000
  0.000000000000000E+000
   7.95826228260000       3.586410909200000E-002  0.000000000000000E+000
  0.000000000000000E+000
   2.37808268830000       0.142158733290000       0.000000000000000E+000
  0.000000000000000E+000
  0.814332081830000       0.342704718450000       0.000000000000000E+000
  0.000000000000000E+000
  0.288875472530000       0.000000000000000E+000  0.464458224330000     
  0.000000000000000E+000
  0.100568236710000       0.000000000000000E+000  0.000000000000000E+000
  0.249557898740000     
    2    2
   1.09700000000000        1.00000000000000       0.000000000000000E+000
  0.318000000000000       0.000000000000000E+000   1.00000000000000     
    1    1
  0.761000000000000        1.00000000000000     
          1.00000000    1    3    1    1    1
H #3  -4.140983189706533   0.621942389072212   0.000000000000000
    5    3
   34.0613410000000       6.025197800000000E-003  0.000000000000000E+000
  0.000000000000000E+000
   5.12357460000000       4.502109400000000E-002  0.000000000000000E+000
  0.000000000000000E+000
   1.16466260000000       0.201897260000000       0.000000000000000E+000
  0.000000000000000E+000
  0.327230410000000       0.000000000000000E+000   1.00000000000000     
  0.000000000000000E+000
  0.103072410000000       0.000000000000000E+000  0.000000000000000E+000
   1.00000000000000     
    2    2
   1.40700000000000        1.00000000000000       0.000000000000000E+000
  0.388000000000000       0.000000000000000E+000   1.00000000000000     
    1    1
   1.05700000000000        1.00000000000000     
          1.00000000    1    3    1    1    1
H #4  -0.041083917773695   2.882878170211675   0.000000000000000
    5    3
   34.0613410000000       6.025197800000000E-003  0.000000000000000E+000
  0.000000000000000E+000
   5.12357460000000       4.502109400000000E-002  0.000000000000000E+000
  0.000000000000000E+000
   1.16466260000000       0.201897260000000       0.000000000000000E+000
  0.000000000000000E+000
  0.327230410000000       0.000000000000000E+000   1.00000000000000     
  0.000000000000000E+000
  0.103072410000000       0.000000000000000E+000  0.000000000000000E+000
   1.00000000000000     
    2    2
   1.40700000000000        1.00000000000000       0.000000000000000E+000
  0.388000000000000       0.000000000000000E+000   1.00000000000000     
    1    1
   1.05700000000000        1.00000000000000     
          1.00000000    1    3    1    1    1
H #5  -2.419176105419078  -2.452059274168307   0.000000000000000
    5    3
   34.0613410000000       6.025197800000000E-003  0.000000000000000E+000
  0.000000000000000E+000
   5.12357460000000       4.502109400000000E-002  0.000000000000000E+000
  0.000000000000000E+000
   1.16466260000000       0.201897260000000       0.000000000000000E+000
  0.000000000000000E+000
  0.327230410000000       0.000000000000000E+000   1.00000000000000     
  0.000000000000000E+000
  0.103072410000000       0.000000000000000E+000  0.000000000000000E+000
   1.00000000000000     
    2    2
   1.40700000000000        1.00000000000000       0.000000000000000E+000
  0.388000000000000       0.000000000000000E+000   1.00000000000000     
    1    1
   1.05700000000000        1.00000000000000     
          9.00000000    1    4    1    1    1    1
F #6   2.007666740588883  -0.332878209572069   0.000000000000000
   11    5
   35479.1004410000       2.154501488800000E-004  0.000000000000000E+000
  0.000000000000000E+000  0.000000000000000E+000  0.000000000000000E+000
   5318.47289830000       1.670068652700000E-003  0.000000000000000E+000
  0.000000000000000E+000  0.000000000000000E+000  0.000000000000000E+000
   1210.48109750000       8.673321147599999E-003  0.000000000000000E+000
  0.000000000000000E+000  0.000000000000000E+000  0.000000000000000E+000
   342.855181400000       3.504993317500000E-002  0.000000000000000E+000
  0.000000000000000E+000  0.000000000000000E+000  0.000000000000000E+000
   112.019431810000       0.111653201330000       0.000000000000000E+000
  0.000000000000000E+000  0.000000000000000E+000  0.000000000000000E+000
   40.7147402480000       0.259885066470000       0.000000000000000E+000
  0.000000000000000E+000  0.000000000000000E+000  0.000000000000000E+000
   16.0396781110000       0.000000000000000E+000  0.394229668800000     
  0.000000000000000E+000  0.000000000000000E+000  0.000000000000000E+000
   6.50381867400000       0.000000000000000E+000  0.249982385510000     
  0.000000000000000E+000  0.000000000000000E+000  0.000000000000000E+000
   1.54404775090000       0.000000000000000E+000  0.000000000000000E+000
   1.00000000000000       0.000000000000000E+000  0.000000000000000E+000
  0.612234528620000       0.000000000000000E+000  0.000000000000000E+000
  0.000000000000000E+000   1.00000000000000       0.000000000000000E+000
  0.240279796980000       0.000000000000000E+000  0.000000000000000E+000
  0.000000000000000E+000  0.000000000000000E+000   1.00000000000000     
    6    3
   80.2339004830000       6.368599913400000E-003  0.000000000000000E+000
  0.000000000000000E+000
   18.5940107430000       4.430314353000000E-002  0.000000000000000E+000
  0.000000000000000E+000
   5.68679026530000       0.168672487080000       0.000000000000000E+000
  0.000000000000000E+000
   1.95110062940000       0.361663462550000       0.000000000000000E+000
  0.000000000000000E+000
  0.669702112980000       0.000000000000000E+000  0.442029014910000     
  0.000000000000000E+000
  0.216513004100000       0.000000000000000E+000  0.000000000000000E+000
  0.243198757300000     
    2    2
   3.10700000000000        1.00000000000000       0.000000000000000E+000
  0.855000000000000       0.000000000000000E+000   1.00000000000000     
    1    1
   1.91700000000000        1.00000000000000     
FINISH
                                                                                
********************************************************************************

ONE- AND TWO-ELECTRON INTEGRALS OVER SYMMETRY-ADAPTED AOS ARE CALCULATED.


    BASIS FUNCTION NOT NORMALIZED:
    CENTER (AS ORDERED IN MOL FILE): ?
    ANGULAR MOMENTUM TYPE:           S
    OFFSET WITHIN ANGULAR MOMENTUM:  1
    <CHI|CHI>:                       0.1345548646

    BASIS FUNCTION NOT NORMALIZED:
    CENTER (AS ORDERED IN MOL FILE): ?
    ANGULAR MOMENTUM TYPE:           S
    OFFSET WITHIN ANGULAR MOMENTUM:  2
    <CHI|CHI>:                       0.3991162928

    BASIS FUNCTION NOT NORMALIZED:
    CENTER (AS ORDERED IN MOL FILE): ?
    ANGULAR MOMENTUM TYPE:           P
    OFFSET WITHIN ANGULAR MOMENTUM:  1
    <CHI|CHI>:                       0.2216950870

    BASIS FUNCTION NOT NORMALIZED:
    CENTER (AS ORDERED IN MOL FILE): ?
    ANGULAR MOMENTUM TYPE:           P
    OFFSET WITHIN ANGULAR MOMENTUM:  2
    <CHI|CHI>:                       0.2157214421

    BASIS FUNCTION NOT NORMALIZED:
    CENTER (AS ORDERED IN MOL FILE): ?
    ANGULAR MOMENTUM TYPE:           P
    OFFSET WITHIN ANGULAR MOMENTUM:  3
    <CHI|CHI>:                       0.0622791448

    BASIS FUNCTION NOT NORMALIZED:
    CENTER (AS ORDERED IN MOL FILE): ?
    ANGULAR MOMENTUM TYPE:           S
    OFFSET WITHIN ANGULAR MOMENTUM:  1
    <CHI|CHI>:                       0.1345548646

    BASIS FUNCTION NOT NORMALIZED:
    CENTER (AS ORDERED IN MOL FILE): ?
    ANGULAR MOMENTUM TYPE:           S
    OFFSET WITHIN ANGULAR MOMENTUM:  2
    <CHI|CHI>:                       0.3991162928

    BASIS FUNCTION NOT NORMALIZED:
    CENTER (AS ORDERED IN MOL FILE): ?
    ANGULAR MOMENTUM TYPE:           P
    OFFSET WITHIN ANGULAR MOMENTUM:  1
    <CHI|CHI>:                       0.2216950870

    BASIS FUNCTION NOT NORMALIZED:
    CENTER (AS ORDERED IN MOL FILE): ?
    ANGULAR MOMENTUM TYPE:           P
    OFFSET WITHIN ANGULAR MOMENTUM:  2
    <CHI|CHI>:                       0.2157214421

    BASIS FUNCTION NOT NORMALIZED:
    CENTER (AS ORDERED IN MOL FILE): ?
    ANGULAR MOMENTUM TYPE:           P
    OFFSET WITHIN ANGULAR MOMENTUM:  3
    <CHI|CHI>:                       0.0622791448

    BASIS FUNCTION NOT NORMALIZED:
    CENTER (AS ORDERED IN MOL FILE): ?
    ANGULAR MOMENTUM TYPE:           S
    OFFSET WITHIN ANGULAR MOMENTUM:  1
    <CHI|CHI>:                       0.0560960211

    BASIS FUNCTION NOT NORMALIZED:
    CENTER (AS ORDERED IN MOL FILE): ?
    ANGULAR MOMENTUM TYPE:           S
    OFFSET WITHIN ANGULAR MOMENTUM:  1
    <CHI|CHI>:                       0.0560960211

    BASIS FUNCTION NOT NORMALIZED:
    CENTER (AS ORDERED IN MOL FILE): ?
    ANGULAR MOMENTUM TYPE:           S
    OFFSET WITHIN ANGULAR MOMENTUM:  1
    <CHI|CHI>:                       0.0560960211

    BASIS FUNCTION NOT NORMALIZED:
    CENTER (AS ORDERED IN MOL FILE): ?
    ANGULAR MOMENTUM TYPE:           S
    OFFSET WITHIN ANGULAR MOMENTUM:  1
    <CHI|CHI>:                       0.1470459150

    BASIS FUNCTION NOT NORMALIZED:
    CENTER (AS ORDERED IN MOL FILE): ?
    ANGULAR MOMENTUM TYPE:           S
    OFFSET WITHIN ANGULAR MOMENTUM:  2
    <CHI|CHI>:                       0.3879183687

    BASIS FUNCTION NOT NORMALIZED:
    CENTER (AS ORDERED IN MOL FILE): ?
    ANGULAR MOMENTUM TYPE:           P
    OFFSET WITHIN ANGULAR MOMENTUM:  1
    <CHI|CHI>:                       0.2671601553

    BASIS FUNCTION NOT NORMALIZED:
    CENTER (AS ORDERED IN MOL FILE): ?
    ANGULAR MOMENTUM TYPE:           P
    OFFSET WITHIN ANGULAR MOMENTUM:  2
    <CHI|CHI>:                       0.1953896500

    BASIS FUNCTION NOT NORMALIZED:
    CENTER (AS ORDERED IN MOL FILE): ?
    ANGULAR MOMENTUM TYPE:           P
    OFFSET WITHIN ANGULAR MOMENTUM:  3
    <CHI|CHI>:                       0.0591456356
CARTESIAN GAUSSIANS ARE USED.

6 TYPES OF ATOMS
1 SYMMETRY OPERATIONS

REFLECTION IN THE XY-PLANE

INTEGRALS LESS THAN 1e-14 ARE NEGLECTED.

ATOMIC TYPE NUMBER 1:
---------------------

    NUCLEAR CHARGE:                       6
    NUMBER OF SYMMETRY INDEPENDENT ATOMS: 1
    HIGHEST ORBITAL TYPE:                 F

    1 GROUPS OF CGTOS OF S TYPE
    1 GROUPS OF CGTOS OF P TYPE
    1 GROUPS OF CGTOS OF D TYPE
    1 GROUPS OF CGTOS OF F TYPE

    NUCLEAR COORDINATES (IN A.U.) ARE:

    C #1  -2.387938672124582  -0.413481837970318   0.000000000000000

ATOMIC TYPE NUMBER 2:
---------------------

    NUCLEAR CHARGE:                       6
    NUMBER OF SYMMETRY INDEPENDENT ATOMS: 1
    HIGHEST ORBITAL TYPE:                 F

    1 GROUPS OF CGTOS OF S TYPE
    1 GROUPS OF CGTOS OF P TYPE
    1 GROUPS OF CGTOS OF D TYPE
    1 GROUPS OF CGTOS OF F TYPE

    NUCLEAR COORDINATES (IN A.U.) ARE:

    C #2  -0.236191669292667   0.852078110435616   0.000000000000000

ATOMIC TYPE NUMBER 3:
---------------------

    NUCLEAR CHARGE:                       1
    NUMBER OF SYMMETRY INDEPENDENT ATOMS: 1
    HIGHEST ORBITAL TYPE:                 D

    1 GROUPS OF CGTOS OF S TYPE
    1 GROUPS OF CGTOS OF P TYPE
    1 GROUPS OF CGTOS OF D TYPE

    NUCLEAR COORDINATES (IN A.U.) ARE:

    H #3  -4.140983189706533   0.621942389072212   0.000000000000000

ATOMIC TYPE NUMBER 4:
---------------------

    NUCLEAR CHARGE:                       1
    NUMBER OF SYMMETRY INDEPENDENT ATOMS: 1
    HIGHEST ORBITAL TYPE:                 D

    1 GROUPS OF CGTOS OF S TYPE
    1 GROUPS OF CGTOS OF P TYPE
    1 GROUPS OF CGTOS OF D TYPE

    NUCLEAR COORDINATES (IN A.U.) ARE:

    H #4  -0.041083917773695   2.882878170211675   0.000000000000000

ATOMIC TYPE NUMBER 5:
---------------------

    NUCLEAR CHARGE:                       1
    NUMBER OF SYMMETRY INDEPENDENT ATOMS: 1
    HIGHEST ORBITAL TYPE:                 D

    1 GROUPS OF CGTOS OF S TYPE
    1 GROUPS OF CGTOS OF P TYPE
    1 GROUPS OF CGTOS OF D TYPE

    NUCLEAR COORDINATES (IN A.U.) ARE:

    H #5  -2.419176105419078  -2.452059274168307   0.000000000000000

ATOMIC TYPE NUMBER 6:
---------------------

    NUCLEAR CHARGE:                       9
    NUMBER OF SYMMETRY INDEPENDENT ATOMS: 1
    HIGHEST ORBITAL TYPE:                 F

    1 GROUPS OF CGTOS OF S TYPE
    1 GROUPS OF CGTOS OF P TYPE
    1 GROUPS OF CGTOS OF D TYPE
    1 GROUPS OF CGTOS OF F TYPE

    NUCLEAR COORDINATES (IN A.U.) ARE:

    F #6   2.007666740588883  -0.332878209572069   0.000000000000000

INTERNUCLEAR DISTANCES (A):

    FOR ATOM C #1 (COORDINATES:  -2.38794  -0.41348   0.00000)

    C #2 1 DISTANCE IS   1.32100
    H #3 1 DISTANCE IS   1.07740
    H #4 1 DISTANCE IS   2.14129
    H #5 1 DISTANCE IS   1.07890
    F #6 1 DISTANCE IS   2.32645

    FOR ATOM C #2 (COORDINATES:  -0.23619   0.85208   0.00000)

    H #3 1 DISTANCE IS   2.06991
    H #4 1 DISTANCE IS   1.07960
    H #5 1 DISTANCE IS   2.09562
    F #6 1 DISTANCE IS   1.34280

    FOR ATOM H #3 (COORDINATES:  -4.14098   0.62194   0.00000)

    H #4 1 DISTANCE IS   2.47760
    H #5 1 DISTANCE IS   1.86448
    F #6 1 DISTANCE IS   3.29272

    FOR ATOM H #4 (COORDINATES:  -0.04108   2.88288   0.00000)

    H #5 1 DISTANCE IS   3.09091
    F #6 1 DISTANCE IS   2.01772

    FOR ATOM H #5 (COORDINATES:  -2.41918  -2.45206   0.00000)

    F #6 1 DISTANCE IS   2.59717

    FOR ATOM F #6 (COORDINATES:   2.00767  -0.33288   0.00000)


GROUP MULTIPLICATION TABLE:

    1 2
    2 1

GAUSSIAN BASIS INFORMATION:

ATOM                EXPONENT       COEFFICIENTS

C #1  1  S   
                  1   13575.349682   0.5435906   0.0000000   0.0000000   0.0000000   0.0000000
                  2    2035.233368   1.0145544   0.0000000   0.0000000   0.0000000   0.0000000
                  3     463.225624   1.7315732   0.0000000   0.0000000   0.0000000   0.0000000
                  4     131.200196   2.6910376   0.0000000   0.0000000   0.0000000   0.0000000
                  5      42.853016   3.6044547   0.0000000   0.0000000   0.0000000   0.0000000
                  6      15.584186   3.7025557   0.0000000   0.0000000   0.0000000   0.0000000
                  7       6.206714   0.0000000   1.8383541   0.0000000   0.0000000   0.0000000
                  8       2.576490   0.0000000   0.5447576   0.0000000   0.0000000   0.0000000
                  9       0.576963   0.0000000   0.0000000   0.4718145   0.0000000   0.0000000
                 10       0.229728   0.0000000   0.0000000   0.0000000   0.2364945   0.0000000
                 11       0.095164   0.0000000   0.0000000   0.0000000   0.0000000   0.1221142

C #1  1  X   
                 12      34.697232   1.3596651   0.0000000   0.0000000
                 13       7.958262   1.4512589   0.0000000   0.0000000
                 14       2.378083   1.2709231   0.0000000   0.0000000
                 15       0.814332   0.8025721   0.0000000   0.0000000
                 16       0.288875   0.0000000   0.3018759   0.0000000
                 17       0.100568   0.0000000   0.0000000   0.0807265

C #1  1  Y   
                 18      34.697232   1.3596651   0.0000000   0.0000000
                 19       7.958262   1.4512589   0.0000000   0.0000000
                 20       2.378083   1.2709231   0.0000000   0.0000000
                 21       0.814332   0.8025721   0.0000000   0.0000000
                 22       0.288875   0.0000000   0.3018759   0.0000000
                 23       0.100568   0.0000000   0.0000000   0.0807265

C #1  1  Z   
                 24      34.697232   1.3596651   0.0000000   0.0000000
                 25       7.958262   1.4512589   0.0000000   0.0000000
                 26       2.378083   1.2709231   0.0000000   0.0000000
                 27       0.814332   0.8025721   0.0000000   0.0000000
                 28       0.288875   0.0000000   0.3018759   0.0000000
                 29       0.100568   0.0000000   0.0000000   0.0807265

C #1  1  XX  
                 30       1.097000   3.3522136   0.0000000
                 31       0.318000   0.0000000   0.3838995

C #1  1  XY  
                 32       1.097000   3.3522136   0.0000000
                 33       0.318000   0.0000000   0.3838995

C #1  1  XZ  
                 34       1.097000   3.3522136   0.0000000
                 35       0.318000   0.0000000   0.3838995

C #1  1  YY  
                 36       1.097000   3.3522136   0.0000000
                 37       0.318000   0.0000000   0.3838995

C #1  1  YZ  
                 38       1.097000   3.3522136   0.0000000
                 39       0.318000   0.0000000   0.3838995

C #1  1  ZZ  
                 40       1.097000   3.3522136   0.0000000
                 41       0.318000   0.0000000   0.3838995

C #1  1  F300
                 42       0.761000   3.0840084

C #1  1  F210
                 43       0.761000   3.0840084

C #1  1  F201
                 44       0.761000   3.0840084

C #1  1  F120
                 45       0.761000   3.0840084

C #1  1  F111
                 46       0.761000   3.0840084

C #1  1  F102
                 47       0.761000   3.0840084

C #1  1  F030
                 48       0.761000   3.0840084

C #1  1  F021
                 49       0.761000   3.0840084

C #1  1  F012
                 50       0.761000   3.0840084

C #1  1  F003
                 51       0.761000   3.0840084

C #2  1  S   
                 52   13575.349682   0.5435906   0.0000000   0.0000000   0.0000000   0.0000000
                 53    2035.233368   1.0145544   0.0000000   0.0000000   0.0000000   0.0000000
                 54     463.225624   1.7315732   0.0000000   0.0000000   0.0000000   0.0000000
                 55     131.200196   2.6910376   0.0000000   0.0000000   0.0000000   0.0000000
                 56      42.853016   3.6044547   0.0000000   0.0000000   0.0000000   0.0000000
                 57      15.584186   3.7025557   0.0000000   0.0000000   0.0000000   0.0000000
                 58       6.206714   0.0000000   1.8383541   0.0000000   0.0000000   0.0000000
                 59       2.576490   0.0000000   0.5447576   0.0000000   0.0000000   0.0000000
                 60       0.576963   0.0000000   0.0000000   0.4718145   0.0000000   0.0000000
                 61       0.229728   0.0000000   0.0000000   0.0000000   0.2364945   0.0000000
                 62       0.095164   0.0000000   0.0000000   0.0000000   0.0000000   0.1221142

C #2  1  X   
                 63      34.697232   1.3596651   0.0000000   0.0000000
                 64       7.958262   1.4512589   0.0000000   0.0000000
                 65       2.378083   1.2709231   0.0000000   0.0000000
                 66       0.814332   0.8025721   0.0000000   0.0000000
                 67       0.288875   0.0000000   0.3018759   0.0000000
                 68       0.100568   0.0000000   0.0000000   0.0807265

C #2  1  Y   
                 69      34.697232   1.3596651   0.0000000   0.0000000
                 70       7.958262   1.4512589   0.0000000   0.0000000
                 71       2.378083   1.2709231   0.0000000   0.0000000
                 72       0.814332   0.8025721   0.0000000   0.0000000
                 73       0.288875   0.0000000   0.3018759   0.0000000
                 74       0.100568   0.0000000   0.0000000   0.0807265

C #2  1  Z   
                 75      34.697232   1.3596651   0.0000000   0.0000000
                 76       7.958262   1.4512589   0.0000000   0.0000000
                 77       2.378083   1.2709231   0.0000000   0.0000000
                 78       0.814332   0.8025721   0.0000000   0.0000000
                 79       0.288875   0.0000000   0.3018759   0.0000000
                 80       0.100568   0.0000000   0.0000000   0.0807265

C #2  1  XX  
                 81       1.097000   3.3522136   0.0000000
                 82       0.318000   0.0000000   0.3838995

C #2  1  XY  
                 83       1.097000   3.3522136   0.0000000
                 84       0.318000   0.0000000   0.3838995

C #2  1  XZ  
                 85       1.097000   3.3522136   0.0000000
                 86       0.318000   0.0000000   0.3838995

C #2  1  YY  
                 87       1.097000   3.3522136   0.0000000
                 88       0.318000   0.0000000   0.3838995

C #2  1  YZ  
                 89       1.097000   3.3522136   0.0000000
                 90       0.318000   0.0000000   0.3838995

C #2  1  ZZ  
                 91       1.097000   3.3522136   0.0000000
                 92       0.318000   0.0000000   0.3838995

C #2  1  F300
                 93       0.761000   3.0840084

C #2  1  F210
                 94       0.761000   3.0840084

C #2  1  F201
                 95       0.761000   3.0840084

C #2  1  F120
                 96       0.761000   3.0840084

C #2  1  F111
                 97       0.761000   3.0840084

C #2  1  F102
                 98       0.761000   3.0840084

C #2  1  F030
                 99       0.761000   3.0840084

C #2  1  F021
                100       0.761000   3.0840084

C #2  1  F012
                101       0.761000   3.0840084

C #2  1  F003
                102       0.761000   3.0840084

H #3  1  S   
                103      34.061341   0.2556299   0.0000000   0.0000000
                104       5.123575   0.4613600   0.0000000   0.0000000
                105       1.164663   0.6811215   0.0000000   0.0000000
                106       0.327230   0.0000000   0.3083545   0.0000000
                107       0.103072   0.0000000   0.0000000   0.1296483

H #3  1  X   
                108       1.407000   2.1842770   0.0000000
                109       0.388000   0.0000000   0.4364955

H #3  1  Y   
                110       1.407000   2.1842770   0.0000000
                111       0.388000   0.0000000   0.4364955

H #3  1  Z   
                112       1.407000   2.1842770   0.0000000
                113       0.388000   0.0000000   0.4364955

H #3  1  XX  
                114       1.057000   3.1412414

H #3  1  XY  
                115       1.057000   3.1412414

H #3  1  XZ  
                116       1.057000   3.1412414

H #3  1  YY  
                117       1.057000   3.1412414

H #3  1  YZ  
                118       1.057000   3.1412414

H #3  1  ZZ  
                119       1.057000   3.1412414

H #4  1  S   
                120      34.061341   0.2556299   0.0000000   0.0000000
                121       5.123575   0.4613600   0.0000000   0.0000000
                122       1.164663   0.6811215   0.0000000   0.0000000
                123       0.327230   0.0000000   0.3083545   0.0000000
                124       0.103072   0.0000000   0.0000000   0.1296483

H #4  1  X   
                125       1.407000   2.1842770   0.0000000
                126       0.388000   0.0000000   0.4364955

H #4  1  Y   
                127       1.407000   2.1842770   0.0000000
                128       0.388000   0.0000000   0.4364955

H #4  1  Z   
                129       1.407000   2.1842770   0.0000000
                130       0.388000   0.0000000   0.4364955

H #4  1  XX  
                131       1.057000   3.1412414

H #4  1  XY  
                132       1.057000   3.1412414

H #4  1  XZ  
                133       1.057000   3.1412414

H #4  1  YY  
                134       1.057000   3.1412414

H #4  1  YZ  
                135       1.057000   3.1412414

H #4  1  ZZ  
                136       1.057000   3.1412414

H #5  1  S   
                137      34.061341   0.2556299   0.0000000   0.0000000
                138       5.123575   0.4613600   0.0000000   0.0000000
                139       1.164663   0.6811215   0.0000000   0.0000000
                140       0.327230   0.0000000   0.3083545   0.0000000
                141       0.103072   0.0000000   0.0000000   0.1296483

H #5  1  X   
                142       1.407000   2.1842770   0.0000000
                143       0.388000   0.0000000   0.4364955

H #5  1  Y   
                144       1.407000   2.1842770   0.0000000
                145       0.388000   0.0000000   0.4364955

H #5  1  Z   
                146       1.407000   2.1842770   0.0000000
                147       0.388000   0.0000000   0.4364955

H #5  1  XX  
                148       1.057000   3.1412414

H #5  1  XY  
                149       1.057000   3.1412414

H #5  1  XZ  
                150       1.057000   3.1412414

H #5  1  YY  
                151       1.057000   3.1412414

H #5  1  YZ  
                152       1.057000   3.1412414

H #5  1  ZZ  
                153       1.057000   3.1412414

F #6  1  S   
                154   35479.100441   1.0351657   0.0000000   0.0000000   0.0000000   0.0000000
                155    5318.472898   1.9331170   0.0000000   0.0000000   0.0000000   0.0000000
                156    1210.481098   3.3081679   0.0000000   0.0000000   0.0000000   0.0000000
                157     342.855181   5.1904360   0.0000000   0.0000000   0.0000000   0.0000000
                158     112.019432   7.1453715   0.0000000   0.0000000   0.0000000   0.0000000
                159      40.714740   7.7853598   0.0000000   0.0000000   0.0000000   0.0000000
                160      16.039678   0.0000000   3.6156465   0.0000000   0.0000000   0.0000000
                161       6.503819   0.0000000   1.1649993   0.0000000   0.0000000   0.0000000
                162       1.544048   0.0000000   0.0000000   0.9872011   0.0000000   0.0000000
                163       0.612235   0.0000000   0.0000000   0.0000000   0.4932856   0.0000000
                164       0.240280   0.0000000   0.0000000   0.0000000   0.0000000   0.2445953

F #6  1  X   
                165      80.233900   4.2174078   0.0000000   0.0000000
                166      18.594011   4.7174264   0.0000000   0.0000000
                167       5.686790   4.0849101   0.0000000   0.0000000
                168       1.951101   2.2998974   0.0000000   0.0000000
                169       0.669702   0.0000000   0.8635593   0.0000000
                170       0.216513   0.0000000   0.0000000   0.2105208

F #6  1  Y   
                171      80.233900   4.2174078   0.0000000   0.0000000
                172      18.594011   4.7174264   0.0000000   0.0000000
                173       5.686790   4.0849101   0.0000000   0.0000000
                174       1.951101   2.2998974   0.0000000   0.0000000
                175       0.669702   0.0000000   0.8635593   0.0000000
                176       0.216513   0.0000000   0.0000000   0.2105208

F #6  1  Z   
                177      80.233900   4.2174078   0.0000000   0.0000000
                178      18.594011   4.7174264   0.0000000   0.0000000
                179       5.686790   4.0849101   0.0000000   0.0000000
                180       1.951101   2.2998974   0.0000000   0.0000000
                181       0.669702   0.0000000   0.8635593   0.0000000
                182       0.216513   0.0000000   0.0000000   0.2105208

F #6  1  XX  
                183       3.107000  20.7284714   0.0000000
                184       0.855000   0.0000000   2.1672588

F #6  1  XY  
                185       3.107000  20.7284714   0.0000000
                186       0.855000   0.0000000   2.1672588

F #6  1  XZ  
                187       3.107000  20.7284714   0.0000000
                188       0.855000   0.0000000   2.1672588

F #6  1  YY  
                189       3.107000  20.7284714   0.0000000
                190       0.855000   0.0000000   2.1672588

F #6  1  YZ  
                191       3.107000  20.7284714   0.0000000
                192       0.855000   0.0000000   2.1672588

F #6  1  ZZ  
                193       3.107000  20.7284714   0.0000000
                194       0.855000   0.0000000   2.1672588

F #6  1  F300
                195       1.917000  24.6547063

F #6  1  F210
                196       1.917000  24.6547063

F #6  1  F201
                197       1.917000  24.6547063

F #6  1  F120
                198       1.917000  24.6547063

F #6  1  F111
                199       1.917000  24.6547063

F #6  1  F102
                200       1.917000  24.6547063

F #6  1  F030
                201       1.917000  24.6547063

F #6  1  F021
                202       1.917000  24.6547063

F #6  1  F012
                203       1.917000  24.6547063

F #6  1  F003
                204       1.917000  24.6547063

SYMMETRY TRANSFORMATION INTO 135 SYMMETRY-ADAPTED BASIS FUNCTIONS

    IRREDUCIBLE REPRESENTATION NUMBER 1

    1    1 C #1 S      1   1.0
    2    2 C #1 S      2   1.0
    3    3 C #1 S      3   1.0
    4    4 C #1 S      4   1.0
    5    5 C #1 S      5   1.0
    6    6 C #1 X      6   1.0
    7    7 C #1 X      7   1.0
    8    8 C #1 X      8   1.0
    9    9 C #1 Y      9   1.0
   10   10 C #1 Y     10   1.0
   11   11 C #1 Y     11   1.0
   12   12 C #1 XX    15  -1.0  21  -1.0  25   2.0
   13   13 C #1 XX    16  -1.0  22  -1.0  26   2.0
   14   14 C #1 XY    17   1.0
   15   15 C #1 XY    18   1.0
   16   16 C #1 YY    15   1.0  21  -1.0
   17   17 C #1 YY    16   1.0  22  -1.0
   18   18 C #1 ZZ    27  -1.0  30  -1.0  32   4.0
   19   19 C #1 ZZ    28  -1.0  33  -1.0  35   4.0
   20   20 C #1 F300  27   1.0  30  -3.0
   21   21 C #1 F210  28   3.0  33  -1.0
   22   22 C #1 F120  37   1.0
   23   23 C #1 F102  38   1.0
   24   24 C #1 F030  39   1.0
   25   25 C #1 F012  40   1.0
   26   26 C #2 S     41   1.0
   27   27 C #2 S     42   1.0
   28   28 C #2 S     43   1.0
   29   29 C #2 S     44   1.0
   30   30 C #2 S     45   1.0
   31   31 C #2 X     46   1.0
   32   32 C #2 X     47   1.0
   33   33 C #2 X     51  -1.0  57  -1.0  61   2.0
   34   34 C #2 Y     52  -1.0  58  -1.0  62   2.0
   35   35 C #2 Y     53   1.0
   36   36 C #2 Y     54   1.0
   37   37 C #2 XX    51   1.0  57  -1.0
   38   38 C #2 XX    52   1.0  58  -1.0
   39   39 C #2 XY    63  -1.0  66  -1.0  68   4.0
   40   40 C #2 XY    64  -1.0  69  -1.0  71   4.0
   41   41 C #2 YY    63   1.0  66  -3.0
   42   42 C #2 YY    64   3.0  69  -1.0
   43   43 C #2 ZZ    73   1.0
   44   44 C #2 ZZ    74   1.0
   45   45 C #2 F300  75   1.0
   46   46 C #2 F210  76   1.0
   47   47 C #2 F120  77   1.0
   48   48 C #2 F102  78   1.0
   49   49 C #2 F030  79   1.0
   50   50 C #2 F012  82  -1.0  85  -1.0  87   2.0
   51   51 H #3 S     83   1.0
   52   52 H #3 S     82   1.0  85  -1.0
   53   53 H #3 S     88   1.0
   54   54 H #3 X     89   1.0
   55   55 H #3 X     90   1.0
   56   56 H #3 Y     91   1.0
   57   57 H #3 Y     92   1.0
   58   58 H #3 XX    93   1.0
   59   59 H #3 XY    94   1.0
   60   60 H #3 YY    97  -1.0 100  -1.0 102   2.0
   61   61 H #3 ZZ    98   1.0
   62   62 H #4 S     97   1.0 100  -1.0
   63   63 H #4 S    103   1.0
   64   64 H #4 S    104   1.0
   65   65 H #4 X    105   1.0
   66   66 H #4 X    106   1.0
   67   67 H #4 Y    107   1.0
   68   68 H #4 Y    108   1.0
   69   69 H #4 XX   109   1.0
   70   70 H #4 XY   112  -1.0 115  -1.0 117   2.0
   71   71 H #4 YY   113   1.0
   72   72 H #4 ZZ   112   1.0 115  -1.0
   73   73 H #5 S    118   1.0
   74   74 H #5 S    119   1.0
   75   75 H #5 S    120   1.0
   76   76 H #5 X    121   1.0
   77   77 H #5 X    122   1.0
   78   78 H #5 Y    123   1.0
   79   79 H #5 Y    124   1.0
   80   80 H #5 XX   125   1.0
   81   81 H #5 XY   126   1.0
   82   82 H #5 YY   127   1.0
   83   83 H #5 ZZ   128   1.0
   84   84 F #6 S    132  -1.0 138  -1.0 142   2.0
   85   85 F #6 S    133  -1.0 139  -1.0 143   2.0
   86   86 F #6 S    134   1.0
   87   87 F #6 S    135   1.0
   88   88 F #6 S    132   1.0 138  -1.0
   89   89 F #6 X    133   1.0 139  -1.0
   90   90 F #6 X    144  -1.0 147  -1.0 149   4.0
   91   91 F #6 X    145  -1.0 150  -1.0 152   4.0
   92   92 F #6 Y    144   1.0 147  -3.0
   93   93 F #6 Y    145   3.0 150  -1.0
   94   94 F #6 Y     12   1.0
   95   95 F #6 XX    13   1.0
   96   96 F #6 XX    14   1.0
   97   97 F #6 XY    19   1.0
   98   98 F #6 XY    20   1.0
   99   99 F #6 YY    23   1.0
  100  100 F #6 YY    24   1.0
  101  101 F #6 ZZ    29  -3.0  34  -3.0  36   2.0
  102  102 F #6 ZZ    31   1.0
  103  103 F #6 F300  29   1.0  34  -1.0
  104  104 F #6 F210  48   1.0
  105  105 F #6 F120  49   1.0
  106  106 F #6 F102  50   1.0
  107  107 F #6 F030  55   1.0
  108  108 F #6 F012  56   1.0

    IRREDUCIBLE REPRESENTATION NUMBER 2

  109    1 C #1 Z     59   1.0
  110    2 C #1 Z     60   1.0
  111    3 C #1 Z     65  -3.0  70  -3.0  72   2.0
  112    4 C #1 XZ    67   1.0
  113    5 C #1 XZ    65   1.0  70  -1.0
  114    6 C #1 YZ    80   1.0
  115    7 C #1 YZ    81   1.0
  116    8 C #1 F201  84   1.0
  117    9 C #1 F111  86   1.0
  118   10 C #1 F021  95   1.0
  119   11 C #1 F003  96   1.0
  120   12 C #2 Z     99   1.0
  121   13 C #2 Z    101   1.0
  122   14 C #2 Z    110   1.0
  123   15 C #2 XZ   111   1.0
  124   16 C #2 XZ   114   1.0
  125   17 C #2 YZ   116   1.0
  126   18 C #2 YZ   129   1.0
  127   19 C #2 F201 130   1.0
  128   20 C #2 F111 131   1.0
  129   21 C #2 F021 136   1.0
  130   22 C #2 F003 137   1.0
  131   23 H #3 Z    140   1.0
  132   24 H #3 Z    141   1.0
  133   25 H #3 XZ   146  -3.0 151  -3.0 153   2.0
  134   26 H #3 YZ   148   1.0
  135   27 H #4 Z    146   1.0 151  -1.0
  136   28 H #4 Z   
  137   29 H #4 XZ  
  138   30 H #4 YZ  
  139   31 H #5 Z   
  140   32 H #5 Z   
  141   33 H #5 XZ  
  142   34 H #5 YZ  
  143   35 F #6 Z   
  144   36 F #6 Z   
  145   37 F #6 Z   
  146   38 F #6 XZ  
  147   39 F #6 XZ  
  148   40 F #6 YZ  
  149   41 F #6 YZ  
  150   42 F #6 F201
  151   43 F #6 F111
  152   44 F #6 F021
  153   45 F #6 F003

NUCLEAR REPULSION ENERGY:   67.6564638086 A.U.

One-electron integrals took 0.168155 seconds

  @TWOEL-I,    9630741 INTEGRALS OF SYMMETRY TYPE  I I I I
  @TWOEL-I,    7324762 INTEGRALS OF SYMMETRY TYPE  I J I J
  @TWOEL-I,    3822601 INTEGRALS OF SYMMETRY TYPE  I I J J
  @TWOEL-I, TOTAL NUMBER OF 2-E INTEGRALS   20778104

Two-electron integrals took 37.273386 seconds

Nuclear repulsion energy: 67.656463808614
--executable xvmol finished with status     0 in       40.96 seconds (walltime).
 --invoking executable--
/project1/nike/cfour_v2.00beta_May2019xnmol_noLABBASIS/bin/xvmol2ja
--executable xvmol2ja finished with status     0 in        0.04 seconds (walltime).
 --invoking executable--
/project1/nike/cfour_v2.00beta_May2019xnmol_noLABBASIS/bin/xvscf
  There are  135 functions in the AO basis.

  There are 2 irreducible representations.

       Irrep        # of functions
         1                 93
         2                 42


  Parameters for SCF calculation: 
        SCF reference function: ROHF  
  Maximum number of iterations: ****
     Full symmetry point group: C s 
     Computational point group: C s 
        Initial density matrix: CORE                   
     SCF convergence tolerance: 10**(-12)
  DIIS convergence acceleration:  ON
          Latest start for DIIS:   5
                     DIIS order:   6

  Memory information:     931229 words required.
  Fock matrices are constructed from AO integral file.
 @GETMEM-I,  Allocated       7 MB of main memory.
  Initialization and symmetry analysis required      0.003 seconds.

  @INITGES-I, Occupancies from core Hamiltonian:

          Alpha population by irrep:  10    2
           Beta population by irrep:   9    2


 total no. of electrons in initial guess :  0.000000000000000E+000
 total no. of electrons in initial guess :  0.000000000000000E+000
  --------------------------------------------------------------------
  Iteration         Total Energy            Largest Density Difference
  --------------------------------------------------------------------
       0            67.656463808613651              0.0000000000D+00
   current occupation vector 
    10  2
     9  2
  processed                9630741  ao basis integrals from 
                 16052  buffers.
  processed                3822601  ao basis integrals from 
                  6372  buffers.
  processed                7324762  ao basis integrals from 
                 12208  buffers.
       1          -147.058728330830661              0.2437430397D+01
   current occupation vector 
    10  2
     9  2
  processed                9630741  ao basis integrals from 
                 16052  buffers.
  processed                3822601  ao basis integrals from 
                  6372  buffers.
  processed                7324762  ao basis integrals from 
                 12208  buffers.
       2          -131.185028696765016              0.1034220979D+02
   current occupation vector 
    10  2
     9  2
  processed                9630741  ao basis integrals from 
                 16052  buffers.
  processed                3822601  ao basis integrals from 
                  6372  buffers.
  processed                7324762  ao basis integrals from 
                 12208  buffers.
       3          -142.273826193107084              0.1053380793D+02
   current occupation vector 
    10  2
     9  2
  processed                9630741  ao basis integrals from 
                 16052  buffers.
  processed                3822601  ao basis integrals from 
                  6372  buffers.
  processed                7324762  ao basis integrals from 
                 12208  buffers.
       4          -126.442021866393716              0.4305416717D+01
   current occupation vector 
    10  2
     9  2
 
 sum over diagonal and offdiagdiagonal of C(T)*S*C for irrep
                     1
  1.692201934133664E-012 -1.749935031302726E-013
 reorthoganalization of MOs is carried out
 sum over diagonal and offdiagdiagonal of C(T)*S*C for irrep
                     1
 -3.477218513125990E-013  2.321076821706459E-013
 
 sum over diagonal and offdiagdiagonal of C(T)*S*C for irrep
                     2
  5.251354906476990E-014 -2.061071626970691E-013
 reorthoganalization of MOs is carried out
 sum over diagonal and offdiagdiagonal of C(T)*S*C for irrep
                     2
  3.219646771412954E-015  1.465494498384325E-014
  processed                9630741  ao basis integrals from 
                 16052  buffers.
  processed                3822601  ao basis integrals from 
                  6372  buffers.
  processed                7324762  ao basis integrals from 
                 12208  buffers.
       5          -135.595818334002274              0.4738888351D+01
   current occupation vector 
     9  3
     9  2
  processed                9630741  ao basis integrals from 
                 16052  buffers.
  processed                3822601  ao basis integrals from 
                  6372  buffers.
  processed                7324762  ao basis integrals from 
                 12208  buffers.
       6          -161.887100738340905              0.1377118016D+01
   current occupation vector 
    10  2
     9  2
  processed                9630741  ao basis integrals from 
                 16052  buffers.
  processed                3822601  ao basis integrals from 
                  6372  buffers.
  processed                7324762  ao basis integrals from 
                 12208  buffers.
       7          -170.426639632134027              0.1542037568D+01
   current occupation vector 
    10  2
     9  2
  processed                9630741  ao basis integrals from 
                 16052  buffers.
  processed                3822601  ao basis integrals from 
                  6372  buffers.
  processed                7324762  ao basis integrals from 
                 12208  buffers.
       8          -175.129739633422560              0.3845804465D+00
   current occupation vector 
    10  2
     9  2
  processed                9630741  ao basis integrals from 
                 16052  buffers.
  processed                3822601  ao basis integrals from 
                  6372  buffers.
  processed                7324762  ao basis integrals from 
                 12208  buffers.
       9          -176.509550591006587              0.1920333359D+00
   current occupation vector 
    10  2
    10  1
 
 sum over diagonal and offdiagdiagonal of C(T)*S*C for irrep
                     1
  1.698641227676490E-013 -2.255313564015326E-012
 reorthoganalization of MOs is carried out
 sum over diagonal and offdiagdiagonal of C(T)*S*C for irrep
                     1
 -2.022826350867035E-013  5.689410333188936E-013
 
 sum over diagonal and offdiagdiagonal of C(T)*S*C for irrep
                     2
  2.052802372531914E-013  8.313410940055649E-015
 reorthoganalization of MOs is carried out
 sum over diagonal and offdiagdiagonal of C(T)*S*C for irrep
                     2
  3.774758283725532E-015 -4.882978103554573E-015
  processed                9630741  ao basis integrals from 
                 16052  buffers.
  processed                3822601  ao basis integrals from 
                  6372  buffers.
  processed                7324762  ao basis integrals from 
                 12208  buffers.
      10          -176.587642156402012              0.4973810795D-01
   current occupation vector 
    10  2
    10  1
  processed                9630741  ao basis integrals from 
                 16052  buffers.
  processed                3822601  ao basis integrals from 
                  6372  buffers.
  processed                7324762  ao basis integrals from 
                 12208  buffers.
      11          -176.610653350195321              0.1873127504D-01
   current occupation vector 
    10  2
    10  1
  processed                9630741  ao basis integrals from 
                 16052  buffers.
  processed                3822601  ao basis integrals from 
                  6372  buffers.
  processed                7324762  ao basis integrals from 
                 12208  buffers.
      12          -176.620104071466528              0.2132296985D-01
   current occupation vector 
    10  2
    10  1
  processed                9630741  ao basis integrals from 
                 16052  buffers.
  processed                3822601  ao basis integrals from 
                  6372  buffers.
  processed                7324762  ao basis integrals from 
                 12208  buffers.
      13          -176.622311106415225              0.8303192032D-02
   current occupation vector 
    10  2
    10  1
  processed                9630741  ao basis integrals from 
                 16052  buffers.
  processed                3822601  ao basis integrals from 
                  6372  buffers.
  processed                7324762  ao basis integrals from 
                 12208  buffers.
      14          -176.622636767480003              0.4877432557D-02
   current occupation vector 
    10  2
    10  1
 
 sum over diagonal and offdiagdiagonal of C(T)*S*C for irrep
                     1
  5.168088179630104E-013  2.547585819428691E-012
 reorthoganalization of MOs is carried out
 sum over diagonal and offdiagdiagonal of C(T)*S*C for irrep
                     1
 -3.121947145245940E-013 -1.397636286336604E-012
 
 sum over diagonal and offdiagdiagonal of C(T)*S*C for irrep
                     2
  9.225953334635051E-014  6.081212102115183E-014
 reorthoganalization of MOs is carried out
 sum over diagonal and offdiagdiagonal of C(T)*S*C for irrep
                     2
  1.110223024625157E-015  3.200189709930473E-015
  processed                9630741  ao basis integrals from 
                 16052  buffers.
  processed                3822601  ao basis integrals from 
                  6372  buffers.
  processed                7324762  ao basis integrals from 
                 12208  buffers.
      15          -176.622658568810380              0.1104154363D-02
   current occupation vector 
    10  2
    10  1
  processed                9630741  ao basis integrals from 
                 16052  buffers.
  processed                3822601  ao basis integrals from 
                  6372  buffers.
  processed                7324762  ao basis integrals from 
                 12208  buffers.
      16          -176.622661042957475              0.5280712555D-03
   current occupation vector 
    10  2
    10  1
  processed                9630741  ao basis integrals from 
                 16052  buffers.
  processed                3822601  ao basis integrals from 
                  6372  buffers.
  processed                7324762  ao basis integrals from 
                 12208  buffers.
      17          -176.622661354258526              0.1284718087D-03
   current occupation vector 
    10  2
    10  1
  processed                9630741  ao basis integrals from 
                 16052  buffers.
  processed                3822601  ao basis integrals from 
                  6372  buffers.
  processed                7324762  ao basis integrals from 
                 12208  buffers.
      18          -176.622661420066152              0.9553948518D-04
   current occupation vector 
    10  2
    10  1
  processed                9630741  ao basis integrals from 
                 16052  buffers.
  processed                3822601  ao basis integrals from 
                  6372  buffers.
  processed                7324762  ao basis integrals from 
                 12208  buffers.
      19          -176.622661425946148              0.3238217144D-04
   current occupation vector 
    10  2
    10  1
 
 sum over diagonal and offdiagdiagonal of C(T)*S*C for irrep
                     1
 -4.902744876744691E-013 -2.342512073432924E-012
 reorthoganalization of MOs is carried out
 sum over diagonal and offdiagdiagonal of C(T)*S*C for irrep
                     1
  4.837241718291807E-013  1.889257647954365E-012
 
 sum over diagonal and offdiagdiagonal of C(T)*S*C for irrep
                     2
  1.811883976188255E-013 -4.417019247799828E-014
 reorthoganalization of MOs is carried out
 sum over diagonal and offdiagdiagonal of C(T)*S*C for irrep
                     2
 -4.440892098500626E-015 -9.269708875580369E-016
  processed                9630741  ao basis integrals from 
                 16052  buffers.
  processed                3822601  ao basis integrals from 
                  6372  buffers.
  processed                7324762  ao basis integrals from 
                 12208  buffers.
      20          -176.622661426074387              0.3816415712D-05
   current occupation vector 
    10  2
    10  1
  processed                9630741  ao basis integrals from 
                 16052  buffers.
  processed                3822601  ao basis integrals from 
                  6372  buffers.
  processed                7324762  ao basis integrals from 
                 12208  buffers.
      21          -176.622661426076832              0.5300515955D-06
   current occupation vector 
    10  2
    10  1
  processed                9630741  ao basis integrals from 
                 16052  buffers.
  processed                3822601  ao basis integrals from 
                  6372  buffers.
  processed                7324762  ao basis integrals from 
                 12208  buffers.
      22          -176.622661426080469              0.6193299279D-07
   current occupation vector 
    10  2
    10  1
  processed                9630741  ao basis integrals from 
                 16052  buffers.
  processed                3822601  ao basis integrals from 
                  6372  buffers.
  processed                7324762  ao basis integrals from 
                 12208  buffers.
      23          -176.622661426078480              0.1697869058D-07
   current occupation vector 
    10  2
    10  1
  processed                9630741  ao basis integrals from 
                 16052  buffers.
  processed                3822601  ao basis integrals from 
                  6372  buffers.
  processed                7324762  ao basis integrals from 
                 12208  buffers.
      24          -176.622661426077968              0.1461616324D-07
   current occupation vector 
    10  2
    10  1
 
 sum over diagonal and offdiagdiagonal of C(T)*S*C for irrep
                     1
  8.704148513061227E-013  1.368281512798989E-012
 reorthoganalization of MOs is carried out
 sum over diagonal and offdiagdiagonal of C(T)*S*C for irrep
                     1
 -2.108313523763172E-013 -3.216845121270802E-013
 
 sum over diagonal and offdiagdiagonal of C(T)*S*C for irrep
                     2
  8.992806499463768E-014 -6.919844609379512E-014
 reorthoganalization of MOs is carried out
 sum over diagonal and offdiagdiagonal of C(T)*S*C for irrep
                     2
  7.771561172376096E-016 -3.167218052486093E-015
  processed                9630741  ao basis integrals from 
                 16052  buffers.
  processed                3822601  ao basis integrals from 
                  6372  buffers.
  processed                7324762  ao basis integrals from 
                 12208  buffers.
      25          -176.622661426077116              0.5747260348D-08
   current occupation vector 
    10  2
    10  1
  processed                9630741  ao basis integrals from 
                 16052  buffers.
  processed                3822601  ao basis integrals from 
                  6372  buffers.
  processed                7324762  ao basis integrals from 
                 12208  buffers.
      26          -176.622661426078025              0.1905543237D-08
   current occupation vector 
    10  2
    10  1
  processed                9630741  ao basis integrals from 
                 16052  buffers.
  processed                3822601  ao basis integrals from 
                  6372  buffers.
  processed                7324762  ao basis integrals from 
                 12208  buffers.
      27          -176.622661426078366              0.5981541512D-09
   current occupation vector 
    10  2
    10  1
[...]
[  8   5  93  17]-0.00770 [  3   2  93  92]-0.00713 [  8   5  92  19] 0.00679
[  8   7  92  11] 0.00678 [  8   4  93  17] 0.00676 [  8   7  92  19] 0.00647
-----------------------------------------------------------------------------
   Norm of T2BB vector (   112504 symmetry allowed elements):  0.1096687746.
-----------------------------------------------------------------------------
   Largest T2 amplitudes for spin case AB:
       _       _                 _       _                 _       _
   i   j   a   b             i   j   a   b             i   j   a   b
-----------------------------------------------------------------------------
[  8   8  93  92] 0.02549 [  3   2  93  92]-0.02214 [  8   8  93  93]-0.02193
[  9   5  93  21] 0.02087 [  8   8  98  92] 0.01894 [  3   3  93  93]-0.01836
[  8   8  98  98]-0.01734 [  9   2  93  21]-0.01729 [  5   8  18  92] 0.01526
[  5   5  22  21]-0.01409 [  9   7  93  21]-0.01394 [  9   8  98  92]-0.01370
[  2   3  93  92]-0.01366 [  9   8  93  93]-0.01338 [  2   2  93  93]-0.01288
-----------------------------------------------------------------------------
   Norm of T2AB vector (   576162 symmetry allowed elements):  0.3461267570.
-----------------------------------------------------------------------------
  W(mnij) AA contribution =  0.0080859802 a.u.
  W(mnij) BB contribution =  0.0064149450 a.u.
  W(mnij) AB contribution =  0.0814785422 a.u.
  W(abef) AA contribution =  0.0103275233 a.u.
  W(abef) BB contribution =  0.0076468027 a.u.
  W(abef) AB contribution =  0.1072609079 a.u.
  W(mbej) AA contribution =  -0.0175918177 a.u.
  W(mbej) BB contribution =  -0.0116100712 a.u.
  W(mbej) AB contribution = -0.2514276827 a.u.
   After  21 iterations, amplitude changes are:
    -------------------------------------------------------------------
                 Spin      RMS          Max.      Max. change for
     Amplitude   Case     Change       Change       i    j    a    b
    -------------------------------------------------------------------
        T1        AA    0.0000000000-0.0000000089    9        93
        T1        BB    0.0000000000 0.0000000095    8        92
        T2        AA    0.0000000000 0.0000000005    9    7   93   11
        T2        BB    0.0000000000-0.0000000002    8    3   92   10
        T2        AB    0.0000000000-0.0000000010    8    8   93   92
    -------------------------------------------------------------------
   The AA contribution to the correlation energy is:   -0.0669011 a.u.
   The BB contribution to the correlation energy is:   -0.0509645 a.u.
   The AB contribution to the correlation energy is:   -0.4296403 a.u.
   The total correlation energy is -0.547505837287 a.u.
   The total correlation energy is -0.547505837287 a.u.
  Current DIIS expansion coefficients : 
 [   1] 1.1036837943 [   2] 0.0130632499 [   3]-0.0131358635 [   4]-0.1958769382
 [   5] 0.0922657575
  Convergence information after    21 iterations: 
  Largest element of residual vector :  0.95110207E-08.
  Largest element of DIIS residual   :  0.24394751E-08.
  W(mnij) AA contribution =  0.0080859801 a.u.
  W(mnij) BB contribution =  0.0064149452 a.u.
  W(mnij) AB contribution =  0.0814785420 a.u.
  W(abef) AA contribution =  0.0103275232 a.u.
  W(abef) BB contribution =  0.0076468029 a.u.
  W(abef) AB contribution =  0.1072609078 a.u.
  W(mbej) AA contribution =  -0.0175918177 a.u.
  W(mbej) BB contribution =  -0.0116100716 a.u.
  W(mbej) AB contribution = -0.2514276821 a.u.
   After  22 iterations, amplitude changes are:
    -------------------------------------------------------------------
                 Spin      RMS          Max.      Max. change for
     Amplitude   Case     Change       Change       i    j    a    b
    -------------------------------------------------------------------
        T1        AA    0.0000000000-0.0000000014    9        93
        T1        BB    0.0000000000 0.0000000008    8        92
        T2        AA    0.0000000000 0.0000000003    9    7   93   11
        T2        BB    0.0000000000 0.0000000001    8    3   92   17
        T2        AB    0.0000000000-0.0000000008    8    8   93   92
    -------------------------------------------------------------------
   The AA contribution to the correlation energy is:   -0.0669011 a.u.
   The BB contribution to the correlation energy is:   -0.0509645 a.u.
   The AB contribution to the correlation energy is:   -0.4296403 a.u.
   The total correlation energy is -0.547505837609 a.u.
   The total correlation energy is -0.547505837609 a.u.
  Current DIIS expansion coefficients : 
 [   1]-0.1268367298 [   2] 1.1299302916 [   3] 0.0010494513 [   4] 0.0054544187
 [   5]-0.0095974317
  Convergence information after    22 iterations: 
  Largest element of residual vector : -0.14049468E-08.
  Largest element of DIIS residual   : -0.84224058E-09.
  W(mnij) AA contribution =  0.0080859801 a.u.
  W(mnij) BB contribution =  0.0064149452 a.u.
  W(mnij) AB contribution =  0.0814785421 a.u.
  W(abef) AA contribution =  0.0103275232 a.u.
  W(abef) BB contribution =  0.0076468029 a.u.
  W(abef) AB contribution =  0.1072609079 a.u.
  W(mbej) AA contribution =  -0.0175918177 a.u.
  W(mbej) BB contribution =  -0.0116100717 a.u.
  W(mbej) AB contribution = -0.2514276823 a.u.
   After  23 iterations, amplitude changes are:
    -------------------------------------------------------------------
                 Spin      RMS          Max.      Max. change for
     Amplitude   Case     Change       Change       i    j    a    b
    -------------------------------------------------------------------
        T1        AA    0.0000000000 0.0000000008    8        93
        T1        BB    0.0000000000-0.0000000002    6         9
        T2        AA    0.0000000000 0.0000000001    9    7   93   11
        T2        BB    0.0000000000 0.0000000000    8    7   92    9
        T2        AB    0.0000000000-0.0000000003    9    8   93   92
    -------------------------------------------------------------------
   The AA contribution to the correlation energy is:   -0.0669011 a.u.
   The BB contribution to the correlation energy is:   -0.0509645 a.u.
   The AB contribution to the correlation energy is:   -0.4296403 a.u.
   The total correlation energy is -0.547505837649 a.u.
   The total correlation energy is -0.547505837649 a.u.
  Current DIIS expansion coefficients : 
 [   1]-0.2981736124 [   2] 0.0603372386 [   3] 1.1919507365 [   4] 0.0348843200
 [   5] 0.0110013172
  Convergence information after    23 iterations: 
  Largest element of residual vector :  0.78773506E-09.
  Largest element of DIIS residual   :  0.53420662E-09.
  Amplitude equations converged in    23iterations.
   The AA contribution to the correlation energy is:   -0.0669011 a.u.
   The BB contribution to the correlation energy is:   -0.0509645 a.u.
   The AB contribution to the correlation energy is:   -0.4296403 a.u.
   The total correlation energy is -0.547505837660 a.u.
   The total correlation energy is -0.547505837660 a.u.
   The CC iterations have converged.

            ----------------------------------------------
                     Projected spin multiplicities: 
            ----------------------------------------------
             <0|S^2|0>                  =    0.7500000000.
             <0|S^2 (T2+T1**2) |0>      =    0.0000000000.
             <0|S^2 T1|0>               =    0.0000000000.
             Projected <0|S^2 exp(T)|0> =    0.7500000000.
             Approximate spin mult.     =    2.0000000000.
            ----------------------------------------------
   Largest T1 amplitudes for spin case AA:
   i       a                 i       a                 i       a    
-----------------------------------------------------------------------------
[  8      93    ]-0.02718 [  9      93    ] 0.01517 [  4      16    ] 0.00965
[  2      21    ] 0.00885 [  2      14    ]-0.00812 [  5      11    ] 0.00810
[  3      12    ] 0.00805 [  9     104    ] 0.00777 [  4      10    ] 0.00764
[  3      20    ] 0.00746 [  9      97    ] 0.00734 [  3      17    ] 0.00729
[  5      21    ] 0.00717 [  3      21    ] 0.00715 [  9      98    ]-0.00703
-----------------------------------------------------------------------------
   Norm of T1AA vector (      661 symmetry allowed elements):  0.0565879741.
-----------------------------------------------------------------------------
   Largest T2 amplitudes for spin case AA:
   i   j   a   b             i   j   a   b             i   j   a   b
-----------------------------------------------------------------------------
[  9   5  93  22] 0.01841 [  9   7  93  22]-0.01138 [  9   5  93  17] 0.01131
[  9   6  93  16]-0.01070 [  9   7  93  17]-0.00989 [  9   6  93  22]-0.00986
[  9   2  93  22]-0.00977 [  9   6  93  12]-0.00876 [  9   5  95  22] 0.00789
[  9   3  93  10]-0.00773 [  8   5  93  18]-0.00771 [  9   6  96  21]-0.00771
[  9   2  93  33]-0.00769 [  9   4  93  23] 0.00763 [  9   6  93  14] 0.00736
-----------------------------------------------------------------------------
   Norm of T2AA vector (   138506 symmetry allowed elements):  0.1291907933.
-----------------------------------------------------------------------------
   Largest T1 amplitudes for spin case BB:
   i       a                 i       a                 i       a    
-----------------------------------------------------------------------------
[  8      92    ] 0.11460 [  8      93    ]-0.03857 [  8      94    ] 0.01172
[  8      95    ]-0.01040 [  8      96    ]-0.00957 [  8      98    ]-0.00948
[  4      15    ] 0.00761 [  2      20    ]-0.00663 [  8      99    ]-0.00650
[  2      25    ] 0.00594 [  3      10    ]-0.00569 [  2      14    ] 0.00548
[  7       9    ] 0.00500 [  5      25    ]-0.00496 [  8     104    ] 0.00462
-----------------------------------------------------------------------------
   Norm of T1BB vector (      622 symmetry allowed elements):  0.1271869142.
-----------------------------------------------------------------------------
   Largest T2 amplitudes for spin case BB:
   i   j   a   b             i   j   a   b             i   j   a   b
-----------------------------------------------------------------------------
[  8   5  92  17] 0.01393 [  8   6  92  15]-0.01136 [  8   4  92  17]-0.01111
[  8   5  92  11] 0.01048 [  8   4  92  11]-0.00905 [  8   4  92  15]-0.00868
[  8   3  92  17]-0.00845 [  8   7  92  17] 0.00822 [  8   5  92  10]-0.00804
[  8   5  93  17]-0.00770 [  3   2  93  92]-0.00713 [  8   5  92  19] 0.00679
[  8   7  92  11] 0.00678 [  8   4  93  17] 0.00676 [  8   7  92  19] 0.00647
-----------------------------------------------------------------------------
   Norm of T2BB vector (   112504 symmetry allowed elements):  0.1096687766.
-----------------------------------------------------------------------------
   Largest T2 amplitudes for spin case AB:
       _       _                 _       _                 _       _
   i   j   a   b             i   j   a   b             i   j   a   b
-----------------------------------------------------------------------------
[  8   8  93  92] 0.02549 [  3   2  93  92]-0.02214 [  8   8  93  93]-0.02193
[  9   5  93  21] 0.02087 [  8   8  98  92] 0.01894 [  3   3  93  93]-0.01836
[  8   8  98  98]-0.01734 [  9   2  93  21]-0.01729 [  5   8  18  92] 0.01526
[  5   5  22  21]-0.01409 [  9   7  93  21]-0.01394 [  9   8  98  92]-0.01370
[  2   3  93  92]-0.01366 [  9   8  93  93]-0.01338 [  2   2  93  93]-0.01288
-----------------------------------------------------------------------------
   Norm of T2AB vector (   576162 symmetry allowed elements):  0.3461267568.
-----------------------------------------------------------------------------
       Summary of iterative solution of CC equations 
      -----------------------------------------------------------
                       Correlation           Total
       Iteration         Energy              Energy
      -----------------------------------------------------------
            0        -0.522314643105    -177.144976069184  DIIS 
            1        -0.530418932266    -177.153080358344  DIIS 
            2        -0.544958350086    -177.167619776164  DIIS 
            3        -0.544608288242    -177.167269714320  DIIS 
            4        -0.546469303163    -177.169130729241  DIIS 
            5        -0.547264833643    -177.169926259722  DIIS 
            6        -0.547441985303    -177.170103411381  DIIS 
            7        -0.547494992170    -177.170156418248  DIIS 
            8        -0.547496431198    -177.170157857277  DIIS 
            9        -0.547498332866    -177.170159758944  DIIS 
           10        -0.547501737941    -177.170163164019  DIIS 
           11        -0.547504376174    -177.170165802253  DIIS 
           12        -0.547505080525    -177.170166506603  DIIS 
           13        -0.547505398127    -177.170166824205  DIIS 
           14        -0.547505447008    -177.170166873086  DIIS 
           15        -0.547505617300    -177.170167043378  DIIS 
           16        -0.547505728017    -177.170167154095  DIIS 
           17        -0.547505812404    -177.170167238482  DIIS 
           18        -0.547505827323    -177.170167253401  DIIS 
           19        -0.547505834841    -177.170167260919  DIIS 
           20        -0.547505837887    -177.170167263965  DIIS 
           21        -0.547505837287    -177.170167263365  DIIS 
           22        -0.547505837609    -177.170167263687  DIIS 
           23        -0.547505837660    -177.170167263738  DIIS 
      -----------------------------------------------------------
      A miracle has come to pass. The CC iterations have converged.
 @DIMT3-I, Dimensions of T3 amplitudes : 
               # abc          # ijk       Symmetry    Spin 
                   156621             42     1          1
                   146000             42     2          1
                   483309            168     1          2
                   447063            120     2          2
                   486629            161     1          3
                   451369             91     2          3
                   159941             35     1          4
                   150183             21     2          4
 @DIMT3-I, Dimensions of T3 amplitudes : 
               # abc          # ijk       Symmetry    Spin 
                   156621             42     1          1
                   146000             42     2          1
                   483309            168     1          2
                   447063            120     2          2
                   486629            161     1          3
                   451369             91     2          3
                   159941             35     1          4
                   150183             21     2          4
 @TRPS-I, Welcome to TRPS. Watch your RUs ! 
 @TRPS-I, Method is CCSD(T) 
 @TRPS-I, Calculation type is energy 
 @TRPS-I, Reference function information : 
          Reference function is general non-HF 
 @TRPS-I, Reference function is ROHF 
 @TRPS-I, INT1 is true 
 @TRPS-I, INT2 is false 
 @TRPS-I, Lengths of ijka integrals. #1      20786
                                     #2      15652
                                     #3      39294
                                     #4      43326
                                    Max      43326
 @INITRP-I, Initializing W intermediate lists. 
 @TSPABCI-I, AbIc/AbcI record transposition. 
 @TSPABCI-I, (O,v) ---> (v,O) transposition. 
 @TSPABCI-I, In-core algorithm is being used. 
 @TSPABCI-I, In-core algorithm is being used. 
 @TRPS-I, Available memory in integer words    499959040
          Number of pre-allocated words for TRPS14       130210
          Number of free words for TRPS14    499828830
 @TRPS14-I, Spin case AAA 
 @TRPS14-I, Number of free integer words  499828830
            Number of free double words   499828830
            Ratio                                 1
 @TRPS14-I, E4TAAA      -0.000654170865
 @TRPS14-I, E5ST A    0.000041235137762
 @TRPS14-I, E4ST A    0.000000359311980
 @TRPS-I, Available memory in integer words    499959040
          Number of pre-allocated words for TRPS14       130202
          Number of free words for TRPS14    499828838
 @TRPS14-I, Spin case BBB 
 @TRPS14-I, Number of free integer words  499828838
            Number of free double words   499828838
            Ratio                                 1
 @TRPS14-I, E4TBBB      -0.000534170919
 @TRPS14-I, E5ST B    0.000122707071814
 @TRPS14-I, E4ST B    0.000000638893098
 @SETOOOV-I, Some OOOV lists are being transposed. 
 @TRPS-I, Available memory in integer words    499959040
          Number of pre-allocated words for TRPS2       336727
          Number of free words for TRPS2    499622313
 @TRPS2-I, Spin case AAB 
 @TRPS2-I, Number of free integer words  499622313
           Number of free double  words  499622313
           Ratio                                 1
 @TRPS2-I, E4TBAA      -0.010552094083
 @TRPS2-I, E5ST A    0.000352218185544
 @TRPS2-I, E5ST B    0.000579730901878
 @TRPS2-I, E4ST A   -0.000003403470255
 @TRPS2-I, E4ST B   -0.000005022928949
 @SETOOOV-I, Some OOOV lists are being transposed. 
 @TSPABCI2-I, (Alpha,Beta) ---> (Beta,Alpha). 
 @TSPABCI2-I, In-core algorithm is being used. 
 @TSPABCI2-I, In-core algorithm is being used. 
 @TSPABCI2-I, In-core algorithm is being used. 
 @TSPABCI2-I, In-core algorithm is being used. 
 @AT2IAB-I, Some AbIj lists are being altered. 
 @TRPS-I, Available memory in integer words    499959040
          Number of pre-allocated words for TRPS3       857355
          Number of free words for TRPS3    499101685
 @TRPS3-I, Spin case BBA 
 @TRPS3-I, Number of free integer words  499101685
           Number of free double  words  499101685
           Ratio                                 1
 @TRPS3-I, E4TBBA      -0.009219372170
 @TRPS3-I, E5ST A    0.000504460716793
 @TRPS3-I, E5ST B    0.001530664213817
 @TRPS3-I, E4ST A   -0.000003335151659
 @TRPS3-I, E4ST B   -0.000008970754201
 @TSPABCI2-I, (Beta,Alpha) ---> (Alpha,Beta). 
 @TSPABCI2-I, In-core algorithm is being used. 
 @TSPABCI2-I, In-core algorithm is being used. 
 @TSPABCI2-I, In-core algorithm is being used. 
 @TSPABCI2-I, In-core algorithm is being used. 
 @AT2IAB-I, Some AbIj lists are being altered. 
 @TSPABCI-I, AbIc/AbcI record transposition. 
 @TSPABCI-I, (v,O) ---> (O,v) transposition. 
 @TSPABCI-I, In-core algorithm is being used. 
 @TSPABCI-I, In-core algorithm is being used. 
 @CCENRG-I, CCSD/QCISD energy will now be evaluated. 
 @CCENRG-I, Correlation energies. ECCAA       -0.066901054306
                                  ECCBB       -0.050964456387
                                  ECCAB       -0.429640326967
                                  Total       -0.547505837660
 @CCENRG-I, Reference   energy    -176.622661426078
            CCSD/QCISD energy     -177.170167263738
          E4T (T(CCSD)) = -0.020959808037
          E5ST          =  0.002035124931
          E4ST          = -0.000012305906
          In other words  
          <T3[2](Dagger) D3  T3[2]> = -0.020959808037
          <T1   (Dagger) Q1 WT3[2]> =  0.002035124931
          <T2   (Dagger) Q2 FT3[2]> = -0.000012305906
        E(CCSD)           =    -177.170167263738
        E(CCSD(T))        =    -177.189104252750
  @CHECKOUT-I, Total execution time (CPU/WALL):     2061.07/    2216.62 seconds.
--executable xvcc finished with status     0 in     2222.19 seconds (walltime).
  The final electronic energy is      -177.189104252749814 a.u. 
  This computation required                         2710.81 seconds (walltime).
--- SharcNET Job Epilogue ---
Job completed successfully.
               jobid: 1963901
               resid: 3433373
         exit status: 0
      allocated time: 2711.88
           user time: 2284.84
         system time: 117.7
peak rss=3195658240; peak vsz=3195658240 (bytes)
atime=2711.88; utime=2284.84; stime=117.7; exit=0
