 --invoking executable--
/cvmfs/restricted.computecanada.ca/easybuild/software/2020/avx2/Compiler/intel2020/cfour/2.1/bin/xjoda


   *************************************************************************
         <<<     CCCCCC     CCCCCC   |||     CCCCCC     CCCCCC   >>>
       <<<      CCC        CCC       |||    CCC        CCC         >>>
      <<<      CCC        CCC        |||   CCC        CCC            >>>
    <<<        CCC        CCC        |||   CCC        CCC              >>>
      <<<      CCC        CCC        |||   CCC        CCC            >>>
       <<<      CCC        CCC       |||    CCC        CCC         >>>
         <<<     CCCCCC     CCCCCC   |||     CCCCCC     CCCCCC   >>>
   *************************************************************************

     ****************************************************************
     * CFOUR Coupled-Cluster techniques for Computational Chemistry *
     ****************************************************************
 

   Department of Chemistry                Institut fuer Physikalische Chemie
   University of Florida                  Universitaet Mainz
   Gainesville, FL 32611, USA             D-55099 Mainz, Germany

   Department of Chemistry                Fakultaet fuer Chemie und Biowiss.
   Johns Hopkins University               Karlsruher Institut fuer Technologie
   Baltimore, MD 21218, USA               D-76131 Karlsruhe, Germany

   Department of Chemistry                Department of Physical Chemistry
   Southern Methodist University          Eotvos Lorand University
   Dallas, TX 75275, USA                  H-1053 Budapest, Hungary

 
                       Version 2.1
 
                     gra108                                            
                     Sat 16 Mar 2024 07:57:29 PM EDT                   
                     integer*8 version is running
 
********************************************************************************
*                          Input from ZMAT file                                *
********************************************************************************
Test                                                                            
N                                                                               
                                                                                
*ACES2(CALC=CCSD(T)                                                             
#FROZEN_CORE=ON                                                                 
#DROPMO=1                                                                       
#INPUT_MRCC=OFF                                                                 
#CC_PROG=MRCC                                                                   
XFORM_TOL=18                                                                    
SAVE_INTS=ON                                                                    
SCF_EXPORDER=6                                                                  
SCF_EXPSTART=5                                                                  
#SCF_DAMPING=1000                                                               
SCF_EXTRAPOLATION=ON                                                            
SCF_CONV=10                                                                     
SCF_MAXCYC=9999                                                                 
CC_CONV=10                                                                      
CC_MAXCYC=999                                                                   
T3_EXTRAPOL=ON                                                                  
REFERENCE=ROHF                                                                  
CHARGE=+0                                                                       
MULT=4                                                                          
ABCDTYPE=STANDARD                                                               
OCCUPATION=2-1-1-0-0-0-0-0/2-0-0-0-0-0-0-0                                      
MEM=30                                                                          
MEM_UNIT=GB                                                                     
BASIS=SPECIAL)                                                                  
                                                                                
N:aCV5Z-EMSL                                                                    
                                                                                
********************************************************************************
  @GTFLGS-W, Keyword #FROZEN_CORE not known and is ignored.
  @GTFLGS-W, Keyword #DROPMO not known and is ignored.
  @GTFLGS-W, Keyword #INPUT_MRCC not known and is ignored.
  @GTFLGS-W, Keyword #CC_PROG not known and is ignored.
  @GTFLGS-W, Keyword #SCF_DAMPING not known and is ignored.
    -------------------------------------------------------------------
                    CFOUR Control Parameters 
    -------------------------------------------------------------------
        External           Internal           Value            Units
          Name               Name
    -------------------------------------------------------------------
       ABCDTYPE             IABCDT         STANDARD    [  0]    ***   
       ANHARMONIC           IANHAR         OFF         [  0]    ***   
       ANH_ALGORIT          IANALG         STANDARD    [  0]    ***   
       ANH_DERIVAT          IANDER         SECOND      [  1]    ***   
       ANH_MODE             ANHMOD         VIBRATION   [  0]    ***   
       ANH_STEPSIZ          ICUBST             50000          x 10-6  
       ANH_SYMMETR          IANHSM         ABELIAN     [  0]    ***   
       AO_LADDERS           IAOLAD         SINGLEPASS  [  1]    ***   
       AV_SCF               IAVSCF         OFF         [  0]    ***   
       BASIS                IBASIS         SPECIAL     [  0]    ***   
       BOTHVECTORS          BOTHVC         OFF         [  0]    ***   
       BOX_POTENT           IPIAB          OFF         [  0]    ***   
       BREIT                IBREIT         OFF         [  0]    ***   
       BRUCK_CONV           IBRTOL          10D-  4             ***   
       BRUECKNER            IBRKNR         OFF         [  0]    ***   
       BUFFERSIZE           IBUFFS              4096            ***   
       CACHE_RECS           ICHREC             10               ***   
       CALCLEVEL            ICLLVL         CCSD(T)     [ 22]    ***   
       CCORBOPT             ICCORB         OFF         [  0]  x 0.01  
       CC_CONV              ICCCNV          10D- 10             ***   
       CC_EXPORDER          ICCEOR              5               ***   
       CC_EXTRAPOL          ICCEXT         DIIS        [  1]    ***   
       CC_GUESS             ICCGES         MP2         [  0]    ***   
       CC_MAXCYC            ICCCYC            999              cycles 
       CC_PROGRAM           ICCPRO         VCC         [  0]    ***   
       CHARGE               ICHRGE              0               ***   
       CHOLESKY             ICHOLE         OFF         [  0]    ***   
       CIS_CONV             ICISTL              5               ***   
       COMM_SIZE            IPSIZE            ***               ***   
       CONSTANT             ICONST         OLD         [  1]    ***   
       CONTINUUM            ICONTU         NONE        [  0]    ***   
       CONTRACTION          ICNTYP         GENERAL     [  1]    ***   
       COORDINATES          ICOORD         INTERNAL    [  0]    ***   
       CPHF_CONVER          ICPHFT          10D- 16             ***   
       CPHF_MAXCYC          ICPHFC             64              cycles 
       CUBIC                ICUBIC         OFF         [  0]    ***   
       CURVILINEAR          ICURVY         OFF         [  0]    ***   
       DBOC                 IDBOC          OFF         [  0]    ***   
       DCT                  IDCT           OFF         [  0]    ***   
       DERIV_LEV            IDRLVL         ZERO        [  0]    ***   
       DEVMEM_SIZE          IDVMEM         *********           MByte  
       DIAG_MRCC            IEOMST          10D-  0             ***   
       DIFF_TYPE            IDIFTY         RELAXED     [  0]    ***   
       DIRECT               IDIRCT         OFF         [  0]    ***   
       DROPMO               IDRPMO      NONE         
       ECP                  IECP           OFF         [  0]    ***   
       EIGENVECTOR          IVEC                1               ***   
       EL_ANHARM            IELANH         OFF         [  0]    ***   
       EOMFOLLOW            IEOMSR         ENERGY      [  0]    ***   
       EOMIP                IEOMIP         OFF         [  0]    ***   
       EOMLEVEL             HBARFM         SAME        [  0]    ***   
       EOM_MRCC             IMRCCE         NEW         [  1]    ***   
       EOM_NONIT            EOMNON         OFF         [  0]    ***   
       EOM_NSING            IEOMSI          10D-  0             ***   
       EOM_NSTATES          IMRCCD         DAVIDSON    [  0]    ***   
       EOM_NTRIP            IEOMTR          10D-  0             ***   
       EOM_ORDER            IEXORD         ENERGY      [  0]    ***   
       EOM_PROPSTA          IEOMST              0               ***   
       ESTATE_CONV          IEXTOL          10D-  5             ***   
       ESTATE_DIAG          IEXDIG         ITERATIVE   [  0]    ***   
       ESTATE_LOCK          IESLOC         ON          [  1]    ***   
       ESTATE_MAXC          IEXMXC             40               ***   
       ESTATE_PROP          IEXPRP         OFF         [  0]    ***   
       EVAL_HESS            IRECAL              0            # of cyc.
       EXCITATION           IEXCIT              0               ***   
       EXCITE               IEXCIT         NONE        [  0]    ***   
       EXTERN_POT           IEXPOT         OFF         [  0]    ***   
       FCGRADNEW            IFCGNW         OFF         [  0]    ***   
       FC_FIELD             IFINFC              0             x 10-6  
       FD_CALTYPE           IFDCAL         GRADONLY    [  0]    ***   
       FD_PROJECT           IFDPRJ         OFF         [  1]    ***   
       FD_STEPSIZE          IDISFD              0            10-4 bohr
       FD_USEGROUP          IFDGRP         FULL        [  0]    ***   
       FILE_RECSIZ          IFLREC              4096           words  
       FINITE_PERT          IFIPER              0             x 10-6  
       FIXGEOM              IFIXGM         OFF         [  0]    ***   
       FOCK                 IFOCK          AO          [  1]    ***   
       FREQ_ALGORI          IVIALG         STANDARD    [  0]    ***   
       FROZEN_CORE          IFROCO         OFF         [  0]    ***   
       GAMMA_ABCD           IGABCD         STORE       [  0]    ***   
       GAMMA_ABCI           IGABCI         STORE       [  0]    ***   
       GENBAS_1             IGNBS1              0               ***   
       GENBAS_2             IGNBS2              0               ***   
       GENBAS_3             IGNBS3              0               ***   
       GENBAS_4             IGNBS4              0               ***   
       GEO_CONV             ICONTL              5              H/bohr 
       GEO_MAXCYC           IOPTCY             50               ***   
       GEO_MAXSTEP          IMXSTP            300            millibohr
       GEO_METHOD           INR            SINGLE_POINT[  5]    ***   
       GIAO                 IGIAO          OFF         [  1]    ***   
       GIMIC                IGIMIC         OFF         [  0]    ***   
       GRID                 IGRID          OFF         [  0]    ***   
       GRID_ALGO            IGALGO         SERIAL      [  0]    ***   
       GUESS                IGUESS         MOREAD      [  0]    ***   
       HBAR                 IHBAR          OFF         [  0]    ***   
       HESS_TYPE            IHESTP         SCF         [  0]    ***   
       HF2_FILE             IHF2Fl         USE         [  1]    ***   
       HFSTABILITY          ISTABL         OFF         [  0]    ***   
       INCORE               INCORE         OFF         [  0]    ***   
       INPUT_MRCC           IMRCC          ON          [  1]    ***   
       INTEGRALS            INTTYP         VMOL        [  1]    ***   
       JODA_PRINT           IJPRNT              0               ***   
       KEYWORD_OUT          IDMPKW         NO          [  0]    ***   
       LINDEP_TOL           ILINDP              8               ***   
       LINEQ_CONV           IZTACN          10D-  7           cycles  
       LINEQ_EXPOR          ILMAXD              5               ***   
       LINEQ_MAXCY          ILMAXC            100               ***   
       LINEQ_TYPE           ILTYPE         DIIS        [  1]    ***   
       LOCK_ORBOCC          ILOCOC         OFF         [  0]    ***   
       MEMORY_SIZE          IMEMSZ         *********           words  
       MEM_UNIT             IMEMU          GB          [  3]    ***   
       MRCC                 IMRCCC         OFF         [  0]    ***   
       MULTIPLICTY          IMULTP              4               ***   
       NACOUPLING           IVCOUP         OFF         [  0]    ***   
       NEGEVAL              IDIE           ABORT       [  0]    ***   
       NEWNORM              INEWNO         OFF         [  0]    ***   
       NON-HF               INONHF         ON          [  1]    ***   
       NTOP_TAMP            ITOPT2             15               ***   
       NUC_MODEL            INUCMO         POINT       [  0]    ***   
       OCCUPATION           IOCCU  A   2,  1,  1,  0,  0,  0,  0,  0,
                                   B   2,  0,  0,  0,  0,  0,  0,  0,
       OPEN-SHELL           IOPEN          SPIN-ORBITAL[  0]    ***   
       OPTVIB               IOPTVB         OFF         [  0]    ***   
       ORBITALS             IORBTP         SEMICANONICA[  1]    ***   
       PARALLEL             IPARAL         ON          [  1]    ***   
       PARA_INT             IPINTS         ON          [  1]    ***   
       PARA_PRINT           IPPRIN              0               ***   
       PERT_ORB             IPTORB         STANDARD    [  0]    ***   
       POINTS               IGRDFD              0               ***   
       PRINT                IPRNT               0               ***   
       PROPS                IPROPS         OFF         [  0]    ***   
       PROP_INTEGR          IINTYP         INTERNAL    [  0]    ***   
       PSI                  IPSI           OFF         [  0]    ***   
       QC_ALG               IQCALG         FLM         [  0]    ***   
       QC_LINALG            IQCLIN         TRIDIAG     [  2]    ***   
       QC_MAXCYC            IQCMAX          10D-100           cycles  
       QC_MAXSCFCY          IQCMSC          10D- 15           cycles  
       QC_RTRUST            IQCRTR          10D-  0           x 10-3  
       QC_SKIPSCF           IQCSKI         OFF         [  0]    ***   
       QC_START             IQCSTA          10D-  1             ***   
       QRHFGUESS            IQGUES         OFF         [  0]    ***   
       QUARTIC              IQUART         OFF         [  0]    ***   
       RAMAN_INT            IRAMIN         OFF         [  0]    ***   
       RAMAN_ORB            IRAMRE         UNRELAXED   [  0]    ***   
       RDO                  IRDOFM         OFF         [  0]    ***   
       REDUCE_REPR          REDREP         Ir          [  0]    ***   
       REFERENCE            IREFNC         ROHF        [  2]    ***   
       RELATIVIST           IRELAT         OFF         [  0]    ***   
       RELAX_DENS           IRDENS         OFF         [  0]    ***   
       RESET_FLAGS          IRESET         OFF         [  0]    ***   
       RESTART_CC           ICCRES         OFF         [  0]    ***   
       ROT_EVEC             ROTVEC              0               ***   
       SAVE_INTS            ISVINT         ON          [  1]    ***   
       SCALE_ON             ISTCRT              0               ***   
       SCF_CONV             ISCFCV          10D- 10             ***   
       SCF_DAMPING          IDAMP               0             x 10-3  
       SCF_EXPORDE          IRPPOR              6               ***   
       SCF_EXPSTAR          IRPPLS              5               ***   
       SCF_EXTRAPO          IRPP           ON          [  1]    ***   
       SCF_MAXCYC           ISCFCY            ***              cycles 
       SCF_NOSTOP           ISCFST         OFF         [  0]    ***   
       SCF_PRINT            ISCFPR              0               ***   
       SCF_PROG             ISCFPR         SCF         [  0]    ***   
       SD_FIELD             IFINSD              0             x 10-6  
       SOPERT               IPERSO         OFF         [  0]    ***   
       SPHERICAL            IDFGHI         ON          [  1]    ***   
       SPINORBIT            ISOCAL         OFF         [  0]    ***   
       SPINROTATIO          ISRCON         OFF         [  0]    ***   
       SPIN_FLIP            ISPFLP         OFF         [  0]    ***   
       SPIN_ORBIT           ISPORB         OFF         [  0]    ***   
       SPIN_SCAL            ISCSMP         OFF         [  0]    ***   
       STEEPSCALE           ISTPSC              1000          x 10-3  
       SUBGROUP             ISUBGP         DEFAULT     [  0]    ***   
       SUBGRPAXIS           ISBXYZ         X           [  0]    ***   
       SYMMETRY             ISYM           ON          [  0]    ***   
       SYM_CHECK            ISYMCK         OVERRIDE    [  1]    ***   
       T3_EXTRAPOL          IT3EXT         ON          [  1]    ***   
       T4_EXTRAPOL          IT4EXP         OFF         [  0]    ***   
       TAMP_SUM             IEVERY              5               ***   
       TESTSUITE            ITESTS         OFF         [  0]    ***   
       THERMOCH             ITHERM         OFF         [  0]    ***   
       TOL_CHOLESK          ITOLCH          10D-  4             ***   
       TRANGRAD             IRESRM         OFF         [  0]    ***   
       TRANS_INV            ITRAIN         USE         [  0]    ***   
       TREAT_PERT           ITREAT         SIMULTANEOUS[  0]    ***   
       TRIP_ALGORI          ITRALG         NORMAL      [  0]    ***   
       UIJ_THRESHO          IUIJTH              1               ***   
       UNITS                IUNITS         ANGSTROM    [  0]    ***   
       UNOS                 IUNOS          OFF         [  0]    ***   
       UPDATE_HESS          IHUPDT         ON          [  1]    ***   
       VIBPHASE             ISETPH         STANDARD    [  0]    ***   
       VIBRATION            IVIB           NO          [  0]    ***   
       VIB_ALGORIT          IGEALG         STANDARD    [  0]    ***   
       VNATORB              IVNORB         OFF         [  0]    ***   
       VTRAN                IVTRAN         FULL/PARTIAL[  0]    ***   
       XFIELD               IXEFLD              0             x 10-6  
       XFORM_TOL            IXFTOL          10D- 18             ***   
       YFIELD               IYEFLD              0             x 10-6  
       ZFIELD               IZEFLD              0             x 10-6  
       ZSCALE_EXP           IZEXPS         OFF         [  0]    ***   
    -------------------------------------------------------------------
   1 entries found in Z-matrix 
   Job Title : Test                                                                            
   Rotational constants (in cm-1): 

   Rotational constants (in MHz): 

********************************************************************************
   The full molecular point group is I h .
   The largest Abelian subgroup of the full molecular point group is D2h .
   The computational point group is D2h .
********************************************************************************
  ECPDATA file not present.   Using default ECPDATA. 
  @GTFLGS-W, Keyword #FROZEN_CORE not known and is ignored.
  @GTFLGS-W, Keyword #DROPMO not known and is ignored.
  @GTFLGS-W, Keyword #INPUT_MRCC not known and is ignored.
  @GTFLGS-W, Keyword #CC_PROG not known and is ignored.
  @GTFLGS-W, Keyword #SCF_DAMPING not known and is ignored.
  There are  181 basis functions.
 @GEOPT-W, Archive file not created for single-point calculation.
 @CHECKOUT-I, Total execution time (CPU/WALL):        0.17/      51.70 seconds.
--executable xjoda finished with status     0 in       51.73 seconds (walltime).
 --invoking executable--
/cvmfs/restricted.computecanada.ca/easybuild/software/2020/avx2/Compiler/intel2020/cfour/2.1/bin/xvmol
 SERIAL VERSION OF MOLECULE STARTED
********************************************************************************
                    INPUT FROM MOL FILE
********************************************************************************
INTGRL        1    0    1    0    0    0    0    0    0                         
         *** CFOUR Program System (Release V0.1) ***                            
Test                                                                            
    1    3 X  Y   Z   0.10E-08              0    0                              
   9999.00      3.00                                                            
          7.00000000    1    6    1    1    1    1    1    1                    
N #1   0.000000000000000   0.000000000000000   0.000000000000000                
   19   11                                                                      
   129200.000000000       2.500000000000000E-005 -6.000000000000000E-006        
  0.000000000000000E+000  0.000000000000000E+000  0.000000000000000E+000        
  0.000000000000000E+000  0.000000000000000E+000  0.000000000000000E+000        
  0.000000000000000E+000  0.000000000000000E+000  0.000000000000000E+000        
   19350.0000000000       1.970000000000000E-004 -4.300000000000000E-005        
  0.000000000000000E+000  0.000000000000000E+000  0.000000000000000E+000        
  0.000000000000000E+000  0.000000000000000E+000  0.000000000000000E+000        
  0.000000000000000E+000  0.000000000000000E+000  0.000000000000000E+000        
   4404.00000000000       1.032000000000000E-003 -2.270000000000000E-004        
  0.000000000000000E+000  0.000000000000000E+000  0.000000000000000E+000        
  0.000000000000000E+000  0.000000000000000E+000  0.000000000000000E+000        
  0.000000000000000E+000  0.000000000000000E+000  0.000000000000000E+000        
   1248.00000000000       4.325000000000000E-003 -9.580000000000000E-004        
  0.000000000000000E+000  0.000000000000000E+000  0.000000000000000E+000        
  0.000000000000000E+000  0.000000000000000E+000  0.000000000000000E+000        
  0.000000000000000E+000  0.000000000000000E+000  0.000000000000000E+000        
   408.000000000000       1.538000000000000E-002 -3.416000000000000E-003        
  0.000000000000000E+000  0.000000000000000E+000  0.000000000000000E+000        
  0.000000000000000E+000  0.000000000000000E+000  0.000000000000000E+000        
  0.000000000000000E+000  0.000000000000000E+000  0.000000000000000E+000        
   148.200000000000       4.686700000000000E-002 -1.066700000000000E-002        
  0.000000000000000E+000  0.000000000000000E+000  0.000000000000000E+000        
  0.000000000000000E+000  0.000000000000000E+000  0.000000000000000E+000        
  0.000000000000000E+000  0.000000000000000E+000  0.000000000000000E+000        
   58.5000000000000       0.120116000000000      -2.827900000000000E-002        
  0.000000000000000E+000  0.000000000000000E+000  0.000000000000000E+000        
  0.000000000000000E+000  0.000000000000000E+000  0.000000000000000E+000        
  0.000000000000000E+000  0.000000000000000E+000  0.000000000000000E+000        
   24.5900000000000       0.245695000000000      -6.401999999999999E-002        
  0.000000000000000E+000  0.000000000000000E+000  0.000000000000000E+000        
  0.000000000000000E+000  0.000000000000000E+000  0.000000000000000E+000        
  0.000000000000000E+000  0.000000000000000E+000  0.000000000000000E+000        
   10.8100000000000       0.361379000000000      -0.113932000000000             
  0.000000000000000E+000  0.000000000000000E+000  0.000000000000000E+000        
  0.000000000000000E+000  0.000000000000000E+000  0.000000000000000E+000        
  0.000000000000000E+000  0.000000000000000E+000  0.000000000000000E+000        
   4.88200000000000       0.287283000000000      -0.146995000000000             
  0.000000000000000E+000  0.000000000000000E+000  0.000000000000000E+000        
  0.000000000000000E+000  0.000000000000000E+000  0.000000000000000E+000        
  0.000000000000000E+000  0.000000000000000E+000  0.000000000000000E+000        
   2.19500000000000       7.017100000000000E-002 -7.251000000000000E-003        
   1.00000000000000       0.000000000000000E+000  0.000000000000000E+000        
  0.000000000000000E+000  0.000000000000000E+000  0.000000000000000E+000        
  0.000000000000000E+000  0.000000000000000E+000  0.000000000000000E+000        
  0.871500000000000       1.831000000000000E-003  0.366183000000000             
  0.000000000000000E+000   1.00000000000000       0.000000000000000E+000        
  0.000000000000000E+000  0.000000000000000E+000  0.000000000000000E+000        
  0.000000000000000E+000  0.000000000000000E+000  0.000000000000000E+000        
  0.350400000000000       8.350000000000000E-004  0.547908000000000             
  0.000000000000000E+000  0.000000000000000E+000   1.00000000000000             
  0.000000000000000E+000  0.000000000000000E+000  0.000000000000000E+000        
  0.000000000000000E+000  0.000000000000000E+000  0.000000000000000E+000        
  0.139700000000000      -6.000000000000000E-006  0.216645000000000             
  0.000000000000000E+000  0.000000000000000E+000  0.000000000000000E+000        
   1.00000000000000       0.000000000000000E+000  0.000000000000000E+000        
  0.000000000000000E+000  0.000000000000000E+000  0.000000000000000E+000        
   12.2750000000000       0.000000000000000E+000  0.000000000000000E+000        
  0.000000000000000E+000  0.000000000000000E+000  0.000000000000000E+000        
  0.000000000000000E+000   1.00000000000000       0.000000000000000E+000        
  0.000000000000000E+000  0.000000000000000E+000  0.000000000000000E+000        
   27.8270000000000       0.000000000000000E+000  0.000000000000000E+000        
  0.000000000000000E+000  0.000000000000000E+000  0.000000000000000E+000        
  0.000000000000000E+000  0.000000000000000E+000   1.00000000000000             
  0.000000000000000E+000  0.000000000000000E+000  0.000000000000000E+000        
   63.0850000000000       0.000000000000000E+000  0.000000000000000E+000        
  0.000000000000000E+000  0.000000000000000E+000  0.000000000000000E+000        
  0.000000000000000E+000  0.000000000000000E+000  0.000000000000000E+000        
   1.00000000000000       0.000000000000000E+000  0.000000000000000E+000        
   143.013000000000       0.000000000000000E+000  0.000000000000000E+000        
  0.000000000000000E+000  0.000000000000000E+000  0.000000000000000E+000        
  0.000000000000000E+000  0.000000000000000E+000  0.000000000000000E+000        
  0.000000000000000E+000   1.00000000000000       0.000000000000000E+000        
  5.180000000000000E-002  0.000000000000000E+000  0.000000000000000E+000        
  0.000000000000000E+000  0.000000000000000E+000  0.000000000000000E+000        
  0.000000000000000E+000  0.000000000000000E+000  0.000000000000000E+000        
  0.000000000000000E+000  0.000000000000000E+000   1.00000000000000             
   13   10                                                                      
   147.000000000000       8.920000000000000E-004  0.000000000000000E+000        
  0.000000000000000E+000  0.000000000000000E+000  0.000000000000000E+000        
  0.000000000000000E+000  0.000000000000000E+000  0.000000000000000E+000        
  0.000000000000000E+000  0.000000000000000E+000                                
   34.7600000000000       7.082000000000000E-003  0.000000000000000E+000        
  0.000000000000000E+000  0.000000000000000E+000  0.000000000000000E+000        
  0.000000000000000E+000  0.000000000000000E+000  0.000000000000000E+000        
  0.000000000000000E+000  0.000000000000000E+000                                
   11.0000000000000       3.281600000000000E-002  0.000000000000000E+000        
  0.000000000000000E+000  0.000000000000000E+000  0.000000000000000E+000        
  0.000000000000000E+000  0.000000000000000E+000  0.000000000000000E+000        
  0.000000000000000E+000  0.000000000000000E+000                                
   3.99500000000000       0.108209000000000       0.000000000000000E+000        
  0.000000000000000E+000  0.000000000000000E+000  0.000000000000000E+000        
  0.000000000000000E+000  0.000000000000000E+000  0.000000000000000E+000        
  0.000000000000000E+000  0.000000000000000E+000                                
   1.58700000000000       0.248094000000000        1.00000000000000             
  0.000000000000000E+000  0.000000000000000E+000  0.000000000000000E+000        
  0.000000000000000E+000  0.000000000000000E+000  0.000000000000000E+000        
  0.000000000000000E+000  0.000000000000000E+000                                
  0.653300000000000       0.374513000000000       0.000000000000000E+000        
   1.00000000000000       0.000000000000000E+000  0.000000000000000E+000        
  0.000000000000000E+000  0.000000000000000E+000  0.000000000000000E+000        
  0.000000000000000E+000  0.000000000000000E+000                                
  0.268600000000000       0.348414000000000       0.000000000000000E+000        
  0.000000000000000E+000   1.00000000000000       0.000000000000000E+000        
  0.000000000000000E+000  0.000000000000000E+000  0.000000000000000E+000        
  0.000000000000000E+000  0.000000000000000E+000                                
  0.106700000000000       0.128340000000000       0.000000000000000E+000        
  0.000000000000000E+000  0.000000000000000E+000   1.00000000000000             
  0.000000000000000E+000  0.000000000000000E+000  0.000000000000000E+000        
  0.000000000000000E+000  0.000000000000000E+000                                
   10.7600000000000       0.000000000000000E+000  0.000000000000000E+000        
  0.000000000000000E+000  0.000000000000000E+000  0.000000000000000E+000        
   1.00000000000000       0.000000000000000E+000  0.000000000000000E+000        
  0.000000000000000E+000  0.000000000000000E+000                                
   27.1800000000000       0.000000000000000E+000  0.000000000000000E+000        
  0.000000000000000E+000  0.000000000000000E+000  0.000000000000000E+000        
  0.000000000000000E+000   1.00000000000000       0.000000000000000E+000        
  0.000000000000000E+000  0.000000000000000E+000                                
   68.6560000000000       0.000000000000000E+000  0.000000000000000E+000        
  0.000000000000000E+000  0.000000000000000E+000  0.000000000000000E+000        
  0.000000000000000E+000  0.000000000000000E+000   1.00000000000000             
  0.000000000000000E+000  0.000000000000000E+000                                
   173.425000000000       0.000000000000000E+000  0.000000000000000E+000        
  0.000000000000000E+000  0.000000000000000E+000  0.000000000000000E+000        
  0.000000000000000E+000  0.000000000000000E+000  0.000000000000000E+000        
   1.00000000000000       0.000000000000000E+000                                
  3.690000000000000E-002  0.000000000000000E+000  0.000000000000000E+000        
  0.000000000000000E+000  0.000000000000000E+000  0.000000000000000E+000        
  0.000000000000000E+000  0.000000000000000E+000  0.000000000000000E+000        
  0.000000000000000E+000   1.00000000000000                                     
    8    8                                                                      
   4.64700000000000        1.00000000000000       0.000000000000000E+000        
  0.000000000000000E+000  0.000000000000000E+000  0.000000000000000E+000        
  0.000000000000000E+000  0.000000000000000E+000  0.000000000000000E+000        
   1.81300000000000       0.000000000000000E+000   1.00000000000000             
  0.000000000000000E+000  0.000000000000000E+000  0.000000000000000E+000        
  0.000000000000000E+000  0.000000000000000E+000  0.000000000000000E+000        
  0.707000000000000       0.000000000000000E+000  0.000000000000000E+000        
   1.00000000000000       0.000000000000000E+000  0.000000000000000E+000        
  0.000000000000000E+000  0.000000000000000E+000  0.000000000000000E+000        
  0.276000000000000       0.000000000000000E+000  0.000000000000000E+000        
  0.000000000000000E+000   1.00000000000000       0.000000000000000E+000        
  0.000000000000000E+000  0.000000000000000E+000  0.000000000000000E+000        
   14.0530000000000       0.000000000000000E+000  0.000000000000000E+000        
  0.000000000000000E+000  0.000000000000000E+000   1.00000000000000             
  0.000000000000000E+000  0.000000000000000E+000  0.000000000000000E+000        
   39.0810000000000       0.000000000000000E+000  0.000000000000000E+000        
  0.000000000000000E+000  0.000000000000000E+000  0.000000000000000E+000        
   1.00000000000000       0.000000000000000E+000  0.000000000000000E+000        
   108.685000000000       0.000000000000000E+000  0.000000000000000E+000        
  0.000000000000000E+000  0.000000000000000E+000  0.000000000000000E+000        
  0.000000000000000E+000   1.00000000000000       0.000000000000000E+000        
  9.710000000000001E-002  0.000000000000000E+000  0.000000000000000E+000        
  0.000000000000000E+000  0.000000000000000E+000  0.000000000000000E+000        
  0.000000000000000E+000  0.000000000000000E+000   1.00000000000000             
    6    6                                                                      
   2.94200000000000        1.00000000000000       0.000000000000000E+000        
  0.000000000000000E+000  0.000000000000000E+000  0.000000000000000E+000        
  0.000000000000000E+000                                                        
   1.20400000000000       0.000000000000000E+000   1.00000000000000             
  0.000000000000000E+000  0.000000000000000E+000  0.000000000000000E+000        
  0.000000000000000E+000                                                        
  0.493000000000000       0.000000000000000E+000  0.000000000000000E+000        
   1.00000000000000       0.000000000000000E+000  0.000000000000000E+000        
  0.000000000000000E+000                                                        
   14.3570000000000       0.000000000000000E+000  0.000000000000000E+000        
  0.000000000000000E+000   1.00000000000000       0.000000000000000E+000        
  0.000000000000000E+000                                                        
   52.6900000000000       0.000000000000000E+000  0.000000000000000E+000        
  0.000000000000000E+000  0.000000000000000E+000   1.00000000000000             
  0.000000000000000E+000                                                        
  0.192000000000000       0.000000000000000E+000  0.000000000000000E+000        
  0.000000000000000E+000  0.000000000000000E+000  0.000000000000000E+000        
   1.00000000000000                                                             
    4    4                                                                      
   2.51100000000000        1.00000000000000       0.000000000000000E+000        
  0.000000000000000E+000  0.000000000000000E+000                                
  0.942000000000000       0.000000000000000E+000   1.00000000000000             
  0.000000000000000E+000  0.000000000000000E+000                                
   41.1200000000000       0.000000000000000E+000  0.000000000000000E+000        
   1.00000000000000       0.000000000000000E+000                                
  0.436000000000000       0.000000000000000E+000  0.000000000000000E+000        
  0.000000000000000E+000   1.00000000000000                                     
    2    2                                                                      
   1.76800000000000        1.00000000000000       0.000000000000000E+000        
  0.788000000000000       0.000000000000000E+000   1.00000000000000             
FINISH                                                                          
 
********************************************************************************
 ONE- AND TWO-ELECTRON INTEGRALS OVER SYMMETRY-ADAPTED AOS ARE CALCULATED.

  SPHERICAL HARMONICS ARE USED.
  
  INTEGRALS LESS THAN  0.10E-13 ARE NEGLECTED.

  NUCLEAR REPULSION ENERGY :    0.0000000000 A.U.
  @MOLECU-I, ONE ELECTRON INTEGRALS (CPU/WALL):        0.08/       0.08 SECONDS.
  @TWOEL-I,     354701 INTEGRALS OF SYMMETRY TYPE  I I I I
  @TWOEL-I,    3162072 INTEGRALS OF SYMMETRY TYPE  I J I J
  @TWOEL-I,    1814712 INTEGRALS OF SYMMETRY TYPE  I I J J
  @TWOEL-I,    7384599 INTEGRALS OF SYMMETRY TYPE  I J K L
  @TWOEL-I, TOTAL NUMBER OF 2-E INTEGRALS   12716084.
  @MOLECU-I, TWO ELECTRON INTEGRALS (CPU/WALL):       26.48/      26.50 SECONDS.
 @CHECKOUT-I, Total execution time (CPU/WALL):       26.59/      26.66 seconds.

OMP_NUM_THREADS not specified; defaulting to 1
Running with 1 threads/proc

--executable xvmol finished with status     0 in       26.70 seconds (walltime).
 --invoking executable--
/cvmfs/restricted.computecanada.ca/easybuild/software/2020/avx2/Compiler/intel2020/cfour/2.1/bin/xvmol2ja
 @GETMEM-I,  Allocated   28610 MB of main memory.
 @CHECKOUT-I, Total execution time (CPU/WALL):        0.03/       0.03 seconds.
--executable xvmol2ja finished with status     0 in        0.07 seconds (walltime).
 --invoking executable--
/cvmfs/restricted.computecanada.ca/easybuild/software/2020/avx2/Compiler/intel2020/cfour/2.1/bin/xvscf
  There are  181 functions in the AO basis.

  There are 8 irreducible representations.

       Irrep        # of functions
         1                 39
         2                 28
         3                 28
         4                 16
         5                 28
         6                 16
         7                 16
         8                 10


  Parameters for SCF calculation: 
        SCF reference function: ROHF  
  Maximum number of iterations: 9999
     Full symmetry point group: I h 
     Computational point group: D2h 
        Initial density matrix: MOREAD                 
     SCF convergence tolerance: 10**(-10)
  DIIS convergence acceleration:  ON
          Latest start for DIIS:   5
                     DIIS order:   6

     Alpha population by irrep:   2    1    1    0    0    0    0    0
      Beta population by irrep:   2    0    0    0    0    0    0    0


  Memory information:    2018302 words required.
  Fock matrices are constructed from AO integral file.
 @GETMEM-I,  Allocated      15 MB of main memory.
  Initialization and symmetry analysis required      0.003 seconds.

 total no. of electrons in initial guess :  0.000000000000000E+000
 total no. of electrons in initial guess :  0.000000000000000E+000
  --------------------------------------------------------------------
  Iteration         Total Energy            Largest Density Difference
  --------------------------------------------------------------------
       0             0.000000000000000              0.0000000000D+00
   current occupation vector 
     2  1  1  0  0  0  0  0
     2  0  0  0  0  0  0  0
       1           -50.667758489924175              0.1074926886D+02
   current occupation vector 
     2  1  1  0  0  0  0  0
     2  0  0  0  0  0  0  0
       2           -52.795026044422009              0.1054871248D+02
   current occupation vector 
     2  1  1  0  0  0  0  0
     2  0  0  0  0  0  0  0
       3           -53.852313310572029              0.1348217052D+01
   current occupation vector 
     2  1  1  0  0  0  0  0
     2  0  0  0  0  0  0  0
       4           -53.887151513985110              0.3676364921D+00
   current occupation vector 
     2  1  1  0  0  0  0  0
     2  0  0  0  0  0  0  0
       5           -53.887957980622978              0.6417680904D-01
   current occupation vector 
     2  1  1  0  0  0  0  0
     2  0  0  0  0  0  0  0
       6           -53.887988969944416              0.8359880180D-02
   current occupation vector 
     2  1  1  0  0  0  0  0
     2  0  0  0  0  0  0  0
       7           -53.887990976353336              0.2266693081D-02
   current occupation vector 
     2  1  1  0  0  0  0  0
     2  0  0  0  0  0  0  0
       8           -53.887991205238215              0.5070588914D-03
   current occupation vector 
     2  1  1  0  0  0  0  0
     2  0  0  0  0  0  0  0
       9           -53.887991206704285              0.2873490426D-04
   current occupation vector 
     2  1  1  0  0  0  0  0
     2  0  0  0  0  0  0  0
      10           -53.887991206723420              0.4856480990D-05
   current occupation vector 
     2  1  1  0  0  0  0  0
     2  0  0  0  0  0  0  0
      11           -53.887991206723783              0.5417368680D-06
   current occupation vector 
     2  1  1  0  0  0  0  0
     2  0  0  0  0  0  0  0
      12           -53.887991206724060              0.1704244501D-07
   current occupation vector 
     2  1  1  0  0  0  0  0
     2  0  0  0  0  0  0  0
      13           -53.887991206724067              0.1720557240D-08
   current occupation vector 
     2  1  1  0  0  0  0  0
     2  0  0  0  0  0  0  0
      14           -53.887991206724060              0.2522581727D-09
   current occupation vector 
     2  1  1  0  0  0  0  0
     2  0  0  0  0  0  0  0
      15           -53.887991206723832              0.2174334302D-09
   current occupation vector 
     2  1  1  0  0  0  0  0
     2  0  0  0  0  0  0  0
      16           -53.887991206723875              0.1176581055D-09
   current occupation vector 
     2  1  1  0  0  0  0  0
     2  0  0  0  0  0  0  0
      17           -53.887991206723953              0.1358619883D-09
   current occupation vector 
     2  1  1  0  0  0  0  0
     2  0  0  0  0  0  0  0

  SCF has converged.

 Density matrix saved to file den.dat
 total alpha spin electron number:   4.00000000000001     
 total  beta spin electron number:   2.00000000000000     
     E(ROHF)=       -53.887991206723889              0.4495537471D-10

  Eigenvector printing suppressed.


       The average multiplicity is    3.0000000
  The expectation value of S**2 is    2.0000000

 @PUTMOS-I, Writing converged MOs to NEWMOS. 
 @PUTMOS-I, Symmetry   1 Full Blocks  9 Partial Blocksize   3
 @PUTMOS-I, Symmetry   2 Full Blocks  7 Partial Blocksize   0
 @PUTMOS-I, Symmetry   3 Full Blocks  7 Partial Blocksize   0
 @PUTMOS-I, Symmetry   4 Full Blocks  4 Partial Blocksize   0
 @PUTMOS-I, Symmetry   5 Full Blocks  7 Partial Blocksize   0
 @PUTMOS-I, Symmetry   6 Full Blocks  4 Partial Blocksize   0
 @PUTMOS-I, Symmetry   7 Full Blocks  4 Partial Blocksize   0
 @PUTMOS-I, Symmetry   8 Full Blocks  2 Partial Blocksize   2
 @PUTFOCK-I, Writing converged Fock matrix to NEWFOCK. 
 @PUTFOCK-I, Symmetry   1 Full Blocks  9 Partial Blocksize   3
 @PUTFOCK-I, Symmetry   2 Full Blocks  7 Partial Blocksize   0
 @PUTFOCK-I, Symmetry   3 Full Blocks  7 Partial Blocksize   0
 @PUTFOCK-I, Symmetry   4 Full Blocks  4 Partial Blocksize   0
 @PUTFOCK-I, Symmetry   5 Full Blocks  7 Partial Blocksize   0
 @PUTFOCK-I, Symmetry   6 Full Blocks  4 Partial Blocksize   0
 @PUTFOCK-I, Symmetry   7 Full Blocks  4 Partial Blocksize   0
 @PUTFOCK-I, Symmetry   8 Full Blocks  2 Partial Blocksize   2
  @DMPJOB-I, Rotating orbitals to semicanonical basis.
             *** Eigenvalues correspond to new basis. ***

  @PRJDEN-I, Basis set contains h and/or higher angular momentum functions.
             Analysis of density matrix symmetry not available.
             Check irreps of the molecular orbitals in the full point group
             for presence of an asymmetric solution.

 
  ORBITAL EIGENVALUES (ALPHA)  (1H = 27.2113834 eV)

       MO #        E(hartree)               E(eV)           FULLSYM    COMPSYM
       ----   --------------------   --------------------   -------   ---------
    1     1         -16.3207634201        -444.1105508055      Ag        Ag (1)
    2     2          -1.6128489339         -43.8878507072      Ag        Ag (1)
    3    40          -1.1101361597         -30.2083406676       u       B2u (2)
    4    68          -1.1101361597         -30.2083406676       u       B3u (3)
  +++++++++++++++++++++++++++++++++++++++++++++++++++++++++++++++++++++++++++++
    5   112          -0.4673105705         -12.7161670998      Au       B1u (5)
    6     3          -0.1326558387          -3.6097488859      Ag        Ag (1)
    7    41          -0.0907269663          -2.4688062640       u       B2u (2)
    8    69          -0.0907269663          -2.4688062640       u       B3u (3)
    9   113          -0.0847300785          -2.3056226528      Au       B1u (5)
   10     4           0.0542657890           1.4766471886      Ag        Ag (1)
   11   140           0.0550598121           1.4982536571       g       B3g (6)
   12   156           0.0550598121           1.4982536571       g       B2g (7)
   13     5           0.0577403597           1.5711950651       g        Ag (1)
   14    96           0.0577403597           1.5711950651       g       B1g (4)
   15    42           0.1317420237           3.5848827178       u       B2u (2)
   16    70           0.1317420237           3.5848827178       u       B3u (3)
   17   114           0.1532569919           4.1703347665      Au       B1u (5)
   18     6           0.2513357950           6.8391946789      Ag        Ag (1)
   19   115           0.4924171854          13.3993528247      Au       B1u (5)
   20    71           0.4935498190          13.4301733518       u       B3u (3)
   21    43           0.4935498190          13.4301733518       u       B2u (2)
   22   116           0.4969793537          13.5234957356       u       B1u (5)
   23   172           0.4969793537          13.5234957356       u        Au (8)
   24    44           0.5027867872          13.6815240354       u       B2u (2)
   25    72           0.5027867872          13.6815240354       u       B3u (3)
   26     7           0.5811306967          15.8133701943       g        Ag (1)
   27    97           0.5811306967          15.8133701943       g       B1g (4)
   28   141           0.5867347070          15.9658630670       g       B3g (6)
   29   157           0.5867347070          15.9658630670       g       B2g (7)
   30     8           0.5888842485          16.0243550653      Ag        Ag (1)
   31    45           0.9171301449          24.9563800011       u       B2u (2)
   32    73           0.9171301449          24.9563800011       u       B3u (3)
   33   117           0.9547150034          25.9791159942      Au       B1u (5)
   34     9           1.7147476684          46.6606562382      Ag        Ag (1)
   35    10           1.7791384003          48.4128171323      Ag        Ag (1)
   36   142           1.7805152980          48.4502844223       g       B3g (6)
   37   158           1.7805152980          48.4502844223       g       B2g (7)
   38    98           1.7846589003          48.5630375756       g       B1g (4)
   39    11           1.7846589003          48.5630375756       g        Ag (1)
   40   143           1.7915944895          48.7517645515       g       B3g (6)
   41   159           1.7915944895          48.7517645515       g       B2g (7)
   42    12           1.8013374760          49.0168846927       g        Ag (1)
   43    99           1.8013374760          49.0168846927       g       B1g (4)
   44   118           1.8836600414          51.2569955825      Au       B1u (5)
   45    46           1.8859314120          51.3188027187       u       B2u (2)
   46    74           1.8859314120          51.3188027187       u       B3u (3)
   47   119           1.8927792607          51.5051421549       u       B1u (5)
   48   173           1.8927792607          51.5051421549       u        Au (8)
   49    47           1.9042823548          51.8181572581       u       B2u (2)
   50    75           1.9042823548          51.8181572581       u       B3u (3)
   51   100           2.0093306255          54.6766660268       g       B1g (4)
   52    13           2.0093306255          54.6766660268       g        Ag (1)
   53   160           2.0203053665          54.9753039129       g       B2g (7)
   54   144           2.0203053665          54.9753039129       g       B3g (6)
   55    14           2.0245855646          55.0917740249      Ag        Ag (1)
   56    48           3.2370048416          88.0833798122       u       B2u (2)
   57    76           3.2370048416          88.0833798122       u       B3u (3)
   58   120           3.2541007577          88.5485833403      Au       B1u (5)
   59   121           4.2818740861         116.5157174276      Au       B1u (5)
   60    49           4.2833870484         116.5568872233       u       B2u (2)
   61    77           4.2833870484         116.5568872233       u       B3u (3)
   62   174           4.2879307820         116.6805285009       u        Au (8)
   63   122           4.2879307820         116.6805285009       u       B1u (5)
   64    50           4.2955198791         116.8870383313       u       B2u (2)
   65    78           4.2955198791         116.8870383313       u       B3u (3)
   66   123           4.3061788342         117.1770832464               B1u (5)
   67   175           4.3061788342         117.1770832464                Au (8)
   68    51           4.3199423092         117.5516064411       u       B2u (2)
   69    79           4.3199423092         117.5516064411       u       B3u (3)
   70    15           5.1489094806         140.1089499676      Ag        Ag (1)
   71   145           5.1516522089         140.1835834002       g       B3g (6)
   72   161           5.1516522089         140.1835834002       g       B2g (7)
   73    16           5.1598862673         140.4076435211       g        Ag (1)
   74   101           5.1598862673         140.4076435211       g       B1g (4)
   75   146           5.1736240033         140.7814663219       g       B3g (6)
   76   162           5.1736240033         140.7814663219       g       B2g (7)
   77    17           5.1928690560         141.3051508277       g        Ag (1)
   78   102           5.1928690560         141.3051508277       g       B1g (4)
   79   124           5.2539762358         142.9679617269      Au       B1u (5)
   80    52           5.2578263516         143.0727287051       u       B2u (2)
   81    80           5.2578263516         143.0727287051       u       B3u (3)
   82   125           5.2693960536         143.3875562997       u       B1u (5)
   83   176           5.2693960536         143.3875562997       u        Au (8)
   84    81           5.2887500409         143.9142050691       u       B3u (3)
   85    53           5.2887500409         143.9142050691       u       B2u (2)
   86    18           5.8864749020         160.1791254326      Ag        Ag (1)
   87   147           5.8886587432         160.2385507724       g       B3g (6)
   88   163           5.8886587432         160.2385507724       g       B2g (7)
   89   103           5.8954248484         160.4226658551       g       B1g (4)
   90    19           5.8954248484         160.4226658551       g        Ag (1)
   91    20           6.6557131239         181.1111616135      Ag        Ag (1)
   92   126           9.6981491726         263.9000554047      Au       B1u (5)
   93    82           9.7177552925         264.4335650516       u       B3u (3)
   94    54           9.7177552925         264.4335650516       u       B2u (2)
   95   127          11.8058111505         321.2524535635      Au       B1u (5)
   96    55          11.8085443662         321.3268281445       u       B2u (2)
   97    83          11.8085443662         321.3268281445       u       B3u (3)
   98   128          11.8167499408         321.5501131811       u       B1u (5)
   99   177          11.8167499408         321.5501131812       u        Au (8)
  100    56          11.8304457052         321.9227938775       u       B2u (2)
  101    84          11.8304457052         321.9227938775       u       B3u (3)
  102   129          11.8496615392         322.4456833041               B1u (5)
  103   178          11.8496615392         322.4456833041                Au (8)
  104    57          11.8744396118         323.1199289365       u       B2u (2)
  105    85          11.8744396118         323.1199289365       u       B3u (3)
  106   130          13.8443480714         376.7238632949      Au       B1u (5)
  107    86          13.8500952262         376.8802513271       u       B3u (3)
  108    58          13.8500952262         376.8802513271       u       B2u (2)
  109   131          13.8673596904         377.3500412808       u       B1u (5)
  110   179          13.8673596904         377.3500412808       u        Au (8)
  111    87          13.8962143433         378.1352163037       u       B3u (3)
  112    59          13.8962143433         378.1352163037       u       B2u (2)
  113    21          14.0091940400         381.2095501463      Ag        Ag (1)
  114   164          14.0133610502         381.3229402598       g       B2g (7)
  115   148          14.0133610502         381.3229402598       g       B3g (6)
  116    22          14.0258706435         381.6633435991       g        Ag (1)
  117   104          14.0258706435         381.6633435991       g       B1g (4)
  118   165          14.0467478979         382.2314425739       g       B2g (7)
  119   149          14.0467478979         382.2314425739       g       B3g (6)
  120    23          14.0760326991         383.0283225259       g        Ag (1)
  121   105          14.0760326991         383.0283225259       g       B1g (4)
  122    24          16.4929052194         448.7947673048      Ag        Ag (1)
  123   150          16.5019818576         449.0417551876       g       B3g (6)
  124   166          16.5019818576         449.0417551876       g       B2g (7)
  125    25          16.5293823828         449.7873613835       g        Ag (1)
  126   106          16.5293823828         449.7873613835       g       B1g (4)
  127    26          21.5779757230         587.1665703933      Ag        Ag (1)
  128   132          28.5050136061         775.6608540589      Au       B1u (5)
  129    88          28.5433148234         776.7030831676       u       B3u (3)
  130    60          28.5433148234         776.7030831676       u       B2u (2)
  131    27          49.4624681298        1345.9421841901      Ag        Ag (1)
  132   151          49.4727524075        1346.2220336139       g       B3g (6)
  133   167          49.4727524075        1346.2220336139       g       B2g (7)
  134    28          49.5035784951        1347.0608541008       g        Ag (1)
  135   107          49.5035784951        1347.0608541008       g       B1g (4)
  136   133          57.8029255782        1572.8975695505      Au       B1u (5)
  137    89          57.8082042335        1573.0412090622       u       B3u (3)
  138    61          57.8082042335        1573.0412090622       u       B2u (2)
  139   180          57.8240415376        1573.4721640179       u        Au (8)
  140   134          57.8240415376        1573.4721640180       u       B1u (5)
  141    62          57.8504414933        1574.1905433323       u       B2u (2)
  142    90          57.8504414933        1574.1905433323       u       B3u (3)
  143    29          62.9293662745        1712.3951128138      Ag        Ag (1)
  144   135          81.7883188643        2225.5733022576      Au       B1u (5)
  145    63          81.8231661064        2226.5215439223       u       B2u (2)
  146    91          81.8231661064        2226.5215439223       u       B3u (3)
  147    30         149.6719037119        4072.7795561116      Ag        Ag (1)
  148   152         149.6791193418        4072.9759033841       g       B3g (6)
  149   168         149.6791193418        4072.9759033841       g       B2g (7)
  150   108         149.7007310694        4073.5639883886       g       B1g (4)
  151    31         149.7007310694        4073.5639883886       g        Ag (1)
  152    32         169.5038817757        4612.4351147862      Ag        Ag (1)
  153    33         208.3262471025        5668.8453821881      Ag        Ag (1)
  154   153         208.3284735595        5668.9059671652       g       B3g (6)
  155   169         208.3284735595        5668.9059671652       g       B2g (7)
  156    34         208.3351531632        5669.0877284217       g        Ag (1)
  157   109         208.3351531632        5669.0877284217       g       B1g (4)
  158   154         208.3462866109        5669.3906849355       g       B3g (6)
  159   170         208.3462866109        5669.3906849355       g       B2g (7)
  160   110         208.3618750653        5669.8148683442       g       B1g (4)
  161    35         208.3618750653        5669.8148683442       g        Ag (1)
  162   136         228.8050196917        6226.1011146762      Au       B1u (5)
  163    64         228.8273073281        6226.7075920952       u       B2u (2)
  164    92         228.8273073281        6226.7075920952       u       B3u (3)
  165   137         235.5273151379        6409.0240733896      Au       B1u (5)
  166    65         235.5301853455        6409.1021757100       u       B2u (2)
  167    93         235.5301853455        6409.1021757101       u       B3u (3)
  168   138         235.5387992468        6409.3365718796       u       B1u (5)
  169   181         235.5387992468        6409.3365718796       u        Au (8)
  170    94         235.5531669474        6409.7275368909       u       B3u (3)
  171    66         235.5531669474        6409.7275368909       u       B2u (2)
  172    36         447.3316736780       12172.5136794148      Ag        Ag (1)
  173    37         456.0074717135       12408.5941460600      Ag        Ag (1)
  174   155         456.0110157707       12408.6905847609       g       B3g (6)
  175   171         456.0110157707       12408.6905847609       g       B2g (7)
  176    38         456.0216774174       12408.9807029173       g        Ag (1)
  177   111         456.0216774175       12408.9807029174       g       B1g (4)
  178   139         643.0595730537       17498.5405914032      Au       B1u (5)
  179    67         643.0703028354       17498.8325636092       u       B2u (2)
  180    95         643.0703028354       17498.8325636093       u       B3u (3)
  181    39        1567.6995774044       42659.2742567693      Ag        Ag (1)


 
  ORBITAL EIGENVALUES ( BETA)  (1H = 27.2113834 eV)

       MO #        E(hartree)               E(eV)           FULLSYM    COMPSYM
       ----   --------------------   --------------------   -------   ---------
    1     1         -16.2485879963        -442.1465576771      Ag        Ag (1)
    2     2          -1.3120148236         -35.7017383928      Ag        Ag (1)
  +++++++++++++++++++++++++++++++++++++++++++++++++++++++++++++++++++++++++++++
    3   112          -0.3983391766         -10.8393600587      Au       B1u (5)
    4    68          -0.3317083944          -9.0262442962       u       B3u (3)
    5    40          -0.3317083944          -9.0262442962       u       B2u (2)
    6     3          -0.1238575699          -3.3703358226      Ag        Ag (1)
    7   113          -0.0809121553          -2.2017316786      Au       B1u (5)
    8    41          -0.0730576247          -1.9879990353       u       B2u (2)
    9    69          -0.0730576247          -1.9879990353       u       B3u (3)
   10     4           0.0582804337           1.5858912261      Ag        Ag (1)
   11   156           0.0605685391           1.6481537396       g       B2g (7)
   12   140           0.0605685391           1.6481537396       g       B3g (6)
   13    96           0.0673712180           1.8332640428       g       B1g (4)
   14     5           0.0673712180           1.8332640428       g        Ag (1)
   15   114           0.1643326070           4.4717175744      Au       B1u (5)
   16    70           0.1850281626           5.0348722712       u       B3u (3)
   17    42           0.1850281626           5.0348722712       u       B2u (2)
   18     6           0.2781214139           7.5680684261      Ag        Ag (1)
   19   115           0.4952978751          13.4777403779      Au       B1u (5)
   20    71           0.4967579663          13.5174714776       u       B3u (3)
   21    43           0.4967579663          13.5174714776       u       B2u (2)
   22   116           0.5011588511          13.6372256417       u       B1u (5)
   23   172           0.5011588511          13.6372256417       u        Au (8)
   24    44           0.5086054310          13.8398573833       u       B2u (2)
   25    72           0.5086054310          13.8398573833       u       B3u (3)
   26     7           0.6164154845          16.7735180834      Ag        Ag (1)
   27   157           0.6242871399          16.9877167150       g       B2g (7)
   28   141           0.6242871399          16.9877167150       g       B3g (6)
   29    97           0.6475231002          17.6199993410       g       B1g (4)
   30     8           0.6475231002          17.6199993410       g        Ag (1)
   31   117           0.9770978437          26.5881840451      Au       B1u (5)
   32    73           1.0197984409          27.7501263673       u       B3u (3)
   33    45           1.0197984409          27.7501263673       u       B2u (2)
   34     9           1.7759365124          48.3256893341      Ag        Ag (1)
   35    10           1.7851573788          48.5766018645      Ag        Ag (1)
   36   158           1.7868661167          48.6230989853       g       B2g (7)
   37   142           1.7868661167          48.6230989853       g       B3g (6)
   38    98           1.7920157004          48.7632262833       g       B1g (4)
   39    11           1.7920157004          48.7632262833       g        Ag (1)
   40   143           1.8006607889          48.9984711005       g       B3g (6)
   41   159           1.8006607889          48.9984711005       g       B2g (7)
   42    12           1.8129047622          49.3316465519       g        Ag (1)
   43    99           1.8129047622          49.3316465519       g       B1g (4)
   44   118           1.9035433198          51.7980470948      Au       B1u (5)
   45    46           1.9080952605          51.9219116974       u       B2u (2)
   46    74           1.9080952605          51.9219116974       u       B3u (3)
   47   119           1.9218163302          52.2952809850       u       B1u (5)
   48   173           1.9218163302          52.2952809850       u        Au (8)
   49    47           1.9449977950          52.9260807114       u       B2u (2)
   50    75           1.9449977950          52.9260807114       u       B3u (3)
   51    13           2.0822589242          56.6611459257      Ag        Ag (1)
   52   144           2.0975692920          57.0777622140       g       B3g (6)
   53   160           2.0975692920          57.0777622140       g       B2g (7)
   54   100           2.1436006885          58.3303401919       g       B1g (4)
   55    14           2.1436006885          58.3303401919       g        Ag (1)
   56   120           3.2839333449          89.3603693083      Au       B1u (5)
   57    76           3.3502047300          91.1637053767       u       B3u (3)
   58    48           3.3502047300          91.1637053767       u       B2u (2)
   59   121           4.2910389896         116.7651071317      Au       B1u (5)
   60    49           4.2928902689         116.8154830021       u       B2u (2)
   61    77           4.2928902689         116.8154830021       u       B3u (3)
   62   174           4.2984516225         116.9668151267       u        Au (8)
   63   122           4.2984516225         116.9668151267       u       B1u (5)
   64    78           4.3077458692         117.2197244362       u       B3u (3)
   65    50           4.3077458692         117.2197244362       u       B2u (2)
   66   123           4.3208119551         117.5752707086               B1u (5)
   67   175           4.3208119551         117.5752707086                Au (8)
   68    79           4.3377064031         118.0349920118       u       B3u (3)
   69    51           4.3377064031         118.0349920118       u       B2u (2)
   70    15           5.1709108200         140.7076368513      Ag        Ag (1)
   71   145           5.1749160798         140.8166255094       g       B3g (6)
   72   161           5.1749160798         140.8166255094       g       B2g (7)
   73    16           5.1869635542         141.1444539542       g        Ag (1)
   74   101           5.1869635542         141.1444539542       g       B1g (4)
   75   146           5.2071587897         141.6939942512       g       B3g (6)
   76   162           5.2071587897         141.6939942512       g       B2g (7)
   77    17           5.2357088259         142.4708802332       g        Ag (1)
   78   102           5.2357088259         142.4708802332       g       B1g (4)
   79   124           5.2953044568         144.0925597927      Au       B1u (5)
   80    80           5.3038343951         144.3246712164       u       B3u (3)
   81    52           5.3038343951         144.3246712164       u       B2u (2)
   82   125           5.3295508548         145.0244516601       u       B1u (5)
   83   176           5.3295508548         145.0244516601       u        Au (8)
   84    81           5.3729229252         146.2046656949       u       B3u (3)
   85    53           5.3729229252         146.2046656949       u       B2u (2)
   86    18           5.9469623725         161.8250731823      Ag        Ag (1)
   87   147           5.9674447222         162.3824262528       g       B3g (6)
   88   163           5.9674447222         162.3824262528       g       B2g (7)
   89   103           6.0296916408         164.0762510214       g       B1g (4)
   90    19           6.0296916408         164.0762510214       g        Ag (1)
   91    20           6.7221243110         182.9183018891      Ag        Ag (1)
   92   126           9.7257129120         264.6501028855      Au       B1u (5)
   93    54           9.8042042797         266.7859615856       u       B2u (2)
   94    82           9.8042042797         266.7859615856       u       B3u (3)
   95   127          11.8285420991         321.8709941217      Au       B1u (5)
   96    83          11.8321254799         321.9685028705       u       B3u (3)
   97    55          11.8321254799         321.9685028705       u       B2u (2)
   98   128          11.8428868138         322.2613336541       u       B1u (5)
   99   177          11.8428868138         322.2613336541       u        Au (8)
  100    56          11.8608600030         322.7504089967       u       B2u (2)
  101    84          11.8608600030         322.7504089967       u       B3u (3)
  102   129          11.8861026580         323.4372965591               B1u (5)
  103   178          11.8861026580         323.4372965591                Au (8)
  104    57          11.9186978481         324.3242567724       u       B2u (2)
  105    85          11.9186978481         324.3242567724       u       B3u (3)
  106   130          13.8882400642         377.9182251387      Au       B1u (5)
  107    86          13.8989000952         378.2082993301       u       B3u (3)
  108    58          13.8989000952         378.2082993301       u       B2u (2)
  109   131          13.9309775824         379.0811721303       u       B1u (5)
  110   179          13.9309775824         379.0811721303       u        Au (8)
  111    87          13.9847948403         380.5456141701       u       B3u (3)
  112    59          13.9847948403         380.5456141701       u       B2u (2)
  113    21          14.0440889633         382.1590892851      Ag        Ag (1)
  114   164          14.0503334630         382.3290107588       g       B2g (7)
  115   148          14.0503334630         382.3290107588       g       B3g (6)
  116   104          14.0690991787         382.8396518443       g       B1g (4)
  117    22          14.0690991787         382.8396518443       g        Ag (1)
  118   149          14.1004854582         383.6937159284       g       B3g (6)
  119   165          14.1004854582         383.6937159284       g       B2g (7)
  120    23          14.1446673532         384.8959664140       g        Ag (1)
  121   105          14.1446673532         384.8959664140       g       B1g (4)
  122    24          16.5345611359         449.9282824198      Ag        Ag (1)
  123   150          16.5554561853         450.4968656198       g       B3g (6)
  124   166          16.5554561853         450.4968656198       g       B2g (7)
  125   106          16.6186014051         452.2151344061       g       B1g (4)
  126    25          16.6186014051         452.2151344061       g        Ag (1)
  127    26          21.6203147621         588.3186742203      Ag        Ag (1)
  128   132          28.5224505189         776.1353365774      Au       B1u (5)
  129    60          28.5914835143         778.0138198826       u       B2u (2)
  130    88          28.5914835143         778.0138198827       u       B3u (3)
  131    27          49.4822109711        1346.4794142150      Ag        Ag (1)
  132   151          49.4978767644        1346.9057021219       g       B3g (6)
  133   167          49.4978767644        1346.9057021219       g       B2g (7)
  134    28          49.5448279817        1348.1833096964       g        Ag (1)
  135   107          49.5448279817        1348.1833096964       g       B1g (4)
  136   133          57.8246588137        1573.4889609527      Au       B1u (5)
  137    89          57.8324106333        1573.6998986893       u       B3u (3)
  138    61          57.8324106333        1573.6998986893       u       B2u (2)
  139   180          57.8556717071        1574.3328646858       u        Au (8)
  140   134          57.8556717071        1574.3328646859       u       B1u (5)
  141    62          57.8944593480        1575.3883300548       u       B2u (2)
  142    90          57.8944593480        1575.3883300548       u       B3u (3)
  143    29          62.9489379018        1712.9276838695      Ag        Ag (1)
  144   135          81.7963425272        2225.7916372267      Au       B1u (5)
  145    63          81.8434524690        2227.0735639149       u       B2u (2)
  146    91          81.8434524690        2227.0735639149       u       B3u (3)
  147    30         149.6786830294        4072.9640307205      Ag        Ag (1)
  148   152         149.6876501841        4073.2080394045       g       B3g (6)
  149   168         149.6876501841        4073.2080394045       g       B2g (7)
  150    31         149.7145017461        4073.9387075518       g        Ag (1)
  151   108         149.7145017461        4073.9387075518       g       B1g (4)
  152    32         169.5115084693        4612.6426476698      Ag        Ag (1)
  153    33         208.3330138557        5669.0295149037      Ag        Ag (1)
  154   153         208.3356597161        5669.1015124280       g       B3g (6)
  155   169         208.3356597161        5669.1015124280       g       B2g (7)
  156    34         208.3435976624        5669.3175149264       g        Ag (1)
  157   109         208.3435976624        5669.3175149264       g       B1g (4)
  158   154         208.3568287891        5669.6775521887       g       B3g (6)
  159   170         208.3568287891        5669.6775521888       g       B2g (7)
  160    35         208.3753549226        5670.1816739096       g        Ag (1)
  161   110         208.3753549226        5670.1816739096       g       B1g (4)
  162   136         228.8079433373        6226.1806711177      Au       B1u (5)
  163    64         228.8342944650        6226.8977217545       u       B2u (2)
  164    92         228.8342944650        6226.8977217545       u       B3u (3)
  165   137         235.5322447544        6409.1582150745      Au       B1u (5)
  166    65         235.5356595490        6409.2511363605       u       B2u (2)
  167    93         235.5356595490        6409.2511363606       u       B3u (3)
  168   181         235.5459086201        6409.5300277624       u        Au (8)
  169   138         235.5459086201        6409.5300277624       u       B1u (5)
  170    66         235.5630064828        6409.9952842608       u       B2u (2)
  171    94         235.5630064828        6409.9952842608       u       B3u (3)
  172    36         447.3342233489       12172.5830594890      Ag        Ag (1)
  173    37         456.0092818137       12408.6434013908      Ag        Ag (1)
  174   155         456.0132714296       12408.7519643599       g       B3g (6)
  175   171         456.0132714296       12408.7519643599       g       B2g (7)
  176    38         456.0252770581       12409.0786541179       g        Ag (1)
  177   111         456.0252770581       12409.0786541179       g       B1g (4)
  178   139         643.0604437051       17498.5642830325      Au       B1u (5)
  179    67         643.0723079488       17498.8871255176       u       B2u (2)
  180    95         643.0723079488       17498.8871255176       u       B3u (3)
  181    39        1567.7004890275       42659.2990632936      Ag        Ag (1)


  VSCF finished.

 @CHECKOUT-I, Total execution time (CPU/WALL):        2.28/       3.90 seconds.
--executable xvscf finished with status     0 in        3.92 seconds (walltime).
 --invoking executable--
/cvmfs/restricted.computecanada.ca/easybuild/software/2020/avx2/Compiler/intel2020/cfour/2.1/bin/xvtran
 @GETMEM-I,  Allocated   28610 MB of main memory.
  Full UHF integral transformation
  Transformation of IIII integrals :
  2 passes through the AO integral file were required.
      354701 AO integrals were read.
      581941 MO integrals (Spin case AAAA) were written to HF2AA.
      581941 MO integrals (Spin case BBBB) were written to HF2BB.
     1161421 MO integrals (Spin case AABB) were written to HF2AB.
  Transformation of IIJJ integrals :
  2 passes through the AO integral file were required.
     1814712 AO integrals were read.
     2447550 MO integrals (Spin case AAAA) were written to HF2AA.
     2447550 MO integrals (Spin case BBBB) were written to HF2BB.
     4895100 MO integrals (Spin case AABB) were written to HF2AB.
  Transformation of IJIJ integrals :
  2 passes through the AO integral file were required.
     3162072 AO integrals were read.
     4535271 MO integrals (Spin case AAAA) were written to HF2AA.
     4535271 MO integrals (Spin case BBBB) were written to HF2BB.
     9056532 MO integrals (Spin case AABB) were written to HF2AB.
  Transformation of IJKL integrals :
  2 passes through the AO integral file were required.
     7384599 AO integrals were read.
     9564672 MO integrals (Spin case AAAA) were written to HF2AA.
     9564671 MO integrals (Spin case BBBB) were written to HF2BB.
    19129343 MO integrals (Spin case AABB) were written to HF2AB.
  Summary of active molecular orbitals: 
------------------------------------------------------------------------
                         * Spin case alpha *
 
  Index      Eigenvalue    Symmetry    Index      Eigenvalue    Symmetry
------------------------------------------------------------------------
     1       -16.3207634        1        92       228.8273073        3
     2        -1.6128489        1        93       235.5301853        3
     3        -1.1101362        2        94       235.5531669        3
     4        -1.1101362        3        95       643.0703028        3
     5        -0.1326558        1        96         0.0577404        4
     6         0.0542658        1        97         0.5811307        4
     7         0.0577404        1        98         1.7846589        4
     8         0.2513358        1        99         1.8013375        4
     9         0.5811307        1       100         2.0093306        4
    10         0.5888842        1       101         5.1598863        4
    11         1.7147477        1       102         5.1928691        4
    12         1.7791384        1       103         5.8954248        4
    13         1.7846589        1       104        14.0258706        4
    14         1.8013375        1       105        14.0760327        4
    15         2.0093306        1       106        16.5293824        4
    16         2.0245856        1       107        49.5035785        4
    17         5.1489095        1       108       149.7007311        4
    18         5.1598863        1       109       208.3351532        4
    19         5.1928691        1       110       208.3618751        4
    20         5.8864749        1       111       456.0216774        4
    21         5.8954248        1       112        -0.4673106        5
    22         6.6557131        1       113        -0.0847301        5
    23        14.0091940        1       114         0.1532570        5
    24        14.0258706        1       115         0.4924172        5
    25        14.0760327        1       116         0.4969794        5
    26        16.4929052        1       117         0.9547150        5
    27        16.5293824        1       118         1.8836600        5
    28        21.5779757        1       119         1.8927793        5
    29        49.4624681        1       120         3.2541008        5
    30        49.5035785        1       121         4.2818741        5
    31        62.9293663        1       122         4.2879308        5
    32       149.6719037        1       123         4.3061788        5
    33       149.7007311        1       124         5.2539762        5
    34       169.5038818        1       125         5.2693961        5
    35       208.3262471        1       126         9.6981492        5
    36       208.3351532        1       127        11.8058112        5
    37       208.3618751        1       128        11.8167499        5
    38       447.3316737        1       129        11.8496615        5
    39       456.0074717        1       130        13.8443481        5
    40       456.0216774        1       131        13.8673597        5
    41      1567.6995774        1       132        28.5050136        5
    42        -0.0907270        2       133        57.8029256        5
    43         0.1317420        2       134        57.8240415        5
    44         0.4935498        2       135        81.7883189        5
    45         0.5027868        2       136       228.8050197        5
    46         0.9171301        2       137       235.5273151        5
    47         1.8859314        2       138       235.5387992        5
    48         1.9042824        2       139       643.0595731        5
    49         3.2370048        2       140         0.0550598        6
    50         4.2833870        2       141         0.5867347        6
    51         4.2955199        2       142         1.7805153        6
    52         4.3199423        2       143         1.7915945        6
    53         5.2578264        2       144         2.0203054        6
    54         5.2887500        2       145         5.1516522        6
    55         9.7177553        2       146         5.1736240        6
    56        11.8085444        2       147         5.8886587        6
    57        11.8304457        2       148        14.0133611        6
[...]
   149.714501746052        169.511508469275        208.333013855652     
   208.343597662382        208.375354922586        447.334223348932     
   456.009281813682        456.025277058054        1567.70048902745     
 -0.331708394370802      -7.305762467391022E-002  0.185028162560654     
  0.496757966286464       0.508605431036654        1.01979844094515     
   1.90809526050634        1.94499779498299        3.35020473000533     
   4.29289026893330        4.30774586918531        4.33770640311599     
   5.30383439514680        5.37292292515089        9.80420427965513     
   11.8321254799007        11.8608600030496        11.9186978480632     
   13.8989000952499        13.9847948403131        28.5914835143082     
   57.8324106333118        57.8944593480237        81.8434524690454     
   228.834294464960        235.535659549031        235.563006482823     
   643.072307948796      -0.331708394370805      -7.305762467390647E-002
  0.185028162560614       0.496757966286460       0.508605431036655     
   1.01979844094513        1.90809526050634        1.94499779498300     
   3.35020473000532        4.29289026893331        4.30774586918531     
   4.33770640311597        5.30383439514678        5.37292292515087     
   9.80420427965636        11.8321254799007        11.8608600030496     
   11.9186978480633        13.8989000952498        13.9847948403130     
   28.5914835143121        57.8324106333115        57.8944593480239     
   81.8434524690470        228.834294464961        235.535659549031     
   235.563006482823        643.072307948799       6.737121798792074E-002
  0.647523100239738        1.79201570043238        1.81290476220091     
   2.14360068852375        5.18696355416616        5.23570882593053     
   6.02969164079250        14.0690991787022        14.1446673532224     
   16.6186014051051        49.5448279816763        149.714501746052     
   208.343597662383        208.375354922587        456.025277058054     
 -0.398339176636005      -8.091215526305601E-002  0.164332607007518     
  0.495297875149925       0.501158851104940       0.977097843730685     
   1.90354331984373        1.92181633018381        3.28393334490678     
   4.29103898964811        4.29845162251890        4.32081195506650     
   5.29530445676311        5.32955085481347        9.72571291195534     
   11.8285420991019        11.8428868138349        11.8861026580170     
   13.8882400642186        13.9309775823566        28.5224505189026     
   57.8246588136606        57.8556717070791        81.7963425272479     
   228.807943337336        235.532244754396        235.545908620083     
   643.060443705059       6.056853910540469E-002  0.624287139882741     
   1.78686611667276        1.80066078891440        2.09756929204993     
   5.17491607976785        5.20715878969925        5.96744472215160     
   14.0503334629715        14.1004854581699        16.5554561852876     
   49.4978767643964        149.687650184096        208.335659716145     
   208.356828789114        456.013271429630       6.056853910537814E-002
  0.624287139882729        1.78686611667276        1.80066078891441     
   2.09756929204995        5.17491607976787        5.20715878969929     
   5.96744472215161        14.0503334629714        14.1004854581700     
   16.5554561852876        49.4978767643966        149.687650184097     
   208.335659716147        208.356828789115        456.013271429630     
  0.501158851104945        1.92181633018382        4.29845162251887     
   4.32081195506651        5.32955085481353        11.8428868138350     
   11.8861026580170        13.9309775823567        57.8556717070786     
   235.545908620082     
 @CHECKOUT-I, Total execution time (CPU/WALL):        8.90/     430.29 seconds.
--executable xvtran finished with status     0 in      430.32 seconds (walltime).
 --invoking executable--
/cvmfs/restricted.computecanada.ca/easybuild/software/2020/avx2/Compiler/intel2020/cfour/2.1/bin/xintprc
 @GETMEM-I,  Allocated   28610 MB of main memory.
  @GMOIAA-I, Processing MO integrals for spin case AA.
  @GMOIAA-I, Generation of integral list completed.
                      TYPE                NUMBER
                      ----               --------
                      PPPP              15647652
                      PPPH               1425136
                      PPHH                 33817
                      PHPH                 21653
                      PHHH                  1154
                      HHHH                    22

                     TOTAL              17129434
  @GMOIAA-I, Processing MO integrals for spin case BB.
  @GMOIAA-I, Generation of integral list completed.
                      TYPE                NUMBER
                      ----               --------
                      PPPP              16366992
                      PPPH                745704
                      PPHH                  9357
                      PHPH                  7152
                      PHHH                   222
                      HHHH                     6

                     TOTAL              17129433
  @GMOIAB-I, Processing MO integrals for spin case AB.
                      TYPE                NUMBER
                      ----               --------
                      PPPP              31990355
                      PPPH1H             1458176
                      PPPH2H              729000
                      PPHH                 34656
                      PHPH1P                6984
                      PHPH2P               22200
                      PHHH1P                 384
                      PHHH2P                 626
                      HHHH                    15

                     TOTAL              34242396

  @FORMT2-I, Second-order MP correlation energies:
  @FORMT2-I, Singles contribution will be calculated.
            ------------------------------------------------
            E(SCF)                  =    -53.887991206724 a.u.
            E2(AA)                  =     -0.018524480729 a.u.
            E2(BB)                  =     -0.001078603666 a.u.
            E2(AB)                  =     -0.118029205985 a.u.
            E2(SINGLE)              =     -0.004245813669 a.u.
            E2(TOT)                 =     -0.137632290380 a.u.
            Total MP2 energy        =    -54.029869310773 a.u.
            ------------------------------------------------
            ----------------------------------------------
                     Projected spin multiplicities: 
            ----------------------------------------------
             <0|S^2|0>                  =    2.0000000000.
             <0|S^2 T2|0>               =   -0.0000000000.
             Projected <0|S^2 exp(T)|0> =    2.0000000000.
             Approximate spin mult.     =    3.0000000000.
            ----------------------------------------------
   Largest T2 amplitudes for spin case AA:
   i   j   a   b             i   j   a   b             i   j   a   b
-----------------------------------------------------------------------------
[  4   3  97   9]-0.01192 [  4   3  73  46]-0.01158 [  4   3 100  15]-0.01135
[  4   2 157 112] 0.01088 [  3   2 141 112] 0.01088 [  4   3 100   9] 0.00989
[  4   3  97  15] 0.00989 [  3   2 144 112]-0.00981 [  4   2 160 112]-0.00981
[  4   3  70  46]-0.00893 [  4   3  73  43]-0.00893 [  4   3  70  43]-0.00779
[  4   3  76  46] 0.00674 [  4   3  73  49] 0.00674 [  3   2  46  11] 0.00669
-----------------------------------------------------------------------------
   Norm of T2AA vector (    12164 symmetry allowed elements):  0.0537659687.
-----------------------------------------------------------------------------
   Largest T2 amplitudes for spin case BB:
   i   j   a   b             i   j   a   b             i   j   a   b
-----------------------------------------------------------------------------
[  2   1 126 112] 0.00168 [  2   1  82  68] 0.00160 [  2   1  54  40] 0.00160
[  2   1 120 112]-0.00136 [  2   1  48  40]-0.00131 [  2   1  76  68]-0.00131
[  2   1  82  73] 0.00104 [  2   1  54  45] 0.00104 [  2   1 126 117] 0.00101
[  2   1 132 112]-0.00085 [  2   1  82  70] 0.00084 [  2   1  54  42] 0.00084
[  2   1  60  40]-0.00081 [  2   1  88  68]-0.00081 [  2   1  82  76]-0.00080
-----------------------------------------------------------------------------
   Norm of T2BB vector (     2205 symmetry allowed elements):  0.0057813889.
-----------------------------------------------------------------------------
   Largest T2 amplitudes for spin case AB:
       _       _                 _       _                 _       _
   i   j   a   b             i   j   a   b             i   j   a   b
-----------------------------------------------------------------------------
[  2   2 112 112]-0.06316 [  4   2 157 112] 0.02053 [  3   2 141 112] 0.02053
[  4   2   9  68]-0.02003 [  4   2  97  40] 0.02003 [  3   2   9  40] 0.02003
[  3   2  97  68] 0.02003 [  3   2 144 112]-0.01912 [  4   2 160 112]-0.01912
[  4   2 100  40]-0.01821 [  3   2  15  40]-0.01821 [  3   2 100  68]-0.01821
[  4   2  15  68] 0.01821 [  2   2 112 114]-0.01668 [  2   2 114 112]-0.01388
-----------------------------------------------------------------------------
   Norm of T2AB vector (    34656 symmetry allowed elements):  0.1330073859.
-----------------------------------------------------------------------------
 @CHECKOUT-I, Total execution time (CPU/WALL):       13.05/     133.57 seconds.
--executable xintprc finished with status     0 in      133.61 seconds (walltime).
  calling xvcc 
 --invoking executable--
/cvmfs/restricted.computecanada.ca/easybuild/software/2020/avx2/Compiler/intel2020/cfour/2.1/bin/xvcc
 @GETMEM-I,  Allocated   28610 MB of main memory.
   CCSD(T) energy will be calculated.
   The reference state is a ROHF wave function.
   The total correlation energy is -0.141935394801 a.u.
   The total correlation energy is -0.154822488382 a.u.
  Convergence information after     1 iterations: 
  Largest element of residual vector : -0.25124838E-01.
  Largest element of DIIS residual   : -0.25124838E-01.
   The total correlation energy is -0.158597585431 a.u.
  Convergence information after     2 iterations: 
  Largest element of residual vector : -0.12888481E-01.
  Largest element of DIIS residual   : -0.54222968E-02.
   The total correlation energy is -0.160827118972 a.u.
  Convergence information after     3 iterations: 
  Largest element of residual vector : -0.29192702E-02.
  Largest element of DIIS residual   :  0.61506363E-03.
   The total correlation energy is -0.161190451776 a.u.
  Convergence information after     4 iterations: 
  Largest element of residual vector : -0.38567526E-03.
  Largest element of DIIS residual   : -0.86075524E-04.
   The total correlation energy is -0.161217026156 a.u.
  Convergence information after     5 iterations: 
  Largest element of residual vector : -0.24823994E-04.
  Largest element of DIIS residual   : -0.16254020E-04.
   The total correlation energy is -0.161215549226 a.u.
  Convergence information after     6 iterations: 
  Largest element of residual vector : -0.76174997E-05.
  Largest element of DIIS residual   : -0.68987977E-05.
   The total correlation energy is -0.161215742839 a.u.
  Convergence information after     7 iterations: 
  Largest element of residual vector : -0.20944466E-05.
  Largest element of DIIS residual   : -0.12960909E-05.
   The total correlation energy is -0.161215890087 a.u.
  Convergence information after     8 iterations: 
  Largest element of residual vector : -0.63556906E-06.
  Largest element of DIIS residual   : -0.36032734E-06.
   The total correlation energy is -0.161215870319 a.u.
  Convergence information after     9 iterations: 
  Largest element of residual vector : -0.22206532E-06.
  Largest element of DIIS residual   :  0.15573605E-06.
   The total correlation energy is -0.161215847991 a.u.
  Convergence information after    10 iterations: 
  Largest element of residual vector :  0.79023857E-07.
  Largest element of DIIS residual   :  0.59063305E-07.
   The total correlation energy is -0.161215840201 a.u.
  Convergence information after    11 iterations: 
  Largest element of residual vector :  0.31799880E-07.
  Largest element of DIIS residual   :  0.16166236E-07.
   The total correlation energy is -0.161215837412 a.u.
  Convergence information after    12 iterations: 
  Largest element of residual vector :  0.85447623E-08.
  Largest element of DIIS residual   :  0.26715243E-08.
   The total correlation energy is -0.161215836677 a.u.
  Convergence information after    13 iterations: 
  Largest element of residual vector :  0.15374644E-08.
  Largest element of DIIS residual   :  0.68443737E-09.
   The total correlation energy is -0.161215836521 a.u.
  Convergence information after    14 iterations: 
  Largest element of residual vector :  0.37905064E-09.
  Largest element of DIIS residual   :  0.17528378E-09.
   The total correlation energy is -0.161215836464 a.u.
  Convergence information after    15 iterations: 
  Largest element of residual vector :  0.87756269E-10.
  Largest element of DIIS residual   :  0.67339727E-10.
  Amplitude equations converged in    15iterations.
   The total correlation energy is -0.161215836454 a.u.
   The CC iterations have converged.

            ----------------------------------------------
                     Projected spin multiplicities: 
            ----------------------------------------------
             <0|S^2|0>                  =    2.0000000000.
             <0|S^2 (T2+T1**2) |0>      =   -0.0000000000.
             <0|S^2 T1|0>               =   -0.0000000000.
             Projected <0|S^2 exp(T)|0> =    2.0000000000.
             Approximate spin mult.     =    3.0000000000.
            ----------------------------------------------
   Largest T1 amplitudes for spin case AA:
   i       a                 i       a                 i       a    
-----------------------------------------------------------------------------
[  2       8    ] 0.01760 [  2       5    ]-0.01388 [  2      11    ]-0.01075
[  2      10    ]-0.01038 [  2      16    ] 0.01024 [  2       6    ] 0.00438
[  2      20    ]-0.00386 [  3      46    ] 0.00303 [  4      73    ] 0.00303
[  4      76    ]-0.00174 [  3      49    ]-0.00174 [  4      70    ] 0.00171
[  3      43    ] 0.00171 [  1      11    ]-0.00129 [  1      22    ] 0.00104
-----------------------------------------------------------------------------
   Norm of T1AA vector (      128 symmetry allowed elements):  0.0300381672.
-----------------------------------------------------------------------------
   Largest T2 amplitudes for spin case AA:
   i   j   a   b             i   j   a   b             i   j   a   b
-----------------------------------------------------------------------------
[  4   3  73  46]-0.01414 [  4   3  97   9]-0.01217 [  4   3 100  15]-0.01180
[  4   3  73  43]-0.01104 [  4   3  70  46]-0.01104 [  4   2 157 112] 0.01090
[  3   2 141 112] 0.01090 [  4   3 100   9] 0.01031 [  4   3  97  15] 0.01031
[  4   3  70  43]-0.00947 [  3   2 144 112]-0.00906 [  4   2 160 112]-0.00906
[  3   2  46  11] 0.00803 [  4   2  73  11] 0.00803 [  4   3  76  46] 0.00797
-----------------------------------------------------------------------------
   Norm of T2AA vector (    12164 symmetry allowed elements):  0.0587481983.
-----------------------------------------------------------------------------
   Largest T1 amplitudes for spin case BB:
   i       a                 i       a                 i       a    
-----------------------------------------------------------------------------
[  2       7    ] 0.02355 [  2      13    ]-0.02038 [  2       6    ]-0.01123
[  2       4    ]-0.01120 [  2       3    ] 0.01013 [  2      18    ] 0.00670
[  2       9    ] 0.00385 [  1      18    ] 0.00076 [  1       9    ] 0.00068
[  2      20    ] 0.00067 [  1      13    ]-0.00066 [  2      24    ]-0.00062
[  1      20    ]-0.00059 [  1      24    ]-0.00048 [  1       6    ]-0.00046
-----------------------------------------------------------------------------
   Norm of T1BB vector (       74 symmetry allowed elements):  0.0372472856.
-----------------------------------------------------------------------------
   Largest T2 amplitudes for spin case BB:
   i   j   a   b             i   j   a   b             i   j   a   b
-----------------------------------------------------------------------------
[  2   1  82  68] 0.00154 [  2   1  54  40] 0.00154 [  2   1 126 112] 0.00148
[  2   1  48  40]-0.00123 [  2   1  76  68]-0.00123 [  2   1 120 112]-0.00110
[  2   1  54  45] 0.00102 [  2   1  82  73] 0.00102 [  2   1 126 117] 0.00100
[  2   1 126 120]-0.00082 [  2   1  82  70] 0.00081 [  2   1  54  42] 0.00081
[  2   1  82  76]-0.00080 [  2   1  54  48]-0.00080 [  2   1 132 112]-0.00079
-----------------------------------------------------------------------------
   Norm of T2BB vector (     2205 symmetry allowed elements):  0.0055025945.
-----------------------------------------------------------------------------
   Largest T2 amplitudes for spin case AB:
       _       _                 _       _                 _       _
   i   j   a   b             i   j   a   b             i   j   a   b
-----------------------------------------------------------------------------
[  2   2 112 112]-0.11544 [  2   2 112 114]-0.02890 [  4   2 157 112] 0.02739
[  3   2 141 112] 0.02739 [  4   2   9  68]-0.02639 [  3   2   9  40] 0.02639
[  4   2  97  40] 0.02639 [  3   2  97  68] 0.02639 [  2   2 114 112]-0.02485
[  3   2 144 112]-0.02356 [  4   2 160 112]-0.02356 [  2   2 112 113]-0.02215
[  4   2 100  40]-0.02211 [  3   2 100  68]-0.02211 [  3   2  15  40]-0.02211
-----------------------------------------------------------------------------
   Norm of T2AB vector (    34656 symmetry allowed elements):  0.1888115983.
-----------------------------------------------------------------------------
       Summary of iterative solution of CC equations 
      -----------------------------------------------------------
                       Correlation           Total
       Iteration         Energy              Energy
      -----------------------------------------------------------
            0        -0.141935394801     -54.029926601525  DIIS 
            1        -0.154822488382     -54.042813695106  DIIS 
            2        -0.158597585431     -54.046588792155  DIIS 
            3        -0.160827118972     -54.048818325696  DIIS 
            4        -0.161190451776     -54.049181658499  DIIS 
            5        -0.161217026156     -54.049208232880  DIIS 
            6        -0.161215549226     -54.049206755950  DIIS 
            7        -0.161215742839     -54.049206949563  DIIS 
            8        -0.161215890087     -54.049207096811  DIIS 
            9        -0.161215870319     -54.049207077043  DIIS 
           10        -0.161215847991     -54.049207054715  DIIS 
           11        -0.161215840201     -54.049207046925  DIIS 
           12        -0.161215837412     -54.049207044136  DIIS 
           13        -0.161215836677     -54.049207043401  DIIS 
           14        -0.161215836521     -54.049207043245  DIIS 
           15        -0.161215836454     -54.049207043178  DIIS 
      -----------------------------------------------------------
      A miracle has come to pass. The CC iterations have converged.
 @TRPS2-I, E4ST A   -0.000028765200542
 @TRPS2-I, E4ST B    0.000006867573992
        E(CCSD)           =     -54.049207043178
        E(CCSD(T))        =     -54.051589266795
 @CHECKOUT-I, Total execution time (CPU/WALL):        9.65/      10.67 seconds.
--executable xvcc finished with status     0 in       10.70 seconds (walltime).
  The final electronic energy is       -54.051589266794892 a.u. 
  This computation required                          657.09 seconds (walltime).
