 --invoking executable--
/cvmfs/restricted.computecanada.ca/easybuild/software/2020/avx2/Compiler/intel2020/cfour/2.1/bin/xjoda


   *************************************************************************
         <<<     CCCCCC     CCCCCC   |||     CCCCCC     CCCCCC   >>>
       <<<      CCC        CCC       |||    CCC        CCC         >>>
      <<<      CCC        CCC        |||   CCC        CCC            >>>
    <<<        CCC        CCC        |||   CCC        CCC              >>>
      <<<      CCC        CCC        |||   CCC        CCC            >>>
       <<<      CCC        CCC       |||    CCC        CCC         >>>
         <<<     CCCCCC     CCCCCC   |||     CCCCCC     CCCCCC   >>>
   *************************************************************************

     ****************************************************************
     * CFOUR Coupled-Cluster techniques for Computational Chemistry *
     ****************************************************************
 

   Department of Chemistry                Institut fuer Physikalische Chemie
   University of Florida                  Universitaet Mainz
   Gainesville, FL 32611, USA             D-55099 Mainz, Germany

   Department of Chemistry                Fakultaet fuer Chemie und Biowiss.
   Johns Hopkins University               Karlsruher Institut fuer Technologie
   Baltimore, MD 21218, USA               D-76131 Karlsruhe, Germany

   Department of Chemistry                Department of Physical Chemistry
   Southern Methodist University          Eotvos Lorand University
   Dallas, TX 75275, USA                  H-1053 Budapest, Hungary

 
                       Version 2.1
 
                     gra129                                            
                     Sun 24 Mar 2024 03:38:24 PM EDT                   
                     integer*8 version is running
 
********************************************************************************
*                          Input from ZMAT file                                *
********************************************************************************
Test                                                                            
N                                                                               
                                                                                
*ACES2(CALC=CCSDT                                                               
#FROZEN_CORE=ON                                                                 
#DROPMO=1                                                                       
#INPUT_MRCC=OFF                                                                 
#CC_PROG=MRCC                                                                   
XFORM_TOL=18                                                                    
SAVE_INTS=ON                                                                    
SCF_EXPORDER=6                                                                  
SCF_EXPSTART=5                                                                  
#SCF_DAMPING=1000                                                               
SCF_EXTRAPOLATION=ON                                                            
SCF_CONV=10                                                                     
SCF_MAXCYC=9999                                                                 
CC_CONV=10                                                                      
CC_MAXCYC=999                                                                   
T3_EXTRAPOL=ON                                                                  
REFERENCE=ROHF                                                                  
CHARGE=+1                                                                       
MULT=3                                                                          
ABCDTYPE=STANDARD                                                               
OCCUPATION=2-1-1-0-0-0-0-0/2-0-0-0-0-0-0-0                                      
MEM=20                                                                          
MEM_UNIT=GB                                                                     
BASIS=SPECIAL)                                                                  
                                                                                
N:aCV6Z-EMOLP                                                                   
                                                                                
********************************************************************************
  @GTFLGS-W, Keyword #FROZEN_CORE not known and is ignored.
  @GTFLGS-W, Keyword #DROPMO not known and is ignored.
  @GTFLGS-W, Keyword #INPUT_MRCC not known and is ignored.
  @GTFLGS-W, Keyword #CC_PROG not known and is ignored.
  @GTFLGS-W, Keyword #SCF_DAMPING not known and is ignored.
    -------------------------------------------------------------------
                    CFOUR Control Parameters 
    -------------------------------------------------------------------
        External           Internal           Value            Units
          Name               Name
    -------------------------------------------------------------------
       ABCDTYPE             IABCDT         STANDARD    [  0]    ***   
       ANHARMONIC           IANHAR         OFF         [  0]    ***   
       ANH_ALGORIT          IANALG         STANDARD    [  0]    ***   
       ANH_DERIVAT          IANDER         SECOND      [  1]    ***   
       ANH_MODE             ANHMOD         VIBRATION   [  0]    ***   
       ANH_STEPSIZ          ICUBST             50000          x 10-6  
       ANH_SYMMETR          IANHSM         ABELIAN     [  0]    ***   
       AO_LADDERS           IAOLAD         SINGLEPASS  [  1]    ***   
       AV_SCF               IAVSCF         OFF         [  0]    ***   
       BASIS                IBASIS         SPECIAL     [  0]    ***   
       BOTHVECTORS          BOTHVC         OFF         [  0]    ***   
       BOX_POTENT           IPIAB          OFF         [  0]    ***   
       BREIT                IBREIT         OFF         [  0]    ***   
       BRUCK_CONV           IBRTOL          10D-  4             ***   
       BRUECKNER            IBRKNR         OFF         [  0]    ***   
       BUFFERSIZE           IBUFFS              4096            ***   
       CACHE_RECS           ICHREC             10               ***   
       CALCLEVEL            ICLLVL         CCSDT       [ 18]    ***   
       CCORBOPT             ICCORB         OFF         [  0]  x 0.01  
       CC_CONV              ICCCNV          10D- 10             ***   
       CC_EXPORDER          ICCEOR              5               ***   
       CC_EXTRAPOL          ICCEXT         DIIS        [  1]    ***   
       CC_GUESS             ICCGES         MP2         [  0]    ***   
       CC_MAXCYC            ICCCYC            999              cycles 
       CC_PROGRAM           ICCPRO         VCC         [  0]    ***   
       CHARGE               ICHRGE              1               ***   
       CHOLESKY             ICHOLE         OFF         [  0]    ***   
       CIS_CONV             ICISTL              5               ***   
       COMM_SIZE            IPSIZE            ***               ***   
       CONSTANT             ICONST         OLD         [  1]    ***   
       CONTINUUM            ICONTU         NONE        [  0]    ***   
       CONTRACTION          ICNTYP         GENERAL     [  1]    ***   
       COORDINATES          ICOORD         INTERNAL    [  0]    ***   
       CPHF_CONVER          ICPHFT          10D- 16             ***   
       CPHF_MAXCYC          ICPHFC             64              cycles 
       CUBIC                ICUBIC         OFF         [  0]    ***   
       CURVILINEAR          ICURVY         OFF         [  0]    ***   
       DBOC                 IDBOC          OFF         [  0]    ***   
       DCT                  IDCT           OFF         [  0]    ***   
       DERIV_LEV            IDRLVL         ZERO        [  0]    ***   
       DEVMEM_SIZE          IDVMEM         *********           MByte  
       DIAG_MRCC            IEOMST          10D-  0             ***   
       DIFF_TYPE            IDIFTY         RELAXED     [  0]    ***   
       DIRECT               IDIRCT         OFF         [  0]    ***   
       DROPMO               IDRPMO      NONE         
       ECP                  IECP           OFF         [  0]    ***   
       EIGENVECTOR          IVEC                1               ***   
       EL_ANHARM            IELANH         OFF         [  0]    ***   
       EOMFOLLOW            IEOMSR         ENERGY      [  0]    ***   
       EOMIP                IEOMIP         OFF         [  0]    ***   
       EOMLEVEL             HBARFM         SAME        [  0]    ***   
       EOM_MRCC             IMRCCE         NEW         [  1]    ***   
       EOM_NONIT            EOMNON         OFF         [  0]    ***   
       EOM_NSING            IEOMSI          10D-  0             ***   
       EOM_NSTATES          IMRCCD         DAVIDSON    [  0]    ***   
       EOM_NTRIP            IEOMTR          10D-  0             ***   
       EOM_ORDER            IEXORD         ENERGY      [  0]    ***   
       EOM_PROPSTA          IEOMST              0               ***   
       ESTATE_CONV          IEXTOL          10D-  5             ***   
       ESTATE_DIAG          IEXDIG         ITERATIVE   [  0]    ***   
       ESTATE_LOCK          IESLOC         ON          [  1]    ***   
       ESTATE_MAXC          IEXMXC             40               ***   
       ESTATE_PROP          IEXPRP         OFF         [  0]    ***   
       EVAL_HESS            IRECAL              0            # of cyc.
       EXCITATION           IEXCIT              0               ***   
       EXCITE               IEXCIT         NONE        [  0]    ***   
       EXTERN_POT           IEXPOT         OFF         [  0]    ***   
       FCGRADNEW            IFCGNW         OFF         [  0]    ***   
       FC_FIELD             IFINFC              0             x 10-6  
       FD_CALTYPE           IFDCAL         GRADONLY    [  0]    ***   
       FD_PROJECT           IFDPRJ         OFF         [  1]    ***   
       FD_STEPSIZE          IDISFD              0            10-4 bohr
       FD_USEGROUP          IFDGRP         FULL        [  0]    ***   
       FILE_RECSIZ          IFLREC              4096           words  
       FINITE_PERT          IFIPER              0             x 10-6  
       FIXGEOM              IFIXGM         OFF         [  0]    ***   
       FOCK                 IFOCK          AO          [  1]    ***   
       FREQ_ALGORI          IVIALG         STANDARD    [  0]    ***   
       FROZEN_CORE          IFROCO         OFF         [  0]    ***   
       GAMMA_ABCD           IGABCD         STORE       [  0]    ***   
       GAMMA_ABCI           IGABCI         STORE       [  0]    ***   
       GENBAS_1             IGNBS1              0               ***   
       GENBAS_2             IGNBS2              0               ***   
       GENBAS_3             IGNBS3              0               ***   
       GENBAS_4             IGNBS4              0               ***   
       GEO_CONV             ICONTL              5              H/bohr 
       GEO_MAXCYC           IOPTCY             50               ***   
       GEO_MAXSTEP          IMXSTP            300            millibohr
       GEO_METHOD           INR            SINGLE_POINT[  5]    ***   
       GIAO                 IGIAO          OFF         [  1]    ***   
       GIMIC                IGIMIC         OFF         [  0]    ***   
       GRID                 IGRID          OFF         [  0]    ***   
       GRID_ALGO            IGALGO         SERIAL      [  0]    ***   
       GUESS                IGUESS         MOREAD      [  0]    ***   
       HBAR                 IHBAR          OFF         [  0]    ***   
       HESS_TYPE            IHESTP         SCF         [  0]    ***   
       HF2_FILE             IHF2Fl         USE         [  1]    ***   
       HFSTABILITY          ISTABL         OFF         [  0]    ***   
       INCORE               INCORE         OFF         [  0]    ***   
       INPUT_MRCC           IMRCC          ON          [  1]    ***   
       INTEGRALS            INTTYP         VMOL        [  1]    ***   
       JODA_PRINT           IJPRNT              0               ***   
       KEYWORD_OUT          IDMPKW         NO          [  0]    ***   
       LINDEP_TOL           ILINDP              8               ***   
       LINEQ_CONV           IZTACN          10D-  7           cycles  
       LINEQ_EXPOR          ILMAXD              5               ***   
       LINEQ_MAXCY          ILMAXC            100               ***   
       LINEQ_TYPE           ILTYPE         DIIS        [  1]    ***   
       LOCK_ORBOCC          ILOCOC         OFF         [  0]    ***   
       MEMORY_SIZE          IMEMSZ         *********           words  
       MEM_UNIT             IMEMU          GB          [  3]    ***   
       MRCC                 IMRCCC         OFF         [  0]    ***   
       MULTIPLICTY          IMULTP              3               ***   
       NACOUPLING           IVCOUP         OFF         [  0]    ***   
       NEGEVAL              IDIE           ABORT       [  0]    ***   
       NEWNORM              INEWNO         OFF         [  0]    ***   
       NON-HF               INONHF         ON          [  1]    ***   
       NTOP_TAMP            ITOPT2             15               ***   
       NUC_MODEL            INUCMO         POINT       [  0]    ***   
       OCCUPATION           IOCCU  A   2,  1,  1,  0,  0,  0,  0,  0,
                                   B   2,  0,  0,  0,  0,  0,  0,  0,
       OPEN-SHELL           IOPEN          SPIN-ORBITAL[  0]    ***   
       OPTVIB               IOPTVB         OFF         [  0]    ***   
       ORBITALS             IORBTP         SEMICANONICA[  1]    ***   
       PARALLEL             IPARAL         ON          [  1]    ***   
       PARA_INT             IPINTS         ON          [  1]    ***   
       PARA_PRINT           IPPRIN              0               ***   
       PERT_ORB             IPTORB         STANDARD    [  0]    ***   
       POINTS               IGRDFD              0               ***   
       PRINT                IPRNT               0               ***   
       PROPS                IPROPS         OFF         [  0]    ***   
       PROP_INTEGR          IINTYP         INTERNAL    [  0]    ***   
       PSI                  IPSI           OFF         [  0]    ***   
       QC_ALG               IQCALG         FLM         [  0]    ***   
       QC_LINALG            IQCLIN         TRIDIAG     [  2]    ***   
       QC_MAXCYC            IQCMAX          10D-100           cycles  
       QC_MAXSCFCY          IQCMSC          10D- 15           cycles  
       QC_RTRUST            IQCRTR          10D-  0           x 10-3  
       QC_SKIPSCF           IQCSKI         OFF         [  0]    ***   
       QC_START             IQCSTA          10D-  1             ***   
       QRHFGUESS            IQGUES         OFF         [  0]    ***   
       QUARTIC              IQUART         OFF         [  0]    ***   
       RAMAN_INT            IRAMIN         OFF         [  0]    ***   
       RAMAN_ORB            IRAMRE         UNRELAXED   [  0]    ***   
       RDO                  IRDOFM         OFF         [  0]    ***   
       REDUCE_REPR          REDREP         Ir          [  0]    ***   
       REFERENCE            IREFNC         ROHF        [  2]    ***   
       RELATIVIST           IRELAT         OFF         [  0]    ***   
       RELAX_DENS           IRDENS         OFF         [  0]    ***   
       RESET_FLAGS          IRESET         OFF         [  0]    ***   
       RESTART_CC           ICCRES         OFF         [  0]    ***   
       ROT_EVEC             ROTVEC              0               ***   
       SAVE_INTS            ISVINT         ON          [  1]    ***   
       SCALE_ON             ISTCRT              0               ***   
       SCF_CONV             ISCFCV          10D- 10             ***   
       SCF_DAMPING          IDAMP               0             x 10-3  
       SCF_EXPORDE          IRPPOR              6               ***   
       SCF_EXPSTAR          IRPPLS              5               ***   
       SCF_EXTRAPO          IRPP           ON          [  1]    ***   
       SCF_MAXCYC           ISCFCY            ***              cycles 
       SCF_NOSTOP           ISCFST         OFF         [  0]    ***   
       SCF_PRINT            ISCFPR              0               ***   
       SCF_PROG             ISCFPR         SCF         [  0]    ***   
       SD_FIELD             IFINSD              0             x 10-6  
       SOPERT               IPERSO         OFF         [  0]    ***   
       SPHERICAL            IDFGHI         ON          [  1]    ***   
       SPINORBIT            ISOCAL         OFF         [  0]    ***   
       SPINROTATIO          ISRCON         OFF         [  0]    ***   
       SPIN_FLIP            ISPFLP         OFF         [  0]    ***   
       SPIN_ORBIT           ISPORB         OFF         [  0]    ***   
       SPIN_SCAL            ISCSMP         OFF         [  0]    ***   
       STEEPSCALE           ISTPSC              1000          x 10-3  
       SUBGROUP             ISUBGP         DEFAULT     [  0]    ***   
       SUBGRPAXIS           ISBXYZ         X           [  0]    ***   
       SYMMETRY             ISYM           ON          [  0]    ***   
       SYM_CHECK            ISYMCK         OVERRIDE    [  1]    ***   
       T3_EXTRAPOL          IT3EXT         ON          [  1]    ***   
       T4_EXTRAPOL          IT4EXP         OFF         [  0]    ***   
       TAMP_SUM             IEVERY              5               ***   
       TESTSUITE            ITESTS         OFF         [  0]    ***   
       THERMOCH             ITHERM         OFF         [  0]    ***   
       TOL_CHOLESK          ITOLCH          10D-  4             ***   
       TRANGRAD             IRESRM         OFF         [  0]    ***   
       TRANS_INV            ITRAIN         USE         [  0]    ***   
       TREAT_PERT           ITREAT         SIMULTANEOUS[  0]    ***   
       TRIP_ALGORI          ITRALG         NORMAL      [  0]    ***   
       UIJ_THRESHO          IUIJTH              1               ***   
       UNITS                IUNITS         ANGSTROM    [  0]    ***   
       UNOS                 IUNOS          OFF         [  0]    ***   
       UPDATE_HESS          IHUPDT         ON          [  1]    ***   
       VIBPHASE             ISETPH         STANDARD    [  0]    ***   
       VIBRATION            IVIB           NO          [  0]    ***   
       VIB_ALGORIT          IGEALG         STANDARD    [  0]    ***   
       VNATORB              IVNORB         OFF         [  0]    ***   
       VTRAN                IVTRAN         FULL/PARTIAL[  0]    ***   
       XFIELD               IXEFLD              0             x 10-6  
       XFORM_TOL            IXFTOL          10D- 18             ***   
       YFIELD               IYEFLD              0             x 10-6  
       ZFIELD               IZEFLD              0             x 10-6  
       ZSCALE_EXP           IZEXPS         OFF         [  0]    ***   
    -------------------------------------------------------------------
   1 entries found in Z-matrix 
   Job Title : Test                                                                            
   Rotational constants (in cm-1): 

   Rotational constants (in MHz): 

********************************************************************************
   The full molecular point group is I h .
   The largest Abelian subgroup of the full molecular point group is D2h .
   The computational point group is D2h .
********************************************************************************
  ECPDATA file not present.   Using default ECPDATA. 
  @GTFLGS-W, Keyword #FROZEN_CORE not known and is ignored.
  @GTFLGS-W, Keyword #DROPMO not known and is ignored.
  @GTFLGS-W, Keyword #INPUT_MRCC not known and is ignored.
  @GTFLGS-W, Keyword #CC_PROG not known and is ignored.
  @GTFLGS-W, Keyword #SCF_DAMPING not known and is ignored.
  There are  279 basis functions.
 @GEOPT-W, Archive file not created for single-point calculation.
 @CHECKOUT-I, Total execution time (CPU/WALL):        0.32/       0.41 seconds.
--executable xjoda finished with status     0 in        0.48 seconds (walltime).
 --invoking executable--
/cvmfs/restricted.computecanada.ca/easybuild/software/2020/avx2/Compiler/intel2020/cfour/2.1/bin/xvmol
 SERIAL VERSION OF MOLECULE STARTED
********************************************************************************
                    INPUT FROM MOL FILE
********************************************************************************
INTGRL        1    0    1    0    0    0    0    0    0                         
         *** CFOUR Program System (Release V0.1) ***                            
Test                                                                            
    1    3 X  Y   Z   0.10E-08              0    0                              
   9999.00      3.00                                                            
          7.00000000    1    7    1    1    1    1    1    1    1               
N #1   0.000000000000000   0.000000000000000   0.000000000000000                
   22   13                                                                      
   432300.000000000       5.500000000000000E-006 -1.200000000000000E-006        
  0.000000000000000E+000  0.000000000000000E+000  0.000000000000000E+000        
  0.000000000000000E+000  0.000000000000000E+000  0.000000000000000E+000        
  0.000000000000000E+000  0.000000000000000E+000  0.000000000000000E+000        
  0.000000000000000E+000  0.000000000000000E+000                                
   64700.0000000000       4.350000000000000E-005 -9.500000000000001E-006        
  0.000000000000000E+000  0.000000000000000E+000  0.000000000000000E+000        
  0.000000000000000E+000  0.000000000000000E+000  0.000000000000000E+000        
  0.000000000000000E+000  0.000000000000000E+000  0.000000000000000E+000        
  0.000000000000000E+000  0.000000000000000E+000                                
   14720.0000000000       2.289000000000000E-004 -5.050000000000000E-005        
  0.000000000000000E+000  0.000000000000000E+000  0.000000000000000E+000        
  0.000000000000000E+000  0.000000000000000E+000  0.000000000000000E+000        
  0.000000000000000E+000  0.000000000000000E+000  0.000000000000000E+000        
  0.000000000000000E+000  0.000000000000000E+000                                
   4170.00000000000       9.650000000000000E-004 -2.126000000000000E-004        
  0.000000000000000E+000  0.000000000000000E+000  0.000000000000000E+000        
  0.000000000000000E+000  0.000000000000000E+000  0.000000000000000E+000        
  0.000000000000000E+000  0.000000000000000E+000  0.000000000000000E+000        
  0.000000000000000E+000  0.000000000000000E+000                                
   1361.00000000000       3.502100000000000E-003 -7.753000000000000E-004        
  0.000000000000000E+000  0.000000000000000E+000  0.000000000000000E+000        
  0.000000000000000E+000  0.000000000000000E+000  0.000000000000000E+000        
  0.000000000000000E+000  0.000000000000000E+000  0.000000000000000E+000        
  0.000000000000000E+000  0.000000000000000E+000                                
   491.200000000000       1.129210000000000E-002 -2.506200000000000E-003        
  0.000000000000000E+000  0.000000000000000E+000  0.000000000000000E+000        
  0.000000000000000E+000  0.000000000000000E+000  0.000000000000000E+000        
  0.000000000000000E+000  0.000000000000000E+000  0.000000000000000E+000        
  0.000000000000000E+000  0.000000000000000E+000                                
   191.600000000000       3.261280000000000E-002 -7.365200000000000E-003        
  0.000000000000000E+000  0.000000000000000E+000  0.000000000000000E+000        
  0.000000000000000E+000  0.000000000000000E+000  0.000000000000000E+000        
  0.000000000000000E+000  0.000000000000000E+000  0.000000000000000E+000        
  0.000000000000000E+000  0.000000000000000E+000                                
   79.4100000000000       8.329720000000000E-002 -1.930160000000000E-002        
  0.000000000000000E+000  0.000000000000000E+000  0.000000000000000E+000        
  0.000000000000000E+000  0.000000000000000E+000  0.000000000000000E+000        
  0.000000000000000E+000  0.000000000000000E+000  0.000000000000000E+000        
  0.000000000000000E+000  0.000000000000000E+000                                
   34.5300000000000       0.179985600000000      -4.471730000000000E-002        
  0.000000000000000E+000  0.000000000000000E+000  0.000000000000000E+000        
  0.000000000000000E+000  0.000000000000000E+000  0.000000000000000E+000        
  0.000000000000000E+000  0.000000000000000E+000  0.000000000000000E+000        
  0.000000000000000E+000  0.000000000000000E+000                                
   15.5800000000000       0.305003500000000      -8.606640000000000E-002        
  0.000000000000000E+000  0.000000000000000E+000  0.000000000000000E+000        
  0.000000000000000E+000  0.000000000000000E+000  0.000000000000000E+000        
  0.000000000000000E+000  0.000000000000000E+000  0.000000000000000E+000        
  0.000000000000000E+000  0.000000000000000E+000                                
   7.23200000000000       0.341159300000000      -0.133296200000000             
  0.000000000000000E+000  0.000000000000000E+000  0.000000000000000E+000        
  0.000000000000000E+000  0.000000000000000E+000  0.000000000000000E+000        
  0.000000000000000E+000  0.000000000000000E+000  0.000000000000000E+000        
  0.000000000000000E+000  0.000000000000000E+000                                
   3.38200000000000       0.000000000000000E+000  0.000000000000000E+000        
   1.00000000000000       0.000000000000000E+000  0.000000000000000E+000        
  0.000000000000000E+000  0.000000000000000E+000  0.000000000000000E+000        
  0.000000000000000E+000  0.000000000000000E+000  0.000000000000000E+000        
  0.000000000000000E+000  0.000000000000000E+000                                
   1.36900000000000       0.000000000000000E+000  0.000000000000000E+000        
  0.000000000000000E+000   1.00000000000000       0.000000000000000E+000        
  0.000000000000000E+000  0.000000000000000E+000  0.000000000000000E+000        
  0.000000000000000E+000  0.000000000000000E+000  0.000000000000000E+000        
  0.000000000000000E+000  0.000000000000000E+000                                
  0.624800000000000       0.000000000000000E+000  0.000000000000000E+000        
  0.000000000000000E+000  0.000000000000000E+000   1.00000000000000             
  0.000000000000000E+000  0.000000000000000E+000  0.000000000000000E+000        
  0.000000000000000E+000  0.000000000000000E+000  0.000000000000000E+000        
  0.000000000000000E+000  0.000000000000000E+000                                
  0.274700000000000       0.000000000000000E+000  0.000000000000000E+000        
  0.000000000000000E+000  0.000000000000000E+000  0.000000000000000E+000        
   1.00000000000000       0.000000000000000E+000  0.000000000000000E+000        
  0.000000000000000E+000  0.000000000000000E+000  0.000000000000000E+000        
  0.000000000000000E+000  0.000000000000000E+000                                
  0.119200000000000       0.000000000000000E+000  0.000000000000000E+000        
  0.000000000000000E+000  0.000000000000000E+000  0.000000000000000E+000        
  0.000000000000000E+000   1.00000000000000       0.000000000000000E+000        
  0.000000000000000E+000  0.000000000000000E+000  0.000000000000000E+000        
  0.000000000000000E+000  0.000000000000000E+000                                
   246.262000000000       0.000000000000000E+000  0.000000000000000E+000        
  0.000000000000000E+000  0.000000000000000E+000  0.000000000000000E+000        
  0.000000000000000E+000  0.000000000000000E+000   1.00000000000000             
  0.000000000000000E+000  0.000000000000000E+000  0.000000000000000E+000        
  0.000000000000000E+000  0.000000000000000E+000                                
   124.187000000000       0.000000000000000E+000  0.000000000000000E+000        
  0.000000000000000E+000  0.000000000000000E+000  0.000000000000000E+000        
  0.000000000000000E+000  0.000000000000000E+000  0.000000000000000E+000        
   1.00000000000000       0.000000000000000E+000  0.000000000000000E+000        
  0.000000000000000E+000  0.000000000000000E+000                                
   62.6260000000000       0.000000000000000E+000  0.000000000000000E+000        
  0.000000000000000E+000  0.000000000000000E+000  0.000000000000000E+000        
  0.000000000000000E+000  0.000000000000000E+000  0.000000000000000E+000        
  0.000000000000000E+000   1.00000000000000       0.000000000000000E+000        
  0.000000000000000E+000  0.000000000000000E+000                                
   31.5810000000000       0.000000000000000E+000  0.000000000000000E+000        
  0.000000000000000E+000  0.000000000000000E+000  0.000000000000000E+000        
  0.000000000000000E+000  0.000000000000000E+000  0.000000000000000E+000        
  0.000000000000000E+000  0.000000000000000E+000   1.00000000000000             
  0.000000000000000E+000  0.000000000000000E+000                                
   15.9260000000000       0.000000000000000E+000  0.000000000000000E+000        
  0.000000000000000E+000  0.000000000000000E+000  0.000000000000000E+000        
  0.000000000000000E+000  0.000000000000000E+000  0.000000000000000E+000        
  0.000000000000000E+000  0.000000000000000E+000  0.000000000000000E+000        
   1.00000000000000       0.000000000000000E+000                                
  4.714000000000000E-002  0.000000000000000E+000  0.000000000000000E+000        
  0.000000000000000E+000  0.000000000000000E+000  0.000000000000000E+000        
  0.000000000000000E+000  0.000000000000000E+000  0.000000000000000E+000        
  0.000000000000000E+000  0.000000000000000E+000  0.000000000000000E+000        
  0.000000000000000E+000   1.00000000000000                                     
   16   12                                                                      
   415.900000000000       1.484000000000000E-004  0.000000000000000E+000        
  0.000000000000000E+000  0.000000000000000E+000  0.000000000000000E+000        
  0.000000000000000E+000  0.000000000000000E+000  0.000000000000000E+000        
  0.000000000000000E+000  0.000000000000000E+000  0.000000000000000E+000        
  0.000000000000000E+000                                                        
   98.6100000000000       1.276300000000000E-003  0.000000000000000E+000        
  0.000000000000000E+000  0.000000000000000E+000  0.000000000000000E+000        
  0.000000000000000E+000  0.000000000000000E+000  0.000000000000000E+000        
  0.000000000000000E+000  0.000000000000000E+000  0.000000000000000E+000        
  0.000000000000000E+000                                                        
   31.9200000000000       6.702400000000000E-003  0.000000000000000E+000        
  0.000000000000000E+000  0.000000000000000E+000  0.000000000000000E+000        
  0.000000000000000E+000  0.000000000000000E+000  0.000000000000000E+000        
  0.000000000000000E+000  0.000000000000000E+000  0.000000000000000E+000        
  0.000000000000000E+000                                                        
   12.0000000000000       2.526170000000000E-002  0.000000000000000E+000        
  0.000000000000000E+000  0.000000000000000E+000  0.000000000000000E+000        
  0.000000000000000E+000  0.000000000000000E+000  0.000000000000000E+000        
  0.000000000000000E+000  0.000000000000000E+000  0.000000000000000E+000        
  0.000000000000000E+000                                                        
   4.91900000000000       7.518940000000000E-002  0.000000000000000E+000        
  0.000000000000000E+000  0.000000000000000E+000  0.000000000000000E+000        
  0.000000000000000E+000  0.000000000000000E+000  0.000000000000000E+000        
  0.000000000000000E+000  0.000000000000000E+000  0.000000000000000E+000        
  0.000000000000000E+000                                                        
   2.14800000000000       0.000000000000000E+000   1.00000000000000             
  0.000000000000000E+000  0.000000000000000E+000  0.000000000000000E+000        
  0.000000000000000E+000  0.000000000000000E+000  0.000000000000000E+000        
  0.000000000000000E+000  0.000000000000000E+000  0.000000000000000E+000        
  0.000000000000000E+000                                                        
  0.969600000000000       0.000000000000000E+000  0.000000000000000E+000        
   1.00000000000000       0.000000000000000E+000  0.000000000000000E+000        
  0.000000000000000E+000  0.000000000000000E+000  0.000000000000000E+000        
  0.000000000000000E+000  0.000000000000000E+000  0.000000000000000E+000        
  0.000000000000000E+000                                                        
  0.439900000000000       0.000000000000000E+000  0.000000000000000E+000        
  0.000000000000000E+000   1.00000000000000       0.000000000000000E+000        
  0.000000000000000E+000  0.000000000000000E+000  0.000000000000000E+000        
  0.000000000000000E+000  0.000000000000000E+000  0.000000000000000E+000        
  0.000000000000000E+000                                                        
  0.197800000000000       0.000000000000000E+000  0.000000000000000E+000        
  0.000000000000000E+000  0.000000000000000E+000   1.00000000000000             
  0.000000000000000E+000  0.000000000000000E+000  0.000000000000000E+000        
  0.000000000000000E+000  0.000000000000000E+000  0.000000000000000E+000        
  0.000000000000000E+000                                                        
  8.603000000000000E-002  0.000000000000000E+000  0.000000000000000E+000        
  0.000000000000000E+000  0.000000000000000E+000  0.000000000000000E+000        
   1.00000000000000       0.000000000000000E+000  0.000000000000000E+000        
  0.000000000000000E+000  0.000000000000000E+000  0.000000000000000E+000        
  0.000000000000000E+000                                                        
   270.142000000000       0.000000000000000E+000  0.000000000000000E+000        
  0.000000000000000E+000  0.000000000000000E+000  0.000000000000000E+000        
  0.000000000000000E+000   1.00000000000000       0.000000000000000E+000        
  0.000000000000000E+000  0.000000000000000E+000  0.000000000000000E+000        
  0.000000000000000E+000                                                        
   123.465000000000       0.000000000000000E+000  0.000000000000000E+000        
  0.000000000000000E+000  0.000000000000000E+000  0.000000000000000E+000        
  0.000000000000000E+000  0.000000000000000E+000   1.00000000000000             
  0.000000000000000E+000  0.000000000000000E+000  0.000000000000000E+000        
  0.000000000000000E+000                                                        
   56.4280000000000       0.000000000000000E+000  0.000000000000000E+000        
  0.000000000000000E+000  0.000000000000000E+000  0.000000000000000E+000        
  0.000000000000000E+000  0.000000000000000E+000  0.000000000000000E+000        
   1.00000000000000       0.000000000000000E+000  0.000000000000000E+000        
  0.000000000000000E+000                                                        
   25.7900000000000       0.000000000000000E+000  0.000000000000000E+000        
  0.000000000000000E+000  0.000000000000000E+000  0.000000000000000E+000        
  0.000000000000000E+000  0.000000000000000E+000  0.000000000000000E+000        
  0.000000000000000E+000   1.00000000000000       0.000000000000000E+000        
  0.000000000000000E+000                                                        
   11.7870000000000       0.000000000000000E+000  0.000000000000000E+000        
  0.000000000000000E+000  0.000000000000000E+000  0.000000000000000E+000        
  0.000000000000000E+000  0.000000000000000E+000  0.000000000000000E+000        
  0.000000000000000E+000  0.000000000000000E+000   1.00000000000000             
  0.000000000000000E+000                                                        
  3.150000000000000E-002  0.000000000000000E+000  0.000000000000000E+000        
  0.000000000000000E+000  0.000000000000000E+000  0.000000000000000E+000        
  0.000000000000000E+000  0.000000000000000E+000  0.000000000000000E+000        
  0.000000000000000E+000  0.000000000000000E+000  0.000000000000000E+000        
   1.00000000000000                                                             
   10   10                                                                      
   6.71700000000000        1.00000000000000       0.000000000000000E+000        
  0.000000000000000E+000  0.000000000000000E+000  0.000000000000000E+000        
  0.000000000000000E+000  0.000000000000000E+000  0.000000000000000E+000        
  0.000000000000000E+000  0.000000000000000E+000                                
   2.89600000000000       0.000000000000000E+000   1.00000000000000             
  0.000000000000000E+000  0.000000000000000E+000  0.000000000000000E+000        
  0.000000000000000E+000  0.000000000000000E+000  0.000000000000000E+000        
  0.000000000000000E+000  0.000000000000000E+000                                
   1.24900000000000       0.000000000000000E+000  0.000000000000000E+000        
   1.00000000000000       0.000000000000000E+000  0.000000000000000E+000        
  0.000000000000000E+000  0.000000000000000E+000  0.000000000000000E+000        
  0.000000000000000E+000  0.000000000000000E+000                                
  0.538000000000000       0.000000000000000E+000  0.000000000000000E+000        
  0.000000000000000E+000   1.00000000000000       0.000000000000000E+000        
  0.000000000000000E+000  0.000000000000000E+000  0.000000000000000E+000        
  0.000000000000000E+000  0.000000000000000E+000                                
  0.232000000000000       0.000000000000000E+000  0.000000000000000E+000        
  0.000000000000000E+000  0.000000000000000E+000   1.00000000000000             
  0.000000000000000E+000  0.000000000000000E+000  0.000000000000000E+000        
  0.000000000000000E+000  0.000000000000000E+000                                
   199.920000000000       0.000000000000000E+000  0.000000000000000E+000        
  0.000000000000000E+000  0.000000000000000E+000  0.000000000000000E+000        
   1.00000000000000       0.000000000000000E+000  0.000000000000000E+000        
  0.000000000000000E+000  0.000000000000000E+000                                
   87.1110000000000       0.000000000000000E+000  0.000000000000000E+000        
  0.000000000000000E+000  0.000000000000000E+000  0.000000000000000E+000        
  0.000000000000000E+000   1.00000000000000       0.000000000000000E+000        
  0.000000000000000E+000  0.000000000000000E+000                                
   37.9570000000000       0.000000000000000E+000  0.000000000000000E+000        
  0.000000000000000E+000  0.000000000000000E+000  0.000000000000000E+000        
  0.000000000000000E+000  0.000000000000000E+000   1.00000000000000             
  0.000000000000000E+000  0.000000000000000E+000                                
   16.5390000000000       0.000000000000000E+000  0.000000000000000E+000        
  0.000000000000000E+000  0.000000000000000E+000  0.000000000000000E+000        
  0.000000000000000E+000  0.000000000000000E+000  0.000000000000000E+000        
   1.00000000000000       0.000000000000000E+000                                
  8.740000000000001E-002  0.000000000000000E+000  0.000000000000000E+000        
  0.000000000000000E+000  0.000000000000000E+000  0.000000000000000E+000        
  0.000000000000000E+000  0.000000000000000E+000  0.000000000000000E+000        
  0.000000000000000E+000   1.00000000000000                                     
    8    8                                                                      
   3.82900000000000        1.00000000000000       0.000000000000000E+000        
  0.000000000000000E+000  0.000000000000000E+000  0.000000000000000E+000        
  0.000000000000000E+000  0.000000000000000E+000  0.000000000000000E+000        
   1.79500000000000       0.000000000000000E+000   1.00000000000000             
  0.000000000000000E+000  0.000000000000000E+000  0.000000000000000E+000        
  0.000000000000000E+000  0.000000000000000E+000  0.000000000000000E+000        
  0.841000000000000       0.000000000000000E+000  0.000000000000000E+000        
   1.00000000000000       0.000000000000000E+000  0.000000000000000E+000        
  0.000000000000000E+000  0.000000000000000E+000  0.000000000000000E+000        
  0.394000000000000       0.000000000000000E+000  0.000000000000000E+000        
  0.000000000000000E+000   1.00000000000000       0.000000000000000E+000        
  0.000000000000000E+000  0.000000000000000E+000  0.000000000000000E+000        
   105.346000000000       0.000000000000000E+000  0.000000000000000E+000        
  0.000000000000000E+000  0.000000000000000E+000   1.00000000000000             
  0.000000000000000E+000  0.000000000000000E+000  0.000000000000000E+000        
   37.5300000000000       0.000000000000000E+000  0.000000000000000E+000        
  0.000000000000000E+000  0.000000000000000E+000  0.000000000000000E+000        
   1.00000000000000       0.000000000000000E+000  0.000000000000000E+000        
   13.3700000000000       0.000000000000000E+000  0.000000000000000E+000        
  0.000000000000000E+000  0.000000000000000E+000  0.000000000000000E+000        
  0.000000000000000E+000   1.00000000000000       0.000000000000000E+000        
  0.151000000000000       0.000000000000000E+000  0.000000000000000E+000        
  0.000000000000000E+000  0.000000000000000E+000  0.000000000000000E+000        
  0.000000000000000E+000  0.000000000000000E+000   1.00000000000000             
    6    6                                                                      
   3.85600000000000        1.00000000000000       0.000000000000000E+000        
  0.000000000000000E+000  0.000000000000000E+000  0.000000000000000E+000        
  0.000000000000000E+000                                                        
   1.70200000000000       0.000000000000000E+000   1.00000000000000             
  0.000000000000000E+000  0.000000000000000E+000  0.000000000000000E+000        
  0.000000000000000E+000                                                        
  0.751000000000000       0.000000000000000E+000  0.000000000000000E+000        
   1.00000000000000       0.000000000000000E+000  0.000000000000000E+000        
  0.000000000000000E+000                                                        
   67.1880000000000       0.000000000000000E+000  0.000000000000000E+000        
  0.000000000000000E+000   1.00000000000000       0.000000000000000E+000        
  0.000000000000000E+000                                                        
   20.3600000000000       0.000000000000000E+000  0.000000000000000E+000        
  0.000000000000000E+000  0.000000000000000E+000   1.00000000000000             
  0.000000000000000E+000                                                        
  0.326000000000000       0.000000000000000E+000  0.000000000000000E+000        
  0.000000000000000E+000  0.000000000000000E+000  0.000000000000000E+000        
   1.00000000000000                                                             
    4    4                                                                      
   2.87500000000000        1.00000000000000       0.000000000000000E+000        
  0.000000000000000E+000  0.000000000000000E+000                                
   1.17000000000000       0.000000000000000E+000   1.00000000000000             
  0.000000000000000E+000  0.000000000000000E+000                                
   52.0500000000000       0.000000000000000E+000  0.000000000000000E+000        
   1.00000000000000       0.000000000000000E+000                                
  0.587000000000000       0.000000000000000E+000  0.000000000000000E+000        
  0.000000000000000E+000   1.00000000000000                                     
    2    2                                                                      
   2.09900000000000        1.00000000000000       0.000000000000000E+000        
   1.04100000000000       0.000000000000000E+000   1.00000000000000             
FINISH                                                                          
 
********************************************************************************
 ONE- AND TWO-ELECTRON INTEGRALS OVER SYMMETRY-ADAPTED AOS ARE CALCULATED.

  SPHERICAL HARMONICS ARE USED.
  
  INTEGRALS LESS THAN  0.10E-13 ARE NEGLECTED.

   BASIS FUNCTION NOT NORMALIZED: 
   CENTER (AS ORDERED IN MOL FILE):   1
   ANGULAR MOMENTUM TYPE          : S
   OFFSET WITHIN ANGULAR MOMENTUM :  1
   <CHI|CHI>                      :    1.1714440624
   BASIS FUNCTION NOT NORMALIZED: 
   CENTER (AS ORDERED IN MOL FILE):   1
   ANGULAR MOMENTUM TYPE          : S
   OFFSET WITHIN ANGULAR MOMENTUM :  2
   <CHI|CHI>                      :    3.7623155081
   BASIS FUNCTION NOT NORMALIZED: 
   CENTER (AS ORDERED IN MOL FILE):   1
   ANGULAR MOMENTUM TYPE          : P
   OFFSET WITHIN ANGULAR MOMENTUM :  1
   <CHI|CHI>                      :    9.9907394657
  NUCLEAR REPULSION ENERGY :    0.0000000000 A.U.
  @MOLECU-I, ONE ELECTRON INTEGRALS (CPU/WALL):        0.18/       0.18 SECONDS.
  @TWOEL-I,    1840768 INTEGRALS OF SYMMETRY TYPE  I I I I
  @TWOEL-I,   17046861 INTEGRALS OF SYMMETRY TYPE  I J I J
  @TWOEL-I,    9616124 INTEGRALS OF SYMMETRY TYPE  I I J J
  @TWOEL-I,   42389562 INTEGRALS OF SYMMETRY TYPE  I J K L
  @TWOEL-I, TOTAL NUMBER OF 2-E INTEGRALS   70893315.
  @MOLECU-I, TWO ELECTRON INTEGRALS (CPU/WALL):      267.42/     267.79 SECONDS.
 @CHECKOUT-I, Total execution time (CPU/WALL):      267.62/     268.00 seconds.

OMP_NUM_THREADS not specified; defaulting to 1
Running with 1 threads/proc

--executable xvmol finished with status     0 in      268.04 seconds (walltime).
 --invoking executable--
/cvmfs/restricted.computecanada.ca/easybuild/software/2020/avx2/Compiler/intel2020/cfour/2.1/bin/xvmol2ja
 @GETMEM-I,  Allocated   19073 MB of main memory.
 @CHECKOUT-I, Total execution time (CPU/WALL):        0.22/       0.10 seconds.
--executable xvmol2ja finished with status     0 in        0.14 seconds (walltime).
 --invoking executable--
/cvmfs/restricted.computecanada.ca/easybuild/software/2020/avx2/Compiler/intel2020/cfour/2.1/bin/xvscf
  There are  279 functions in the AO basis.

  There are 8 irreducible representations.

       Irrep        # of functions
         1                 59
         2                 40
         3                 40
         4                 28
         5                 40
         6                 28
         7                 28
         8                 16


  Parameters for SCF calculation: 
        SCF reference function: ROHF  
  Maximum number of iterations: 9999
     Full symmetry point group: I h 
     Computational point group: D2h 
        Initial density matrix: MOREAD                 
     SCF convergence tolerance: 10**(-10)
  DIIS convergence acceleration:  ON
          Latest start for DIIS:   5
                     DIIS order:   6

     Alpha population by irrep:   2    1    1    0    0    0    0    0
      Beta population by irrep:   2    0    0    0    0    0    0    0


  Memory information:    5506270 words required.
  Fock matrices are constructed from AO integral file.
 @GETMEM-I,  Allocated      42 MB of main memory.
  Initialization and symmetry analysis required      0.003 seconds.

 total no. of electrons in initial guess :  0.000000000000000E+000
 total no. of electrons in initial guess :  0.000000000000000E+000
  --------------------------------------------------------------------
  Iteration         Total Energy            Largest Density Difference
  --------------------------------------------------------------------
       0             0.000000000000000              0.0000000000D+00
   current occupation vector 
     2  1  1  0  0  0  0  0
     2  0  0  0  0  0  0  0
       1           -50.666413436985728              0.9411126112D+00
   current occupation vector 
     2  1  1  0  0  0  0  0
     2  0  0  0  0  0  0  0
       2           -52.790050046958768              0.5087271828D+00
   current occupation vector 
     2  1  1  0  0  0  0  0
     2  0  0  0  0  0  0  0
       3           -53.852168144396039              0.1570172832D+00
   current occupation vector 
     2  1  1  0  0  0  0  0
     2  0  0  0  0  0  0  0
       4           -53.887213291595749              0.7315123586D-01
   current occupation vector 
     2  1  1  0  0  0  0  0
     2  0  0  0  0  0  0  0
       5           -53.888029130425572              0.1400163831D-01
   current occupation vector 
     2  1  1  0  0  0  0  0
     2  0  0  0  0  0  0  0
       6           -53.888058830951273              0.2496855662D-02
   current occupation vector 
     2  1  1  0  0  0  0  0
     2  0  0  0  0  0  0  0
       7           -53.888060616330087              0.7433280315D-03
   current occupation vector 
     2  1  1  0  0  0  0  0
     2  0  0  0  0  0  0  0
       8           -53.888060887003320              0.1890558449D-03
   current occupation vector 
     2  1  1  0  0  0  0  0
     2  0  0  0  0  0  0  0
       9           -53.888060887391013              0.7331873313D-05
   current occupation vector 
     2  1  1  0  0  0  0  0
     2  0  0  0  0  0  0  0
      10           -53.888060887400584              0.1956161648D-05
   current occupation vector 
     2  1  1  0  0  0  0  0
     2  0  0  0  0  0  0  0
      11           -53.888060887401437              0.3952943742D-06
   current occupation vector 
     2  1  1  0  0  0  0  0
     2  0  0  0  0  0  0  0
      12           -53.888060887401281              0.1812341405D-07
   current occupation vector 
     2  1  1  0  0  0  0  0
     2  0  0  0  0  0  0  0
      13           -53.888060887401402              0.1758018342D-08
   current occupation vector 
     2  1  1  0  0  0  0  0
     2  0  0  0  0  0  0  0
      14           -53.888060887401416              0.1539122441D-09
   current occupation vector 
     2  1  1  0  0  0  0  0
     2  0  0  0  0  0  0  0

  SCF has converged.

 Density matrix saved to file den.dat
 total alpha spin electron number:   4.00000000000000     
 total  beta spin electron number:   2.00000000000000     
     E(ROHF)=       -53.888060887401139              0.1465139121D-10

  Eigenvector printing suppressed.


       The average multiplicity is    3.0000000
  The expectation value of S**2 is    2.0000000

 @PUTMOS-I, Writing converged MOs to NEWMOS. 
 @PUTMOS-I, Symmetry   1 Full Blocks 14 Partial Blocksize   3
 @PUTMOS-I, Symmetry   2 Full Blocks 10 Partial Blocksize   0
 @PUTMOS-I, Symmetry   3 Full Blocks 10 Partial Blocksize   0
 @PUTMOS-I, Symmetry   4 Full Blocks  7 Partial Blocksize   0
 @PUTMOS-I, Symmetry   5 Full Blocks 10 Partial Blocksize   0
 @PUTMOS-I, Symmetry   6 Full Blocks  7 Partial Blocksize   0
 @PUTMOS-I, Symmetry   7 Full Blocks  7 Partial Blocksize   0
 @PUTMOS-I, Symmetry   8 Full Blocks  4 Partial Blocksize   0
 @PUTFOCK-I, Writing converged Fock matrix to NEWFOCK. 
 @PUTFOCK-I, Symmetry   1 Full Blocks 14 Partial Blocksize   3
 @PUTFOCK-I, Symmetry   2 Full Blocks 10 Partial Blocksize   0
 @PUTFOCK-I, Symmetry   3 Full Blocks 10 Partial Blocksize   0
 @PUTFOCK-I, Symmetry   4 Full Blocks  7 Partial Blocksize   0
 @PUTFOCK-I, Symmetry   5 Full Blocks 10 Partial Blocksize   0
 @PUTFOCK-I, Symmetry   6 Full Blocks  7 Partial Blocksize   0
 @PUTFOCK-I, Symmetry   7 Full Blocks  7 Partial Blocksize   0
 @PUTFOCK-I, Symmetry   8 Full Blocks  4 Partial Blocksize   0
  @DMPJOB-I, Rotating orbitals to semicanonical basis.
             *** Eigenvalues correspond to new basis. ***

  @PRJDEN-I, Basis set contains h and/or higher angular momentum functions.
             Analysis of density matrix symmetry not available.
             Check irreps of the molecular orbitals in the full point group
             for presence of an asymmetric solution.

 
  ORBITAL EIGENVALUES (ALPHA)  (1H = 27.2113834 eV)

       MO #        E(hartree)               E(eV)           FULLSYM    COMPSYM
       ----   --------------------   --------------------   -------   ---------
    1     1         -16.3207329115        -444.1097206235      Ag        Ag (1)
    2     2          -1.6128378037         -43.8875478376      Ag        Ag (1)
    3    60          -1.1101372023         -30.2083690373       u       B2u (2)
    4   100          -1.1101372023         -30.2083690373       u       B3u (3)
  +++++++++++++++++++++++++++++++++++++++++++++++++++++++++++++++++++++++++++++
    5   168          -0.4672991917         -12.7158574674      Au       B1u (5)
    6     3          -0.1366748433          -3.7191115612      Ag        Ag (1)
    7   101          -0.0939323630          -2.5560295420       u       B3u (3)
    8    61          -0.0939323630          -2.5560295420       u       B2u (2)
    9   169          -0.0888085699          -2.4166040458      Au       B1u (5)
   10     4           0.0357121966           0.9717782749      Ag        Ag (1)
   11   236           0.0365121818           0.9935469779       g       B2g (7)
   12   208           0.0365121818           0.9935469779       g       B3g (6)
   13   140           0.0391171647           1.0644321653       g       B1g (4)
   14     5           0.0391171647           1.0644321653       g        Ag (1)
   15   102           0.0723023057           1.9674457621       u       B3u (3)
   16    62           0.0723023057           1.9674457621       u       B2u (2)
   17   170           0.0877101526           2.3867145898      Au       B1u (5)
   18     6           0.1641617350           4.4670679115      Ag        Ag (1)
   19   171           0.3570431423           9.7156378362      Au       B1u (5)
   20    63           0.3579194448           9.7394832379       u       B2u (2)
   21   103           0.3579194448           9.7394832379       u       B3u (3)
   22   264           0.3605638831           9.8114420635       u        Au (8)
   23   172           0.3605638831           9.8114420635       u       B1u (5)
   24    64           0.3650301632           9.9329757242       u       B2u (2)
   25   104           0.3650301632           9.9329757242       u       B3u (3)
   26   141           0.4771946658          12.9851270084       g       B1g (4)
   27     7           0.4771946658          12.9851270084       g        Ag (1)
   28   209           0.4805332346          13.0759740819       g       B3g (6)
   29   237           0.4805332346          13.0759740819       g       B2g (7)
   30     8           0.4818316858          13.1113067352      Ag        Ag (1)
   31    65           0.5939963227          16.1634616761       u       B2u (2)
   32   105           0.5939963227          16.1634616761       u       B3u (3)
   33   173           0.6250467709          17.0083873260      Au       B1u (5)
   34     9           1.1542137925          31.4077540340      Ag        Ag (1)
   35    10           1.2962811577          35.2736035776      Ag        Ag (1)
   36   210           1.2973109878          35.3016266792       g       B3g (6)
   37   238           1.2973109878          35.3016266792       g       B2g (7)
   38    11           1.3004099718          35.3859543189       g        Ag (1)
   39   142           1.3004099718          35.3859543189       g       B1g (4)
   40   211           1.3056010516          35.5272107832       g       B3g (6)
   41   239           1.3056010516          35.5272107832       g       B2g (7)
   42    12           1.3129072418          35.7260223255       g        Ag (1)
   43   143           1.3129072418          35.7260223255       g       B1g (4)
   44   174           1.4220863799          38.6969377108      Au       B1u (5)
   45   106           1.4240190165          38.7495274261       u       B3u (3)
   46    66           1.4240190165          38.7495274261       u       B2u (2)
   47   175           1.4298216593          38.9074253639       u       B1u (5)
   48   265           1.4298216593          38.9074253639       u        Au (8)
   49    67           1.4395252805          39.1714743208       u       B2u (2)
   50   107           1.4395252805          39.1714743208       u       B3u (3)
   51    13           1.5646377078          42.5759565492       g        Ag (1)
   52   144           1.5646377078          42.5759565492       g       B1g (4)
   53   212           1.5745483660          42.8456392686       g       B3g (6)
   54   240           1.5745483660          42.8456392686       g       B2g (7)
   55    14           1.5782094219          42.9452616649      Ag        Ag (1)
   56    68           1.9997668288          54.4164218891       u       B2u (2)
   57   108           1.9997668288          54.4164218891       u       B3u (3)
   58   176           2.0243488808          55.0853335312      Au       B1u (5)
   59   177           3.0491432484          82.9714059734      Au       B1u (5)
   60    69           3.0502428656          83.0013280795       u       B2u (2)
   61   109           3.0502428656          83.0013280795       u       B3u (3)
   62   178           3.0535456442          83.0912012529       u       B1u (5)
   63   266           3.0535456442          83.0912012529       u        Au (8)
   64    70           3.0590634229          83.2413476442       u       B2u (2)
   65   110           3.0590634229          83.2413476442       u       B3u (3)
   66   179           3.0668161375          83.4523097348               B1u (5)
   67   267           3.0668161375          83.4523097348                Au (8)
   68    71           3.0768321403          83.7248590283       u       B2u (2)
   69   111           3.0768321403          83.7248590283       u       B3u (3)
   70   180           3.7327460853         101.5731848610      Au       B1u (5)
   71   112           3.7358899593         101.6587340236       u       B3u (3)
   72    72           3.7358899593         101.6587340236       u       B2u (2)
   73   181           3.7453174253         101.9152684149       u       B1u (5)
   74   268           3.7453174253         101.9152684149       u        Au (8)
   75   113           3.7610299487         102.3428279124       u       B3u (3)
   76    73           3.7610299487         102.3428279124       u       B2u (2)
   77    15           3.8821549454         105.6388066363      Ag        Ag (1)
   78   213           3.8844373444         105.7009138726       g       B3g (6)
   79   241           3.8844373444         105.7009138726       g       B2g (7)
   80    16           3.8912852132         105.8872538560       g        Ag (1)
   81   145           3.8912852132         105.8872538560       g       B1g (4)
   82   214           3.9026923968         106.1976591013       g       B3g (6)
   83   242           3.9026923968         106.1976591013       g       B2g (7)
   84    17           3.9186112627         106.6308334649       g        Ag (1)
   85   146           3.9186112627         106.6308334649       g       B1g (4)
   86    18           4.0980985994         111.5149321982      Ag        Ag (1)
   87   243           4.2185918505         114.7937202509       g       B2g (7)
   88   215           4.2185918505         114.7937202509       g       B3g (6)
   89    19           4.2186165911         114.7943934773      Ag        Ag (1)
   90    20           4.2203249581         114.8408805069       g        Ag (1)
   91   147           4.2203249581         114.8408805070       g       B1g (4)
   92   182           5.4603941644         148.5848791217      Au       B1u (5)
   93    74           5.4659315217         148.7355582750       u       B2u (2)
   94   114           5.4659315217         148.7355582750       u       B3u (3)
   95    21           6.7318690964         183.1834709815      Ag        Ag (1)
   96   216           6.7331305079         183.2177957322       g       B3g (6)
   97   244           6.7331305079         183.2177957322       g       B2g (7)
   98    22           6.7369174872         183.3208446771       g        Ag (1)
   99   148           6.7369174872         183.3208446771       g       B1g (4)
  100   245           6.7432382977         183.4928426768       g       B2g (7)
  101   217           6.7432382977         183.4928426768       g       B3g (6)
  102    23           6.7521068089         183.7341671357       g        Ag (1)
  103   149           6.7521068089         183.7341671357       g       B1g (4)
  104   246           6.7635426451         184.0453520572    XXXX      XXXX (7)
  105   218           6.7635426451         184.0453520572    XXXX      XXXX (6)
  106    24           6.7775714018         184.4270939353    XXXX      XXXX (1)
  107   150           6.7775714018         184.4270939353    XXXX      XXXX (4)
  108   183           7.8459143648         213.4981839032      Au       B1u (5)
  109   115           7.8480712687         213.5568762430       u       B3u (3)
  110    75           7.8480712687         213.5568762430       u       B2u (2)
  111   184           7.8545479574         213.7331159037       u       B1u (5)
  112   269           7.8545479574         213.7331159037       u        Au (8)
  113    76           7.8653623979         214.0273917901       u       B2u (2)
  114   116           7.8653623979         214.0273917901       u       B3u (3)
  115   185           7.8805446554         214.4405220183               B1u (5)
  116   270           7.8805446554         214.4405220183                Au (8)
  117   117           7.9001370727         214.9736587983       u       B3u (3)
  118    77           7.9001370727         214.9736587983       u       B2u (2)
  119   186           8.7211049256         237.3133298022      Au       B1u (5)
  120   118           8.7262003771         237.4519840865       u       B3u (3)
  121    78           8.7262003771         237.4519840865       u       B2u (2)
  122   271           8.7414928036         237.8681121670       u        Au (8)
  123   187           8.7414928036         237.8681121670       u       B1u (5)
  124   119           8.7670085094         238.5624298209       u       B3u (3)
  125    79           8.7670085094         238.5624298209       u       B2u (2)
  126    25           9.6121974899         261.5611912132      Ag        Ag (1)
  127   247           9.6159278735         261.6627001121       g       B2g (7)
  128   219           9.6159278735         261.6627001121       g       B3g (6)
  129    26           9.6271129372         261.9670611685       g        Ag (1)
  130   151           9.6271129372         261.9670611685       g       B1g (4)
  131   248           9.6457329258         262.4737368176       g       B2g (7)
  132   220           9.6457329258         262.4737368176       g       B3g (6)
  133    27           9.6717510051         263.1817247494       g        Ag (1)
  134   152           9.6717510051         263.1817247494       g       B1g (4)
  135    28          10.5892365018         288.1477743643      Ag        Ag (1)
  136   249          10.5967555552         288.3523782075       g       B2g (7)
  137   221          10.5967555552         288.3523782075       g       B3g (6)
  138    29          10.6195787522         288.9734289727       g        Ag (1)
  139   153          10.6195787522         288.9734289727       g       B1g (4)
  140    30          12.4404195495         338.5210260172      Ag        Ag (1)
  141   188          13.9304197136         379.0659917500      Au       B1u (5)
  142    80          13.9646792737         379.9982417737       u       B2u (2)
  143   120          13.9646792737         379.9982417737       u       B3u (3)
  144    31          16.7180943416         454.9224748462      Ag        Ag (1)
  145   222          16.7202474398         454.9810636263       g       B3g (6)
  146   250          16.7202474398         454.9810636263       g       B2g (7)
  147    32          16.7267101263         455.1569222666       g        Ag (1)
  148   154          16.7267101263         455.1569222666       g       B1g (4)
  149   223          16.7374925988         455.4503282612       g       B3g (6)
  150   251          16.7374925988         455.4503282612       g       B2g (7)
  151    33          16.7526119269         455.8617460952       g        Ag (1)
  152   155          16.7526119269         455.8617460952       g       B1g (4)
  153   224          16.7720921639         456.3918302930    XXXX      XXXX (6)
  154   252          16.7720921639         456.3918302930    XXXX      XXXX (7)
  155    34          16.7959645080         457.0414298007    XXXX      XXXX (1)
  156   156          16.7959645080         457.0414298007    XXXX      XXXX (4)
  157   189          19.5949487172         533.2056622463      Au       B1u (5)
  158    81          19.5981779970         533.2935354168       u       B2u (2)
  159   121          19.5981779970         533.2935354168       u       B3u (3)
  160   272          19.6078668498         533.5571825058       u        Au (8)
  161   190          19.6078668498         533.5571825058       u       B1u (5)
  162    82          19.6240192898         533.9967127451       u       B2u (2)
  163   122          19.6240192898         533.9967127451       u       B3u (3)
  164   191          19.6466448923         534.6123866871               B1u (5)
  165   273          19.6466448923         534.6123866871                Au (8)
  166    83          19.6757620642         535.4047052155       u       B2u (2)
  167   123          19.6757620642         535.4047052155       u       B3u (3)
  168   192          20.0236571127         544.8714107645      Au       B1u (5)
  169   124          20.0302698610         545.0513527924       u       B3u (3)
  170    84          20.0302698610         545.0513527924       u       B2u (2)
  171   193          20.0501286703         545.5917384682       u       B1u (5)
  172   274          20.0501286703         545.5917384682       u        Au (8)
  173   125          20.0832968589         546.4942907630       u       B3u (3)
  174    85          20.0832968589         546.4942907630       u       B2u (2)
  175    35          23.2271311756         632.0423717019      Ag        Ag (1)
  176   225          23.2317645252         632.1684515540       g       B3g (6)
  177   253          23.2317645252         632.1684515540       g       B2g (7)
  178    36          23.2456691931         632.5468168038       g        Ag (1)
  179   157          23.2456691931         632.5468168038       g       B1g (4)
  180   226          23.2688590382         633.1778445694       g       B3g (6)
  181   254          23.2688590382         633.1778445694       g       B2g (7)
  182    37          23.3013572134         634.0621648733       g        Ag (1)
  183   158          23.3013572134         634.0621648733       g       B1g (4)
  184    38          26.1603296701         711.8587605226      Ag        Ag (1)
  185   255          26.1721750094         712.1810885925       g       B2g (7)
  186   227          26.1721750094         712.1810885925       g       B3g (6)
  187    39          26.2078087608         713.1507322636       g        Ag (1)
  188   159          26.2078087608         713.1507322636       g       B1g (4)
  189    40          34.1582957630         929.4944822969      Ag        Ag (1)
  190   194          35.2118009876         958.1618168788      Au       B1u (5)
  191    86          35.2571672548         959.3962957687       u       B2u (2)
  192   126          35.2571672548         959.3962957687       u       B3u (3)
  193   195          58.3953579580        1589.0184741749      Au       B1u (5)
  194    87          58.4013541714        1589.1816394374       u       B2u (2)
  195   127          58.4013541714        1589.1816394374       u       B3u (3)
  196   196          58.4193447637        1589.6711883407       u       B1u (5)
  197   275          58.4193447637        1589.6711883407       u        Au (8)
  198   128          58.4493357100        1590.4872834789       u       B3u (3)
  199    88          58.4493357100        1590.4872834789       u       B2u (2)
  200    41          65.3285540548        1777.6803313536      Ag        Ag (1)
  201   256          65.3399725031        1777.9910431275       g       B2g (7)
  202   228          65.3399725031        1777.9910431275       g       B3g (6)
  203    42          65.3742268836        1778.9231522069       g        Ag (1)
  204   160          65.3742268836        1778.9231522069       g       B1g (4)
  205    43          85.1047287070        2315.8174019985      Ag        Ag (1)
  206   197          86.7915750309        2361.7188240558      Au       B1u (5)
  207    89          86.8320095374        2362.8191029140       u       B2u (2)
  208   129          86.8320095374        2362.8191029140       u       B3u (3)
  209    44         102.4023985735        2786.5109286624      Ag        Ag (1)
  210   229         102.4058070136        2786.6036770342       g       B3g (6)
  211   257         102.4058070136        2786.6036770343       g       B2g (7)
  212   161         102.4160333423        2786.8819495849       g       B1g (4)
  213    45         102.4160333423        2786.8819495849       g        Ag (1)
  214   230         102.4330805853        2787.3458286508       g       B3g (6)
  215   258         102.4330805853        2787.3458286508       g       B2g (7)
  216   162         102.4569537896        2787.9954515639       g       B1g (4)
  217    46         102.4569537896        2787.9954515639       g        Ag (1)
  218    47         161.0809436207        4383.2353152977      Ag        Ag (1)
  219   259         161.0893269842        4383.4634382155       g       B2g (7)
  220   231         161.0893269842        4383.4634382155       g       B3g (6)
  221   163         161.1144618774        4384.1473934315       g       B1g (4)
  222    48         161.1144618774        4384.1473934316       g        Ag (1)
  223   198         175.9872908904        4788.8576459449      Au       B1u (5)
  224   130         175.9912290038        4788.9648074586       u       B3u (3)
  225    90         175.9912290038        4788.9648074586       u       B2u (2)
  226   199         176.0030425232        4789.2862696646       u       B1u (5)
  227   276         176.0030425232        4789.2862696646       u        Au (8)
  228   131         176.0227290202        4789.8219664834       u       B3u (3)
  229    91         176.0227290202        4789.8219664834       u       B2u (2)
  230    49         196.4107604882        5344.6085075294      Ag        Ag (1)
  231   200         206.8245456627        5627.9820085589      Au       B1u (5)
  232    92         206.8532479702        5628.7630380525       u       B2u (2)
  233   132         206.8532479702        5628.7630380525       u       B3u (3)
  234   201         319.9563570469        8706.4551028709      Au       B1u (5)
  235   133         319.9578544051        8706.4958480587       u       B3u (3)
  236    93         319.9578544051        8706.4958480587       u       B2u (2)
  237   202         319.9623465573        8706.6180857354       u       B1u (5)
  238   277         319.9623465573        8706.6180857354       u        Au (8)
  239   134         319.9698337366        8706.8218222411       u       B3u (3)
  240    94         319.9698337366        8706.8218222412       u       B2u (2)
  241   203         319.9803163313        8707.1070681443               B1u (5)
  242   278         319.9803163313        8707.1070681443                Au (8)
  243    95         319.9937948853        8707.4738382438       u       B2u (2)
  244   135         319.9937948853        8707.4738382438       u       B3u (3)
  245    50         373.7605989025       10170.5429565508      Ag        Ag (1)
  246   232         373.7623063570       10170.5894187473       g       B3g (6)
  247   260         373.7623063570       10170.5894187473       g       B2g (7)
  248    51         373.7674287627       10170.7288064938       g        Ag (1)
  249   164         373.7674287627       10170.7288064938       g       B1g (4)
  250   233         373.7759662476       10170.9611232681       g       B3g (6)
  251   261         373.7759662476       10170.9611232681       g       B2g (7)
  252    52         373.7879190254       10171.2863748878       g        Ag (1)
  253   165         373.7879190254       10171.2863748878       g       B1g (4)
  254    53         393.0632584295       10695.7950255785      Ag        Ag (1)
  255   262         393.0683079716       10695.9324306039       g       B2g (7)
  256   234         393.0683079716       10695.9324306040       g       B3g (6)
  257    54         393.0834485261       10696.3444260384       g        Ag (1)
  258   166         393.0834485261       10696.3444260384       g       B1g (4)
  259    55         437.5399498978       11906.0673294845      Ag        Ag (1)
  260   204         488.6360817518       13296.4637636229      Au       B1u (5)
  261    96         488.6531107946       13296.9271474340       u       B2u (2)
  262   136         488.6531107946       13296.9271474341       u       B3u (3)
  263   205         531.0870165708       14451.6124266706      Au       B1u (5)
  264    97         531.0889174158       14451.6641512925       u       B2u (2)
  265   137         531.0889174158       14451.6641512925       u       B3u (3)
  266   279         531.0946203820       14451.8193368912       u        Au (8)
  267   206         531.0946203820       14451.8193368912       u       B1u (5)
  268    98         531.1041267668       14452.0780187744       u       B2u (2)
  269   138         531.1041267668       14452.0780187745       u       B3u (3)
  270    56         981.8669174331       26717.9571380482      Ag        Ag (1)
  271    57         983.4452949521       26760.9069738677      Ag        Ag (1)
  272   235         983.4477032194       26760.9725061515       g       B3g (6)
  273   263         983.4477032194       26760.9725061515       g       B2g (7)
  274   167         983.4550035957       26761.1711594919       g       B1g (4)
  275    58         983.4550035957       26761.1711594919       g        Ag (1)
  276   207        1180.4414692047       32121.4453997890      Au       B1u (5)
  277   139        1180.4496573299       32121.6682100037       u       B3u (3)
  278    99        1180.4496573299       32121.6682100037       u       B2u (2)
  279    59        3155.1574860065       85856.2000391027      Ag        Ag (1)


 
  ORBITAL EIGENVALUES ( BETA)  (1H = 27.2113834 eV)

       MO #        E(hartree)               E(eV)           FULLSYM    COMPSYM
       ----   --------------------   --------------------   -------   ---------
    1     1         -16.2485530587        -442.1456069756      Ag        Ag (1)
    2     2          -1.3119979673         -35.7012797069      Ag        Ag (1)
  +++++++++++++++++++++++++++++++++++++++++++++++++++++++++++++++++++++++++++++
    3   168          -0.3983277566         -10.8390493040      Au       B1u (5)
    4   100          -0.3316985054          -9.0259752033       u       B3u (3)
    5    60          -0.3316985054          -9.0259752032       u       B2u (2)
    6     3          -0.1286932386          -3.5019210573      Ag        Ag (1)
    7   169          -0.0855257179          -2.3272730999      Au       B1u (5)
    8   101          -0.0787730375          -2.1435233245       u       B3u (3)
    9    61          -0.0787730375          -2.1435233245       u       B2u (2)
   10     4           0.0388301113           1.0566210472      Ag        Ag (1)
   11   236           0.0407953049           1.1100966827       g       B2g (7)
   12   208           0.0407953049           1.1100966827       g       B3g (6)
   13     5           0.0465693198           1.2672156166       g        Ag (1)
   14   140           0.0465693198           1.2672156166       g       B1g (4)
   15   170           0.0958561277           2.6083778409      Au       B1u (5)
   16   102           0.1113375068           3.0296475856       u       B3u (3)
   17    62           0.1113375068           3.0296475856       u       B2u (2)
   18     6           0.1840950248           5.0094803017      Ag        Ag (1)
   19   171           0.3585675847           9.7571200219      Au       B1u (5)
   20    63           0.3596175245           9.7856903371       u       B2u (2)
   21   103           0.3596175245           9.7856903371       u       B3u (3)
   22   172           0.3627743526           9.8715919964       u       B1u (5)
   23   264           0.3627743526           9.8715919964       u        Au (8)
   24   104           0.3680982725          10.0164632217       u       B3u (3)
   25    64           0.3680982725          10.0164632217       u       B2u (2)
   26     7           0.5029504994          13.6859788717      Ag        Ag (1)
   27   237           0.5094019183          13.8615309024       g       B2g (7)
   28   209           0.5094019183          13.8615309024       g       B3g (6)
   29     8           0.5282974014          14.3757031380       g        Ag (1)
   30   141           0.5282974014          14.3757031380       g       B1g (4)
   31   173           0.6418425417          17.4654234841      Au       B1u (5)
   32   105           0.6736764632          18.3316685280       u       B3u (3)
   33    65           0.6736764632          18.3316685280       u       B2u (2)
   34     9           1.2010486259          32.6821946419      Ag        Ag (1)
   35    10           1.2994955461          35.3610715316      Ag        Ag (1)
   36   238           1.3006997317          35.3938390888       g       B2g (7)
   37   210           1.3006997317          35.3938390888       g       B3g (6)
   38    11           1.3043256469          35.4925052555       g        Ag (1)
   39   142           1.3043256469          35.4925052555       g       B1g (4)
   40   211           1.3104147361          35.6581977968       g       B3g (6)
   41   239           1.3104147361          35.6581977968       g       B2g (7)
   42   143           1.3190456476          35.8930568401       g        Ag (4)
   43    12           1.3190456476          35.8930568401       g       B1g (1)
   44   174           1.4350278260          39.0490923619      Au       B1u (5)
   45    66           1.4384762818          39.1429296147       u       B2u (2)
   46   106           1.4384762818          39.1429296147       u       B3u (3)
   47   175           1.4488042524          39.4239679832       u       B1u (5)
   48   265           1.4488042524          39.4239679832       u        Au (8)
   49    67           1.4661088135          39.8948490296       u       B2u (2)
   50   107           1.4661088135          39.8948490296       u       B3u (3)
   51    13           1.6262716023          44.2531000841      Ag        Ag (1)
   52   240           1.6391085394          44.6024108990       g       B2g (7)
   53   212           1.6391085394          44.6024108990       g       B3g (6)
[...]
   1.44880425238436        3.05914468310351        3.07459212397146     
   3.79114290300504        7.87251823936607        7.90554468813017     
   8.79991919619106        19.6365408534937        19.6868264897645     
   20.1014872316821        58.4479805175544        176.012771771859     
   319.967338533941        319.987311689819        531.097124176797     
 @CHECKOUT-I, Total execution time (CPU/WALL):      111.08/      57.34 seconds.
--executable xvtran finished with status     0 in       57.42 seconds (walltime).
 --invoking executable--
/cvmfs/restricted.computecanada.ca/easybuild/software/2020/avx2/Compiler/intel2020/cfour/2.1/bin/xintprc
 @GETMEM-I,  Allocated   19073 MB of main memory.
  @GMOIAA-I, Processing MO integrals for spin case AA.
  @GMOIAA-I, Generation of integral list completed.
                      TYPE                NUMBER
                      ----               --------
                      PPPP              90464180
                      PPPH               5296032
                      PPHH                 80193
                      PHPH                 51008
                      PHHH                  1746
                      HHHH                    22

                     TOTAL              95893181
  @GMOIAA-I, Processing MO integrals for spin case BB.
  @GMOIAA-I, Generation of integral list completed.
                      TYPE                NUMBER
                      ----               --------
                      PPPP              93126420
                      PPPH               2728421
                      PPHH                 21591
                      PHPH                 16401
                      PHHH                   342
                      HHHH                     6

                     TOTAL              95893181
  @GMOIAB-I, Processing MO integrals for spin case AB.
                      TYPE                NUMBER
                      ----               --------
                      PPPP             183532558
                      PPPH1H             5374775
                      PPPH2H             2688734
                      PPHH                 81712
                      PHPH1P               16161
                      PHPH2P               51827
                      PHHH1P                 576
                      PHHH2P                 946
                      HHHH                    15

                     TOTAL             191747304

  @FORMT2-I, Second-order MP correlation energies:
  @FORMT2-I, Singles contribution will be calculated.
            ------------------------------------------------
            E(SCF)                  =    -53.888060887401 a.u.
            E2(AA)                  =     -0.018610706041 a.u.
            E2(BB)                  =     -0.001085620628 a.u.
            E2(AB)                  =     -0.119397628720 a.u.
            E2(SINGLE)              =     -0.004247230137 a.u.
            E2(TOT)                 =     -0.139093955388 a.u.
            Total MP2 energy        =    -54.031402072926 a.u.
            ------------------------------------------------
            ----------------------------------------------
                     Projected spin multiplicities: 
            ----------------------------------------------
             <0|S^2|0>                  =    2.0000000000.
             <0|S^2 T2|0>               =    0.0000000000.
             Projected <0|S^2 exp(T)|0> =    2.0000000000.
             Approximate spin mult.     =    3.0000000000.
            ----------------------------------------------
   Largest T2 amplitudes for spin case AA:
   i   j   a   b             i   j   a   b             i   j   a   b
-----------------------------------------------------------------------------
[  4   3 144  15]-0.01142 [  4   2 240 168] 0.01028 [  3   2 212 168] 0.01028
[  4   3 105  66]-0.01024 [  4   3 141   9]-0.01004 [  4   2 237 168]-0.00992
[  3   2 209 168]-0.00992 [  4   3 141  15] 0.00955 [  4   3 144   9] 0.00955
[  4   3 105  69] 0.00788 [  4   3 108  66] 0.00788 [  4   3 108  69]-0.00754
[  4   3 105  63] 0.00743 [  4   3 102  66] 0.00743 [  4   3 144  22] 0.00647
-----------------------------------------------------------------------------
   Norm of T2AA vector (    29185 symmetry allowed elements):  0.0537864910.
-----------------------------------------------------------------------------
   Largest T2 amplitudes for spin case BB:
   i   j   a   b             i   j   a   b             i   j   a   b
-----------------------------------------------------------------------------
[  2   1 182 168]-0.00153 [  2   1  74  60]-0.00147 [  2   1 114 100]-0.00147
[  2   1 188 168] 0.00140 [  2   1  80  60] 0.00133 [  2   1 120 100] 0.00133
[  2   1 176 168] 0.00098 [  2   1  68  60] 0.00094 [  2   1 108 100] 0.00094
[  2   1  80  68] 0.00088 [  2   1 120 108] 0.00088 [  2   1 188 176] 0.00086
[  2   1  80  65]-0.00084 [  2   1 120 105]-0.00084 [  2   1 188 173]-0.00081
-----------------------------------------------------------------------------
   Norm of T2BB vector (     5190 symmetry allowed elements):  0.0057895115.
-----------------------------------------------------------------------------
   Largest T2 amplitudes for spin case AB:
       _       _                 _       _                 _       _
   i   j   a   b             i   j   a   b             i   j   a   b
-----------------------------------------------------------------------------
[  2   2 168 168]-0.06316 [  4   2 240 168] 0.01997 [  3   2 212 168] 0.01997
[  3   2  15  60] 0.01909 [  4   2 144  60] 0.01909 [  4   2  15 100]-0.01909
[  3   2 144 100] 0.01909 [  4   2 237 168]-0.01862 [  3   2 209 168]-0.01862
[  4   2 141  60]-0.01824 [  3   2 141 100]-0.01824 [  4   2   9 100] 0.01824
[  3   2   9  60]-0.01824 [  2   2 168 170]-0.01538 [  2   2 170 168]-0.01267
-----------------------------------------------------------------------------
   Norm of T2AB vector (    81712 symmetry allowed elements):  0.1331245204.
-----------------------------------------------------------------------------
 @CHECKOUT-I, Total execution time (CPU/WALL):       75.11/      75.97 seconds.
--executable xintprc finished with status     0 in       76.46 seconds (walltime).
  calling xvcc 
 --invoking executable--
/cvmfs/restricted.computecanada.ca/easybuild/software/2020/avx2/Compiler/intel2020/cfour/2.1/bin/xvcc
 @GETMEM-I,  Allocated   19073 MB of main memory.
   CCSDT   energy will be calculated.
   The reference state is a ROHF wave function.
   The total correlation energy is -0.143398501834 a.u.
  transposing abij 
   The total correlation energy is -0.157238904557 a.u.
  Convergence information after     1 iterations: 
  Largest element of residual vector : -0.26769338E-01.
  Largest element of DIIS residual   : -0.26769338E-01.
  transposing abij 
   The total correlation energy is -0.161630186868 a.u.
  Convergence information after     2 iterations: 
  Largest element of residual vector : -0.14301059E-01.
  Largest element of DIIS residual   : -0.61648970E-02.
  transposing abij 
   The total correlation energy is -0.164369570009 a.u.
  Convergence information after     3 iterations: 
  Largest element of residual vector : -0.33261599E-02.
  Largest element of DIIS residual   : -0.70097363E-03.
  transposing abij 
   The total correlation energy is -0.164833029247 a.u.
  Convergence information after     4 iterations: 
  Largest element of residual vector : -0.57142398E-03.
  Largest element of DIIS residual   : -0.11699201E-03.
  transposing abij 
   The total correlation energy is -0.164904899251 a.u.
  Convergence information after     5 iterations: 
  Largest element of residual vector : -0.46061936E-04.
  Largest element of DIIS residual   :  0.19944412E-04.
  transposing abij 
   The total correlation energy is -0.164909261107 a.u.
  Convergence information after     6 iterations: 
  Largest element of residual vector :  0.91899437E-05.
  Largest element of DIIS residual   :  0.83601941E-05.
  transposing abij 
   The total correlation energy is -0.164910933788 a.u.
  Convergence information after     7 iterations: 
  Largest element of residual vector : -0.29661983E-05.
  Largest element of DIIS residual   : -0.12288335E-05.
  transposing abij 
   The total correlation energy is -0.164911951199 a.u.
  Convergence information after     8 iterations: 
  Largest element of residual vector : -0.79079674E-06.
  Largest element of DIIS residual   : -0.55083694E-06.
  transposing abij 
   The total correlation energy is -0.164912138688 a.u.
  Convergence information after     9 iterations: 
  Largest element of residual vector : -0.45254689E-06.
  Largest element of DIIS residual   : -0.22900498E-06.
  transposing abij 
   The total correlation energy is -0.164912219960 a.u.
  Convergence information after    10 iterations: 
  Largest element of residual vector : -0.10739875E-06.
  Largest element of DIIS residual   : -0.77328800E-07.
  transposing abij 
   The total correlation energy is -0.164912232330 a.u.
  Convergence information after    11 iterations: 
  Largest element of residual vector : -0.15283764E-06.
  Largest element of DIIS residual   : -0.67992401E-07.
  transposing abij 
   The total correlation energy is -0.164912252334 a.u.
  Convergence information after    12 iterations: 
  Largest element of residual vector : -0.98847812E-07.
  Largest element of DIIS residual   : -0.29153782E-07.
  transposing abij 
   The total correlation energy is -0.164912276130 a.u.
  Convergence information after    13 iterations: 
  Largest element of residual vector :  0.99804711E-07.
  Largest element of DIIS residual   :  0.10157810E-07.
  transposing abij 
   The total correlation energy is -0.164912265096 a.u.
  Convergence information after    14 iterations: 
  Largest element of residual vector : -0.69855404E-07.
  Largest element of DIIS residual   :  0.50698744E-08.
  transposing abij 
   The total correlation energy is -0.164912269272 a.u.
  Convergence information after    15 iterations: 
  Largest element of residual vector : -0.33285591E-07.
  Largest element of DIIS residual   :  0.21329541E-08.
  transposing abij 
   The total correlation energy is -0.164912270220 a.u.
  Convergence information after    16 iterations: 
  Largest element of residual vector : -0.19404393E-07.
  Largest element of DIIS residual   :  0.73673961E-09.
  transposing abij 
   The total correlation energy is -0.164912271569 a.u.
  Convergence information after    17 iterations: 
  Largest element of residual vector : -0.35846800E-08.
  Largest element of DIIS residual   :  0.36744843E-09.
  transposing abij 
   The total correlation energy is -0.164912271781 a.u.
  Convergence information after    18 iterations: 
  Largest element of residual vector : -0.18027385E-08.
  Largest element of DIIS residual   : -0.36579492E-09.
  transposing abij 
   The total correlation energy is -0.164912272019 a.u.
  Convergence information after    19 iterations: 
  Largest element of residual vector :  0.35459892E-08.
  Largest element of DIIS residual   : -0.82758392E-10.
  transposing abij 
   The total correlation energy is -0.164912271890 a.u.
  Convergence information after    20 iterations: 
  Largest element of residual vector : -0.23914413E-08.
  Largest element of DIIS residual   : -0.55682035E-10.
  transposing abij 
   The total correlation energy is -0.164912271954 a.u.
  Convergence information after    21 iterations: 
  Largest element of residual vector : -0.10762240E-08.
  Largest element of DIIS residual   : -0.38506646E-10.
  transposing abij 
   The total correlation energy is -0.164912271974 a.u.
  Convergence information after    22 iterations: 
  Largest element of residual vector : -0.84986867E-09.
  Largest element of DIIS residual   : -0.29377845E-10.
  transposing abij 
   The total correlation energy is -0.164912272036 a.u.
  Convergence information after    23 iterations: 
  Largest element of residual vector :  0.11760101E-08.
  Largest element of DIIS residual   : -0.14211296E-10.
  transposing abij 
   The total correlation energy is -0.164912272006 a.u.
  Convergence information after    24 iterations: 
  Largest element of residual vector : -0.12410010E-09.
  Largest element of DIIS residual   : -0.47280462E-11.
  transposing abij 
   The total correlation energy is -0.164912272010 a.u.
  Convergence information after    25 iterations: 
  Largest element of residual vector : -0.59265030E-10.
  Largest element of DIIS residual   : -0.22393760E-11.
  Amplitude equations converged in    25iterations.
   The total correlation energy is -0.164912272012 a.u.
   The CC iterations have converged.

            ----------------------------------------------
                     Projected spin multiplicities: 
            ----------------------------------------------
             <0|S^2|0>                  =    2.0000000000.
             <0|S^2 (T2+T1**2) |0>      =    0.0000000000.
             <0|S^2 T1|0>               =    0.0000000000.
             Projected <0|S^2 exp(T)|0> =    2.0000000000.
             Approximate spin mult.     =    3.0000000000.
            ----------------------------------------------
   Largest T1 amplitudes for spin case AA:
   i       a                 i       a                 i       a    
-----------------------------------------------------------------------------
[  2       8    ]-0.01641 [  2       5    ] 0.01349 [  2      11    ] 0.01290
[  2      16    ]-0.01080 [  2      10    ] 0.00955 [  2      21    ] 0.00546
[  2       6    ]-0.00406 [  2      20    ]-0.00347 [  4     105    ]-0.00241
[  3      66    ]-0.00241 [  4     108    ] 0.00220 [  3      69    ] 0.00220
[  1      20    ]-0.00120 [  1      11    ] 0.00113 [  2      30    ]-0.00112
-----------------------------------------------------------------------------
   Norm of T1AA vector (      192 symmetry allowed elements):  0.0302607277.
-----------------------------------------------------------------------------
   Largest T2 amplitudes for spin case AA:
   i   j   a   b             i   j   a   b             i   j   a   b
-----------------------------------------------------------------------------
[  4   3 105  66]-0.01297 [  4   3 144  15]-0.01220 [  4   3 141   9]-0.01065
[  4   2 237 168]-0.01058 [  3   2 209 168]-0.01058 [  4   3 141  15] 0.01023
[  4   3 144   9] 0.01023 [  3   2 212 168] 0.01015 [  4   2 240 168] 0.01015
[  4   3 105  69] 0.00979 [  4   3 108  66] 0.00979 [  4   3 105  63] 0.00949
[  4   3 102  66] 0.00949 [  4   3 108  69]-0.00897 [  4   2 105  11] 0.00777
-----------------------------------------------------------------------------
   Norm of T2AA vector (    29185 symmetry allowed elements):  0.0606023029.
-----------------------------------------------------------------------------
   Largest T1 amplitudes for spin case BB:
   i       a                 i       a                 i       a    
-----------------------------------------------------------------------------
[  2      13    ] 0.02175 [  2       7    ]-0.02158 [  2       6    ] 0.01063
[  2      19    ]-0.01017 [  2       4    ] 0.01003 [  2       3    ]-0.00965
[  2       9    ]-0.00575 [  2      28    ] 0.00199 [  2      18    ]-0.00089
[  1      19    ]-0.00079 [  2      30    ] 0.00062 [  1       9    ]-0.00060
[  1      28    ] 0.00059 [  1      13    ] 0.00056 [  1      18    ] 0.00055
-----------------------------------------------------------------------------
   Norm of T1BB vector (      114 symmetry allowed elements):  0.0372814845.
-----------------------------------------------------------------------------
   Largest T2 amplitudes for spin case BB:
   i   j   a   b             i   j   a   b             i   j   a   b
-----------------------------------------------------------------------------
[  2   1  74  60]-0.00140 [  2   1 114 100]-0.00140 [  2   1 182 168]-0.00130
[  2   1  80  60] 0.00129 [  2   1 120 100] 0.00129 [  2   1 188 168] 0.00126
[  2   1 188 176] 0.00089 [  2   1  68  60] 0.00089 [  2   1 108 100] 0.00089
[  2   1  80  68] 0.00088 [  2   1 120 108] 0.00088 [  2   1  80  65]-0.00083
[  2   1 120 105]-0.00083 [  2   1 188 173]-0.00081 [  2   1  74  65] 0.00075
-----------------------------------------------------------------------------
   Norm of T2BB vector (     5190 symmetry allowed elements):  0.0055392720.
-----------------------------------------------------------------------------
   Largest T2 amplitudes for spin case AB:
       _       _                 _       _                 _       _
   i   j   a   b             i   j   a   b             i   j   a   b
-----------------------------------------------------------------------------
[  2   2 168 168]-0.12134 [  2   2 168 170]-0.02803 [  4   2 237 168]-0.02602
[  3   2 209 168]-0.02602 [  3   2 212 168] 0.02567 [  4   2 240 168] 0.02567
[  4   2 141  60]-0.02516 [  3   2 141 100]-0.02516 [  4   2   9 100] 0.02516
[  3   2   9  60]-0.02516 [  3   2  15  60] 0.02418 [  4   2 144  60] 0.02418
[  4   2  15 100]-0.02418 [  3   2 144 100] 0.02418 [  2   2 170 168]-0.02367
-----------------------------------------------------------------------------
   Norm of T2AB vector (    81712 symmetry allowed elements):  0.1955705910.
-----------------------------------------------------------------------------
       Summary of iterative solution of CC equations 
      -----------------------------------------------------------
                       Correlation           Total
       Iteration         Energy              Energy
      -----------------------------------------------------------
            0        -0.143398501834     -54.031459389235  DIIS 
            1        -0.157238904557     -54.045299791958  DIIS 
            2        -0.161630186868     -54.049691074269  DIIS 
            3        -0.164369570009     -54.052430457411  DIIS 
            4        -0.164833029247     -54.052893916648  DIIS 
            5        -0.164904899251     -54.052965786652  DIIS 
            6        -0.164909261107     -54.052970148508  DIIS 
            7        -0.164910933788     -54.052971821189  DIIS 
            8        -0.164911951199     -54.052972838601  DIIS 
            9        -0.164912138688     -54.052973026089  DIIS 
           10        -0.164912219960     -54.052973107361  DIIS 
           11        -0.164912232330     -54.052973119731  DIIS 
           12        -0.164912252334     -54.052973139735  DIIS 
           13        -0.164912276130     -54.052973163532  DIIS 
           14        -0.164912265096     -54.052973152497  DIIS 
           15        -0.164912269272     -54.052973156673  DIIS 
           16        -0.164912270220     -54.052973157622  DIIS 
           17        -0.164912271569     -54.052973158970  DIIS 
           18        -0.164912271781     -54.052973159182  DIIS 
           19        -0.164912272019     -54.052973159421  DIIS 
           20        -0.164912271890     -54.052973159291  DIIS 
           21        -0.164912271954     -54.052973159356  DIIS 
           22        -0.164912271974     -54.052973159375  DIIS 
           23        -0.164912272036     -54.052973159438  DIIS 
           24        -0.164912272006     -54.052973159407  DIIS 
           25        -0.164912272012     -54.052973159413  DIIS 
      -----------------------------------------------------------
      A miracle has come to pass. The CC iterations have converged.
      The reference energy is       -53.88806088740114 a.u.
      The correlation energy is      -0.16491227201153 a.u.
      The total energy is           -54.05297315941267 a.u.
 @CHECKOUT-I, Total execution time (CPU/WALL):    14666.05/    8240.18 seconds.
--executable xvcc finished with status     0 in     8240.33 seconds (walltime).
  The final electronic energy is       -54.052973159412666 a.u. 
  This computation required                         8651.42 seconds (walltime).
