 --invoking executable--
/project1/nike/cfour_v2.00beta_May2019xnmol_noLABBASIS/bin/xjoda


   *************************************************************************
         <<<     CCCCCC     CCCCCC   |||     CCCCCC     CCCCCC   >>>
       <<<      CCC        CCC       |||    CCC        CCC         >>>
      <<<      CCC        CCC        |||   CCC        CCC            >>>
    <<<        CCC        CCC        |||   CCC        CCC              >>>
      <<<      CCC        CCC        |||   CCC        CCC            >>>
       <<<      CCC        CCC       |||    CCC        CCC         >>>
         <<<     CCCCCC     CCCCCC   |||     CCCCCC     CCCCCC   >>>
   *************************************************************************

     ****************************************************************
     * CFOUR Coupled-Cluster techniques for Computational Chemistry *
     ****************************************************************
 

   Department of Chemistry                Institut fuer Physikalische Chemie
   University of Texas at Austin          Universitaet Mainz
   Austin, TX  78712, USA                 D-55099 Mainz, Germany
 
                       Version 2.00beta
 
                     req195                                            
                     Mon Mar  9 15:57:38 EDT 2020                      
                     integer*8 version is running
 
********************************************************************************
*                          Input from ZMAT file                                *
********************************************************************************
TITLE                                                                           
Li                                                                              
Li 1 R                                                                          
                                                                                
R=5.05121412058                                                                 
                                                                                
*ACES2(CALC=CCSD(T)                                                             
UNITS=BOHR                                                                      
#GEOM=2.6729874*10/5.29177210903_GuntonSemczukDattaniMadison2013                
#COORD=CARTESIAN                                                                
COORD=INTERNAL                                                                  
PRINT=4                                                                         
JODA_PRINT=4                                                                    
INPUT_MRCC=OFF                                                                  
#CC_PROG=MRCC                                                                   
#FROZEN_CORE=ON                                                                 
#DROPMO=1>5                                                                     
CONTRACTION=GENERAL                                                             
#CONTRACTION=SEGMENTED                                                          
RELATIVISTIC=OFF                                                                
#EXCITE=EOMEE                                                                   
#ESTATE_CONV=5                                                                  
#ESTATE_SYM=2/2/2/2/2/2/2/2                                                     
XFORM_TOL=18                                                                    
SAVE_INTS=ON                                                                    
SCF_EXPORDER=6                                                                  
SCF_EXPSTART=5                                                                  
#SCF_DAMPING=1000                                                               
SCF_EXTRAPOLATION=ON                                                            
SCF_CONV=12                                                                     
SCF_MAXCYC=99999                                                                
CC_CONV=9                                                                       
CC_MAXCYC=999                                                                   
T3_EXTRAPOL=ON                                                                  
REFERENCE=ROHF                                                                  
CHARGE=+1                                                                       
MULT=2                                                                          
ABCDTYPE=STANDARD                                                               
#OCCUPATION=3-2-2-0-1-0-0-0/3-1-1-0-1-0-0-0                                     
MEM=2                                                                           
MEM_UNIT=GB                                                                     
BASIS=SPECIAL)                                                                  
                                                                                
LI:def2-TZVPP                                                                   
LI:def2-TZVPP                                                                   
                                                                                
********************************************************************************
  @GTFLGS-W, Keyword #GEOM not known and is ignored.
  @GTFLGS-W, Keyword #COORD not known and is ignored.
  @GTFLGS-W, Keyword #CC_PROG not known and is ignored.
  @GTFLGS-W, Keyword #FROZEN_CORE not known and is ignored.
  @GTFLGS-W, Keyword #DROPMO not known and is ignored.
  @GTFLGS-W, Keyword #CONTRACTION not known and is ignored.
  @GTFLGS-W, Keyword #EXCITE not known and is ignored.
  @GTFLGS-W, Keyword #ESTATE_CONV not known and is ignored.
  @GTFLGS-W, Keyword #ESTATE_SYM not known and is ignored.
  @GTFLGS-W, Keyword #SCF_DAMPING not known and is ignored.
  @GTFLGS-W, Keyword #OCCUPATION not known and is ignored.
    -------------------------------------------------------------------
                    CFOUR Control Parameters 
    -------------------------------------------------------------------
        External           Internal           Value            Units
          Name               Name
    -------------------------------------------------------------------
       ABCDTYPE             IABCDT         STANDARD     [  0]   ***   
       ANHARMONIC           IANHAR         OFF          [  0]   ***   
       ANH_ALGORIT          IANALG         STANDARD     [  0]   ***   
       ANH_DERIVAT          IANDER         SECOND       [  1]   ***   
       ANH_STEPSIZ          ICUBST             50000          x 10-6  
       ANH_SYMMETR          IANHSM         ABELIAN      [  0]   ***   
       AO_LADDERS           IAOLAD         SINGLEPASS   [  1]   ***   
       BASIS                IBASIS         SPECIAL      [  0]   ***   
       BREIT                IBREIT         OFF          [  0]   ***   
       BRUCK_CONV           IBRTOL          10D-  4             ***   
       BRUECKNER            IBRKNR             OFF      [  0]   ***   
       BUFFERSIZE           IBUFFS            600               ***   
       CACHE_RECS           ICHREC             10               ***   
       CALCLEVEL            ICLLVL           CCSD(T)    [ 22]   ***   
       CCORBOPT             ICCORB             OFF      [  0] x 0.01  
       CC_CONV              ICCCNV          10D-  9             ***   
       CC_EXPORDER          ICCEOR              5               ***   
       CC_EXTRAPOL          ICCEXT             DIIS     [  1]   ***   
       CC_MAXCYC            ICCCYC            999              cycles 
       CC_PROGRAM           ICCPRO         VCC          [  0]   ***   
       CHARGE               ICHRGE              1               ***   
       CHOLESKY             ICHOLE         OFF          [  0]   ***   
       CIS_CONV             ICISTL              5               ***   
       COMM_SIZE            IPSIZE            ***               ***   
       CONSTANT             ICONST         OLD          [  1]   ***   
       CONTINUUM            ICONTU         NONE         [  0]   ***   
       CONTRACTION          ICNTYP          GENERAL     [  1]   ***   
       COORDINATES          ICOORD         INTERNAL     [  0]   ***   
       CPHF_CONVER          ICPHFT          10D- 16             ***   
       CPHF_MAXCYC          ICPHFC             64              cycles 
       CUBIC                ICUBIC         OFF          [  0]   ***   
       CURVILINEAR          ICURVY            OFF       [  0]   ***   
       DBOC                 IDBOC          OFF          [  0]   ***   
       DCT                  IDCT           OFF          [  0]   ***   
       DERIV_LEV            IDRLVL            ZERO      [  0]   ***   
       DIAG_MRCC            IEOMST          10D-  0             ***   
       DIFF_TYPE            IDIFTY         RELAXED      [  0]   ***   
       DIRECT               IDIRCT         OFF          [  0]   ***   
       DROPMO               IDRPMO      NONE         
       ECP                  IECP           OFF          [  0]   ***   
       EIGENVECTOR          IVEC                1               ***   
       EL_ANHARM            IELANH         OFF          [  0]   ***   
       EOMFOLLOW            IEOMSR         ENERGY       [  0]   ***   
       EOM_MRCC             IMRCCE         NEW          [  1]   ***   
       EOM_NONIT            EOMNON         OFF          [  0]   ***   
       EOM_NSING            IEOMSI          10D-  0             ***   
       EOM_NSTATES          IMRCCD         DAVIDSON     [  0]   ***   
       EOM_NTRIP            IEOMTR          10D-  0             ***   
       EOM_ORDER            IEXORD         ENERGY       [  0]   ***   
       ESTATE_CONV          IEXTOL          10D-  5             ***   
       ESTATE_DIAG          IEXDIG         ITERATIVE    [  0]   ***   
       ESTATE_LOCK          IESLOC         ON           [  1]   ***   
       ESTATE_MAXC          IEXMXC             20               ***   
       ESTATE_PROP          IEXPRP         OFF          [  0]   ***   
       EVAL_HESS            IRECAL              0            # of cyc.
       EXCITATION           IEXCIT              0               ***   
       EXCITE               IEXCIT         NONE         [  0]   ***   
       FCGRADNEW            IFCGNW         OFF          [  0]   ***   
       FC_FIELD             IFINFC              0             x 10-6  
       FD_CALTYPE           IFDCAL         GRADONLY     [  0]   ***   
       FD_PROJECT           IFDPRJ         OFF          [  1]   ***   
       FD_STEPSIZE          IDISFD              0            10-4 bohr
       FD_USEGROUP          IFDGRP         FULL         [  0]   ***   
       FILE_RECSIZ          IFLREC              4096           words  
       FINITE_PERT          IFIPER              0             x 10-6  
       FIXGEOM              IFIXGM         OFF          [  0]   ***   
       FOCK                 IFOCK          AO           [  1]   ***   
       FREQ_ALGORI          IVIALG         STANDARD     [  0]   ***   
       FROZEN_CORE          IFROCO         OFF          [  0]   ***   
       FROZEN_VIRT          IFROVI         OFF          [  0]   ***   
       GAMMA_ABCD           IGABCD         STORE        [  0]   ***   
       GAMMA_ABCI           IGABCI         STORE        [  0]   ***   
       GENBAS_1             IGNBS1              0               ***   
       GENBAS_2             IGNBS2              0               ***   
       GENBAS_3             IGNBS3              0               ***   
       GENBAS_4             IGNBS4              0               ***   
       GEO_CONV             ICONTL              5              H/bohr 
       GEO_MAXCYC           IOPTCY             50               ***   
       GEO_MAXSTEP          IMXSTP            300            millibohr
       GEO_METHOD           INR            SINGLE_POINT [  5]   ***   
       GIAO                 IGIAO          OFF          [  1]   ***   
       GIMIC                IGIMIC         OFF          [  0]   ***   
       GRID                 IGRID          OFF          [  0]   ***   
       GRID_ALGO            IGALGO         SERIAL       [  0]   ***   
       GUESS                IGUESS            MOREAD    [  0]   ***   
       HBAR                 IHBAR              OFF      [  0]   ***   
       HESS_TYPE            IHESTP         SCF          [  0]   ***   
       HF2_FILE             IHF2Fl         USE          [  1]   ***   
       HFSTABILITY          ISTABL         OFF          [  0]   ***   
       INCORE               INCORE             OFF      [  0]   ***   
       INPUT_MRCC           IMRCC          OFF          [  0]   ***   
       INTEGRALS            INTTYP             VMOL     [  1]   ***   
       JODA_PRINT           IJPRNT              4               ***   
       LINDEP_TOL           ILINDP              8               ***   
       LINEQ_CONV           IZTACN          10D-  7           cycles  
       LINEQ_EXPOR          ILMAXD              5               ***   
       LINEQ_MAXCY          ILMAXC             50               ***   
       LINEQ_TYPE           ILTYPE         DIIS         [  1]   ***   
       LOCK_ORBOCC          ILOCOC             OFF      [  0]   ***   
       MEMORY_SIZE          IMEMSZ         250000000           words  
       MEM_UNIT             IMEMU          GB           [  3]   ***   
       MRCC                 IMRCCC         OFF          [  0]   ***   
       MULTIPLICTY          IMULTP              2               ***   
       NEGEVAL              IDIE             ABORT      [  0]   ***   
       NEWNORM              INEWNO         OFF          [  0]   ***   
       NON-HF               INONHF              ON      [  1]   ***   
       NTOP_TAMP            ITOPT2             15               ***   
       NUC_MODEL            INUCMO         POINT        [  0]   ***   
       OCCUPATION           IOCCU   ESTIMATED BY SCF 
       OPEN-SHELL           IOPEN          SPIN-ORBITAL [  0]   ***   
       ORBITALS             IORBTP         SEMICANONICAL[  1]   ***   
       PARALLEL             IPARAL         ON           [  1]   ***   
       PARA_INT             IPINTS         ON           [  1]   ***   
       PARA_PRINT           IPPRIN              0               ***   
       PERT_ORB             IPTORB         STANDARD     [  0]   ***   
       POINTS               IGRDFD              0               ***   
       PRINT                IPRNT               4               ***   
       PROPS                IPROPS             OFF      [  0]   ***   
       PROP_INTEGR          IINTYP         INTERNAL     [  0]   ***   
       PSI                  IPSI           OFF          [  0]   ***   
       QUARTIC              IQUART         OFF          [  0]   ***   
       RAMAN_INT            IRAMIN         OFF          [  0]   ***   
       RAMAN_ORB            IRAMRE         UNRELAXED    [  0]   ***   
       RDO                  IRDOFM             OFF      [  0]   ***   
       REFERENCE            IREFNC             ROHF     [  2]   ***   
       RELATIVIST           IRELAT         OFF          [  0]   ***   
       RELAX_DENS           IRDENS             OFF      [  0]   ***   
       RESET_FLAGS          IRESET             OFF      [  0]   ***   
       RESTART_CC           ICCRES         OFF          [  0]   ***   
       ROT_EVEC             ROTVEC              0               ***   
       SAVE_INTS            ISVINT              ON      [  1]   ***   
       SCALE_ON             ISTCRT              0               ***   
       SCF_CONV             ISCFCV          10D- 12             ***   
       SCF_DAMPING          IDAMP               0             x 10-3  
       SCF_EXPORDE          IRPPOR              6               ***   
       SCF_EXPSTAR          IRPPLS              5               ***   
       SCF_EXTRAPO          IRPP                ON      [  1]   ***   
       SCF_MAXCYC           ISCFCY            ***              cycles 
       SCF_NOSTOP           ISCFST         OFF          [  0]   ***   
       SCF_PRINT            ISCFPR              0               ***   
       SD_FIELD             IFINSD              0             x 10-6  
       SEQUENCE             ISEQUE         OFF          [  0]   ***   
       SOPERT               IPERSO         OFF          [  0]   ***   
       SPHERICAL            IDFGHI             ON       [  1]   ***   
       SPINORBIT            ISOCAL         OFF          [  0]   ***   
       SPINROTATIO          ISRCON         OFF          [  0]   ***   
       SPIN_FLIP            ISPFLP         OFF          [  0]   ***   
       SPIN_ORBIT           ISPORB         OFF          [  0]   ***   
       SPIN_SCAL            ISCSMP         OFF          [  0]   ***   
       SUBGROUP             ISUBGP         DEFAULT      [  0]   ***   
       SUBGRPAXIS           ISBXYZ         X            [  0]   ***   
       SYMMETRY             ISYM             ON         [  0]   ***   
       SYM_CHECK            ISYMCK         OVERRIDE     [  1]   ***   
       T3_EXTRAPOL          IT3EXT         ON           [  1]   ***   
       TAMP_SUM             IEVERY              5               ***   
       TESTSUITE            ITESTS         OFF          [  0]   ***   
       THERMOCH             ITHERM         OFF          [  0]   ***   
       TOL_CHOLESK          ITOLCH          10D-  4             ***   
       TRANGRAD             IRESRM         OFF          [  0]   ***   
       TRANS_INV            ITRAIN         USE          [  0]   ***   
       TREAT_PERT           ITREAT         SIMULTANEOUS [  0]   ***   
       UIJ_THRESHO          IUIJTH              1               ***   
       UNITS                IUNITS         BOHR         [  1]   ***   
       UNOS                 IUNOS          OFF          [  0]   ***   
       UPDATE_HESS          IHUPDT         ON           [  1]   ***   
       VIBPHASE             ISETPH         STANDARD     [  0]   ***   
       VIBRATION            IVIB              NO        [  0]   ***   
       VIB_ALGORIT          IGEALG         STANDARD     [  0]   ***   
       VNATORB              IVNORB         OFF          [  0]   ***   
       VTRAN                IVTRAN         FULL/PARTIAL [  0]   ***   
       XFIELD               IXEFLD              0             x 10-6  
       XFORM_TOL            IXFTOL          10D- 18             ***   
       YFIELD               IYEFLD              0             x 10-6  
       ZFIELD               IZEFLD              0             x 10-6  
    -------------------------------------------------------------------
   2 entries found in Z-matrix 
   Job Title : TITLE                                                                           
 Variable names read by FETCHZ
  1           
  2           
  3           
  4 R         
  5           
  6           
 Atomic symbols read by FETCHZ
  1 Li   
  2 Li   
 Connectivity matrix read by FETCHZ
  1   0
  2   0
  3   0
  4   1
  5   0
  6   0
   There are  1 unique internal coordinates.
   Of these,  0 will be optimized.
   User supplied Z-matrix: 
--------------------------------------------------------------------------------
       SYMBOL    BOND      LENGTH    ANGLE     ANGLE     DIHED     ANGLE
                  TO      (ANGST)    WRT      (DEG)      WRT      (DEG)
--------------------------------------------------------------------------------
        Li   
        Li         1         R    
                  *Initial values for internal coordinates* 
                      Name             Value
                        R               5.0512141206
--------------------------------------------------------------------------------
  1  LI         3     7.01600
  2  LI         3     7.01600
    7.0160030000
    7.0160030000
 After translation to center of mass coordinates 
        0.000000000000    0.000000000000   -2.525607060290
        0.000000000000    0.000000000000    2.525607060290
  Inertia tensor (amu*bohr**2)
   89.50583    0.00000    0.00000
    0.00000   89.50583    0.00000
    0.00000    0.00000    0.00000
    Inertia tensor:
       89.505830706695    0.000000000000    0.000000000000
        0.000000000000   89.505830706695    0.000000000000
        0.000000000000    0.000000000000    0.000000000000
    Principal axis orientation for molecular system: 
        0.000000000000    0.000000000000    2.525607060290
        0.000000000000    0.000000000000   -2.525607060290
    Diagonalized inertia tensor:
       89.505830706695    0.000000000000    0.000000000000
        0.000000000000   89.505830706695    0.000000000000
        0.000000000000    0.000000000000    0.000000000000
    Eigenvectors of inertia tensor: 
        1.000000000000    0.000000000000    0.000000000000
        0.000000000000    1.000000000000    0.000000000000
        0.000000000000    0.000000000000   -1.000000000000
 factor:   60.1997200000000     
   Rotational constants (in cm-1): 
          0.6725787530             0.6725787530
   Rotational constants (in MHz): 
      20163.4065798911         20163.4065798911
  @SYMMETRY-I, Handedness of inertial frame:-1.00000
  @SYMMETRY-I, Sense of inertial frame y-axis will be changed.
  @SYMMETRY-I, The symmetry group is 2-fold degenerate.
  @SYMMETRY-I, The molecule belongs to a point group with doubly degenerate representations.
  @SYMMETRY-I, The molecule is linear.
   Principal axis orientation for molecule:
        0.000000000000    0.000000000000    2.525607060290
        0.000000000000    0.000000000000   -2.525607060290
   Reflection in plane  3 is a valid symmetry operation.
   Rotation about  3 is a valid symmetry operation 
   Reflection in plane  2 is a valid symmetry operation.
   Rotation about  2 is a valid symmetry operation 
   Reflection in plane  1 is a valid symmetry operation.
   Rotation about  1 is a valid symmetry operation 
   The molecule possesses an inversion center. 
  Symmetry bits:    7   7   1
********************************************************************************
   The full molecular point group is DXh .
   The largest Abelian subgroup of the full molecular point group is D2h .
   The computational point group is D2h .
********************************************************************************
--------------------------------------------------------------------------------
   Analysis of internal coordinates specified by Z-matrix 
--------------------------------------------------------------------------------
   *The nuclear repulsion energy is    1.781749849671109 a.u.
   *There is   1 degree of freedom within the tot. symm. molecular subspace.
   *Z-matrix requests optimization of   0 coordinates.
   *The optimization is constrained.
   *The following   1 parameters can have non-zero 
    derivatives within the totally symmetric subspace:
             R    [ 1]
   *The following   0 parameters are to be optimized:

   *The following coordinates must be varied in an  unconstrained optimization.
             R    [ 1]
--------------------------------------------------------------------------------
 ----------------------------------------------------------------
 Z-matrix   Atomic            Coordinates (in bohr)
  Symbol    Number           X              Y              Z
 ----------------------------------------------------------------
     LI        3         0.00000000     0.00000000     2.52560706
     LI        3         0.00000000     0.00000000    -2.52560706
 ----------------------------------------------------------------
   Interatomic distance matrix (Angstroms) 
 
                 LI            LI   
                [ 1]        [ 2]
  LI   [ 1]     0.00000
  LI   [ 2]     2.67299     0.00000
  Inertia tensor (amu*bohr**2)
   89.50583    0.00000    0.00000
    0.00000   89.50583    0.00000
    0.00000    0.00000    0.00000
   Rotational constants (in cm-1): 
          0.6725787530             0.0000000000
   Rotational constants (in MHz): 
      20163.4065798911             0.0000000000
  @GTFLGS-W, Keyword #GEOM not known and is ignored.
  @GTFLGS-W, Keyword #COORD not known and is ignored.
  @GTFLGS-W, Keyword #CC_PROG not known and is ignored.
  @GTFLGS-W, Keyword #FROZEN_CORE not known and is ignored.
  @GTFLGS-W, Keyword #DROPMO not known and is ignored.
  @GTFLGS-W, Keyword #CONTRACTION not known and is ignored.
  @GTFLGS-W, Keyword #EXCITE not known and is ignored.
  @GTFLGS-W, Keyword #ESTATE_CONV not known and is ignored.
  @GTFLGS-W, Keyword #ESTATE_SYM not known and is ignored.
  @GTFLGS-W, Keyword #SCF_DAMPING not known and is ignored.
  @GTFLGS-W, Keyword #OCCUPATION not known and is ignored.
  There are   38 basis functions.
 @GEOPT-W, Archive file not created for single-point calculation.
  @CHECKOUT-I, Total execution time (CPU/WALL):        0.33/       0.76 seconds.
--executable xjoda finished with status     0 in        0.97 seconds (walltime).
 --invoking executable--
/project1/nike/cfour_v2.00beta_May2019xnmol_noLABBASIS/bin/xvmol
Running with 1 threads/proc

********************************************************************************
                   INPUT FROM MOL FILE                                          
********************************************************************************
INTGRL        1    0    1    0    0    0    0    0    0
         *** CFOUR Program System (Release V0.1) *** 
TITLE
    1    3 X  Y   Z   0.10E-08              0    0
   9999.00      3.00
          3.00000000    1    3    1    1    1
LI#1   0.000000000000000   0.000000000000000   2.525607060290000
   11    5
   6269.26280100000       2.054096882600000E-004  0.000000000000000E+000
  0.000000000000000E+000  0.000000000000000E+000  0.000000000000000E+000
   940.316124310000       1.591655408900000E-003  0.000000000000000E+000
  0.000000000000000E+000  0.000000000000000E+000  0.000000000000000E+000
   214.221075280000       8.286982970700000E-003  0.000000000000000E+000
  0.000000000000000E+000  0.000000000000000E+000  0.000000000000000E+000
   60.7598401840000       3.385637424900000E-002  0.000000000000000E+000
  0.000000000000000E+000  0.000000000000000E+000  0.000000000000000E+000
   19.9151520320000       0.111032258760000       0.000000000000000E+000
  0.000000000000000E+000  0.000000000000000E+000  0.000000000000000E+000
   7.31715097970000       0.274493833290000       0.000000000000000E+000
  0.000000000000000E+000  0.000000000000000E+000  0.000000000000000E+000
   2.97246742160000       0.000000000000000E+000  0.237924564110000     
  0.000000000000000E+000  0.000000000000000E+000  0.000000000000000E+000
   1.26398523140000       0.000000000000000E+000  0.307654119240000     
  0.000000000000000E+000  0.000000000000000E+000  0.000000000000000E+000
  0.514274899530000       0.000000000000000E+000  0.000000000000000E+000
   1.00000000000000       0.000000000000000E+000  0.000000000000000E+000
  7.703088590100000E-002  0.000000000000000E+000  0.000000000000000E+000
  0.000000000000000E+000   1.00000000000000       0.000000000000000E+000
  2.893889643300000E-002  0.000000000000000E+000  0.000000000000000E+000
  0.000000000000000E+000  0.000000000000000E+000   1.00000000000000     
    3    3
  0.400000000000000        1.00000000000000       0.000000000000000E+000
  0.000000000000000E+000
  6.000000000000000E-002  0.000000000000000E+000   1.00000000000000     
  0.000000000000000E+000
   3.32700000000000       0.000000000000000E+000  0.000000000000000E+000
   1.00000000000000     
    1    1
  0.131900000000000        1.00000000000000     
FINISH
                                                                                
********************************************************************************

ONE- AND TWO-ELECTRON INTEGRALS OVER SYMMETRY-ADAPTED AOS ARE CALCULATED.


    BASIS FUNCTION NOT NORMALIZED:
    CENTER (AS ORDERED IN MOL FILE): ?
    ANGULAR MOMENTUM TYPE:           S
    OFFSET WITHIN ANGULAR MOMENTUM:  1
    <CHI|CHI>:                       0.1571990822

    BASIS FUNCTION NOT NORMALIZED:
    CENTER (AS ORDERED IN MOL FILE): ?
    ANGULAR MOMENTUM TYPE:           S
    OFFSET WITHIN ANGULAR MOMENTUM:  2
    <CHI|CHI>:                       0.2794089154
CARTESIAN GAUSSIANS ARE USED.

1 TYPES OF ATOMS
3 SYMMETRY OPERATIONS

REFLECTION IN THE YZ-PLANE
REFLECTION IN THE XZ-PLANE
REFLECTION IN THE XY-PLANE

INTEGRALS LESS THAN 1e-14 ARE NEGLECTED.

ATOMIC TYPE NUMBER 1:
---------------------

    NUCLEAR CHARGE:                       3
    NUMBER OF SYMMETRY INDEPENDENT ATOMS: 1
    HIGHEST ORBITAL TYPE:                 D

    1 GROUPS OF CGTOS OF S TYPE
    1 GROUPS OF CGTOS OF P TYPE
    1 GROUPS OF CGTOS OF D TYPE

    NUCLEAR COORDINATES (IN A.U.) ARE:

    LI#1   0.000000000000000   0.000000000000000   2.525607060290000

INTERNUCLEAR DISTANCES (A):

    FOR ATOM LI#1 (COORDINATES:   0.00000   0.00000   2.52561)

    LI#1 5 DISTANCE IS   2.67299

GROUP MULTIPLICATION TABLE:

    1 2 3 4 5 6 7 8
    2 1 4 3 6 5 8 7
    3 4 1 2 7 8 5 6
    4 3 2 1 8 7 6 5
    5 6 7 8 1 2 3 4
    6 5 8 7 2 1 4 3
    7 8 5 6 3 4 1 2
    8 7 6 5 4 3 2 1

GAUSSIAN BASIS INFORMATION:

ATOM                EXPONENT       COEFFICIENTS

LI#1  1  S   
                  1    6269.262801   0.2601467   0.0000000   0.0000000   0.0000000   0.0000000
                  2     940.316124   0.4858358   0.0000000   0.0000000   0.0000000   0.0000000
                  3     214.221075   0.8341193   0.0000000   0.0000000   0.0000000   0.0000000
                  4      60.759840   1.3244574   0.0000000   0.0000000   0.0000000   0.0000000
                  5      19.915152   1.8815769   0.0000000   0.0000000   0.0000000   0.0000000
                  6       7.317151   2.1952005   0.0000000   0.0000000   0.0000000   0.0000000
                  7       2.972467   0.0000000   0.7262181   0.0000000   0.0000000   0.0000000
                  8       1.263985   0.0000000   0.4944919   0.0000000   0.0000000   0.0000000
                  9       0.514275   0.0000000   0.0000000   0.4328193   0.0000000   0.0000000
                 10       0.077031   0.0000000   0.0000000   0.0000000   0.1042098   0.0000000
                 11       0.028939   0.0000000   0.0000000   0.0000000   0.0000000   0.0500059

LI#1  5  S   
                 12    6269.262801   0.2601467   0.0000000   0.0000000   0.0000000   0.0000000
                 13     940.316124   0.4858358   0.0000000   0.0000000   0.0000000   0.0000000
                 14     214.221075   0.8341193   0.0000000   0.0000000   0.0000000   0.0000000
                 15      60.759840   1.3244574   0.0000000   0.0000000   0.0000000   0.0000000
                 16      19.915152   1.8815769   0.0000000   0.0000000   0.0000000   0.0000000
                 17       7.317151   2.1952005   0.0000000   0.0000000   0.0000000   0.0000000
                 18       2.972467   0.0000000   0.7262181   0.0000000   0.0000000   0.0000000
                 19       1.263985   0.0000000   0.4944919   0.0000000   0.0000000   0.0000000
                 20       0.514275   0.0000000   0.0000000   0.4328193   0.0000000   0.0000000
                 21       0.077031   0.0000000   0.0000000   0.0000000   0.1042098   0.0000000
                 22       0.028939   0.0000000   0.0000000   0.0000000   0.0000000   0.0500059

LI#1  1  X   
                 23       0.400000   0.4534350   0.0000000   0.0000000
                 24       0.060000   0.0000000   0.0423281   0.0000000
                 25       3.327000   0.0000000   0.0000000   6.4048076

LI#1  5  X   
                 26       0.400000   0.4534350   0.0000000   0.0000000
                 27       0.060000   0.0000000   0.0423281   0.0000000
                 28       3.327000   0.0000000   0.0000000   6.4048076

LI#1  1  Y   
                 29       0.400000   0.4534350   0.0000000   0.0000000
                 30       0.060000   0.0000000   0.0423281   0.0000000
                 31       3.327000   0.0000000   0.0000000   6.4048076

LI#1  5  Y   
                 32       0.400000   0.4534350   0.0000000   0.0000000
                 33       0.060000   0.0000000   0.0423281   0.0000000
                 34       3.327000   0.0000000   0.0000000   6.4048076

LI#1  1  Z   
                 35       0.400000   0.4534350   0.0000000   0.0000000
                 36       0.060000   0.0000000   0.0423281   0.0000000
                 37       3.327000   0.0000000   0.0000000   6.4048076

LI#1  5  Z   
                 38       0.400000   0.4534350   0.0000000   0.0000000
                 39       0.060000   0.0000000   0.0423281   0.0000000
                 40       3.327000   0.0000000   0.0000000   6.4048076

LI#1  1  XX  
                 41       0.131900   0.0822997

LI#1  5  XX  
                 42       0.131900   0.0822997

LI#1  1  XY  
                 43       0.131900   0.0822997

LI#1  5  XY  
                 44       0.131900   0.0822997

LI#1  1  XZ  
                 45       0.131900   0.0822997

LI#1  5  XZ  
                 46       0.131900   0.0822997

LI#1  1  YY  
                 47       0.131900   0.0822997

LI#1  5  YY  
                 48       0.131900   0.0822997

LI#1  1  YZ  
                 49       0.131900   0.0822997

LI#1  5  YZ  
                 50       0.131900   0.0822997

LI#1  1  ZZ  
                 51       0.131900   0.0822997

LI#1  5  ZZ  
                 52       0.131900   0.0822997

SYMMETRY TRANSFORMATION INTO 38 SYMMETRY-ADAPTED BASIS FUNCTIONS

    IRREDUCIBLE REPRESENTATION NUMBER 1

    1    1 LI#1 S      1   1.0   2   1.0
    2    2 LI#1 S      3   1.0   4   1.0
    3    3 LI#1 S      5   1.0   6   1.0
    4    4 LI#1 S      7   1.0   8   1.0
    5    5 LI#1 S      9   1.0  10   1.0
    6    6 LI#1 Z     23   1.0  24  -1.0
    7    7 LI#1 Z     25   1.0  26  -1.0
    8    8 LI#1 Z     27   1.0  28  -1.0
    9    9 LI#1 XX    29  -1.0  30  -1.0  35  -1.0  36  -1.0  39   2.0  40   2.0
   10   10 LI#1 YY    29   1.0  30   1.0  35  -1.0  36  -1.0
   11   11 LI#1 ZZ    11   1.0  12   1.0

    IRREDUCIBLE REPRESENTATION NUMBER 2

   12    1 LI#1 X     13   1.0  14   1.0
   13    2 LI#1 X     15   1.0  16   1.0
   14    3 LI#1 X     33   1.0  34  -1.0
   15    4 LI#1 XZ    17   1.0  18   1.0

    IRREDUCIBLE REPRESENTATION NUMBER 3

   16    1 LI#1 Y     19   1.0  20   1.0
   17    2 LI#1 Y     21   1.0  22   1.0
   18    3 LI#1 Y     37   1.0  38  -1.0
   19    4 LI#1 YZ    31   1.0  32   1.0

    IRREDUCIBLE REPRESENTATION NUMBER 4

   20    1 LI#1 XY     1   1.0   2  -1.0

    IRREDUCIBLE REPRESENTATION NUMBER 5

   21    1 LI#1 S      3   1.0   4  -1.0
   22    2 LI#1 S      5   1.0   6  -1.0
   23    3 LI#1 S      7   1.0   8  -1.0
   24    4 LI#1 S      9   1.0  10  -1.0
   25    5 LI#1 S     23   1.0  24   1.0
   26    6 LI#1 Z     25   1.0  26   1.0
   27    7 LI#1 Z     27   1.0  28   1.0
   28    8 LI#1 Z     29  -1.0  30   1.0  35  -1.0  36   1.0  39   2.0  40  -2.0
   29    9 LI#1 XX    29   1.0  30  -1.0  35  -1.0  36   1.0
   30   10 LI#1 YY    11   1.0  12  -1.0
   31   11 LI#1 ZZ    13   1.0  14  -1.0

    IRREDUCIBLE REPRESENTATION NUMBER 6

   32    1 LI#1 X     15   1.0  16  -1.0
   33    2 LI#1 X     33   1.0  34   1.0
   34    3 LI#1 X     17   1.0  18  -1.0
   35    4 LI#1 XZ    19   1.0  20  -1.0

    IRREDUCIBLE REPRESENTATION NUMBER 7

   36    1 LI#1 Y     21   1.0  22  -1.0
   37    2 LI#1 Y     37   1.0  38   1.0
   38    3 LI#1 Y     31   1.0  32  -1.0
   39    4 LI#1 YZ  

    IRREDUCIBLE REPRESENTATION NUMBER 8

   40    1 LI#1 XY  

NUCLEAR REPULSION ENERGY:    1.7817498497 A.U.

One-electron integrals took 0.002910 seconds

  @TWOEL-I,       2474 INTEGRALS OF SYMMETRY TYPE  I I I I
  @TWOEL-I,      11215 INTEGRALS OF SYMMETRY TYPE  I J I J
  @TWOEL-I,       7462 INTEGRALS OF SYMMETRY TYPE  I I J J
  @TWOEL-I,      14422 INTEGRALS OF SYMMETRY TYPE  I J K L
  @TWOEL-I, TOTAL NUMBER OF 2-E INTEGRALS      35573

Two-electron integrals took 0.239505 seconds

Nuclear repulsion energy: 1.781749849671
--executable xvmol finished with status     0 in        1.08 seconds (walltime).
 --invoking executable--
/project1/nike/cfour_v2.00beta_May2019xnmol_noLABBASIS/bin/xvmol2ja
--executable xvmol2ja finished with status     0 in        0.07 seconds (walltime).
 --invoking executable--
/project1/nike/cfour_v2.00beta_May2019xnmol_noLABBASIS/bin/xvscf
  There are   38 functions in the AO basis.

  There are 8 irreducible representations.

       Irrep        # of functions
         1                 10
         2                  4
         3                  4
         4                  1
         5                 10
         6                  4
         7                  4
         8                  1


  Parameters for SCF calculation: 
        SCF reference function: ROHF  
  Maximum number of iterations: ****
     Full symmetry point group: DXh 
     Computational point group: D2h 
        Initial density matrix: CORE                   
     SCF convergence tolerance: 10**(-12)
  DIIS convergence acceleration:  ON
          Latest start for DIIS:   5
                     DIIS order:   6

  Memory information:      94252 words required.
  Fock matrices are constructed from AO integral file.
 @GETMEM-I,  Allocated       0 MB of main memory.
  Initialization and symmetry analysis required      0.003 seconds.

  @INITGES-I, Occupancies from core Hamiltonian:

          Alpha population by irrep:   2    0    0    0    1    0    0    0
           Beta population by irrep:   1    0    0    0    1    0    0    0


 total no. of electrons in initial guess :  0.000000000000000E+000
 total no. of electrons in initial guess :  0.000000000000000E+000
  --------------------------------------------------------------------
  Iteration         Total Energy            Largest Density Difference
  --------------------------------------------------------------------
       0             1.781749849671109              0.0000000000D+00
   current occupation vector 
     2  0  0  0  1  0  0  0
     1  0  0  0  1  0  0  0
  processed                   2474  ao basis integrals from 
                     5  buffers.
  processed                   7462  ao basis integrals from 
                    13  buffers.
  processed                  11215  ao basis integrals from 
                    19  buffers.
       1           -14.287995154739969              0.3249080968D+00
   current occupation vector 
     2  0  0  0  1  0  0  0
     1  0  0  0  1  0  0  0
  processed                   2474  ao basis integrals from 
                     5  buffers.
  processed                   7462  ao basis integrals from 
                    13  buffers.
  processed                  11215  ao basis integrals from 
                    19  buffers.
       2           -14.700492431374313              0.1382580152D+00
   current occupation vector 
     2  0  0  0  1  0  0  0
     1  0  0  0  1  0  0  0
  processed                   2474  ao basis integrals from 
                     5  buffers.
  processed                   7462  ao basis integrals from 
                    13  buffers.
  processed                  11215  ao basis integrals from 
                    19  buffers.
       3           -14.707976643321649              0.9111807032D-01
   current occupation vector 
     2  0  0  0  1  0  0  0
     1  0  0  0  1  0  0  0
  processed                   2474  ao basis integrals from 
                     5  buffers.
  processed                   7462  ao basis integrals from 
                    13  buffers.
  processed                  11215  ao basis integrals from 
                    19  buffers.
       4           -14.708068707445305              0.3004934443D-02
   current occupation vector 
     2  0  0  0  1  0  0  0
     1  0  0  0  1  0  0  0
 
 sum over diagonal and offdiagdiagonal of C(T)*S*C for irrep
                     1
 -7.216449660063518E-015  2.791782291901242E-014
 reorthoganalization of MOs is carried out
 sum over diagonal and offdiagdiagonal of C(T)*S*C for irrep
                     1
  1.110223024625157E-016 -3.870118946993325E-016
 
 sum over diagonal and offdiagdiagonal of C(T)*S*C for irrep
                     2
 -9.992007221626409E-015 -6.862274691630393E-015
 reorthoganalization of MOs is carried out
 sum over diagonal and offdiagdiagonal of C(T)*S*C for irrep
                     2
 -4.440892098500626E-016  1.419152881147745E-016
 
 sum over diagonal and offdiagdiagonal of C(T)*S*C for irrep
                     3
 -9.992007221626409E-015 -6.862274691630393E-015
 reorthoganalization of MOs is carried out
 sum over diagonal and offdiagdiagonal of C(T)*S*C for irrep
                     3
 -4.440892098500626E-016  1.419152881147745E-016
 
 sum over diagonal and offdiagdiagonal of C(T)*S*C for irrep
                     4
 -2.220446049250313E-016  0.000000000000000E+000
 reorthoganalization of MOs is carried out
 sum over diagonal and offdiagdiagonal of C(T)*S*C for irrep
                     4
 -2.220446049250313E-016  0.000000000000000E+000
 
 sum over diagonal and offdiagdiagonal of C(T)*S*C for irrep
                     5
  4.773959005888173E-014 -2.847353049511392E-014
 reorthoganalization of MOs is carried out
 sum over diagonal and offdiagdiagonal of C(T)*S*C for irrep
                     5
 -2.775557561562891E-015 -7.426487784719407E-015
 
 sum over diagonal and offdiagdiagonal of C(T)*S*C for irrep
                     6
 -1.887379141862766E-015  8.039074505909738E-015
 reorthoganalization of MOs is carried out
 sum over diagonal and offdiagdiagonal of C(T)*S*C for irrep
                     6
  1.110223024625157E-016  1.904536641242349E-016
 
 sum over diagonal and offdiagdiagonal of C(T)*S*C for irrep
                     7
 -1.887379141862766E-015  8.039074505909738E-015
 reorthoganalization of MOs is carried out
 sum over diagonal and offdiagdiagonal of C(T)*S*C for irrep
                     7
  1.110223024625157E-016  1.904536641242349E-016
 
 sum over diagonal and offdiagdiagonal of C(T)*S*C for irrep
                     8
  0.000000000000000E+000  0.000000000000000E+000
 reorthoganalization of MOs is carried out
 sum over diagonal and offdiagdiagonal of C(T)*S*C for irrep
                     8
  0.000000000000000E+000  0.000000000000000E+000
  processed                   2474  ao basis integrals from 
                     5  buffers.
  processed                   7462  ao basis integrals from 
                    13  buffers.
  processed                  11215  ao basis integrals from 
                    19  buffers.
       5           -14.708075753862373              0.1887547127D-02
   current occupation vector 
     2  0  0  0  1  0  0  0
     1  0  0  0  1  0  0  0
  processed                   2474  ao basis integrals from 
                     5  buffers.
  processed                   7462  ao basis integrals from 
                    13  buffers.
  processed                  11215  ao basis integrals from 
                    19  buffers.
       6           -14.708075857586378              0.1433491779D-03
   current occupation vector 
     2  0  0  0  1  0  0  0
     1  0  0  0  1  0  0  0
  processed                   2474  ao basis integrals from 
                     5  buffers.
  processed                   7462  ao basis integrals from 
                    13  buffers.
  processed                  11215  ao basis integrals from 
                    19  buffers.
       7           -14.708075858315018              0.4260734807D-04
   current occupation vector 
     2  0  0  0  1  0  0  0
     1  0  0  0  1  0  0  0
  processed                   2474  ao basis integrals from 
                     5  buffers.
  processed                   7462  ao basis integrals from 
                    13  buffers.
  processed                  11215  ao basis integrals from 
                    19  buffers.
       8           -14.708075858315462              0.4192667795D-06
   current occupation vector 
     2  0  0  0  1  0  0  0
     1  0  0  0  1  0  0  0
  processed                   2474  ao basis integrals from 
                     5  buffers.
  processed                   7462  ao basis integrals from 
                    13  buffers.
  processed                  11215  ao basis integrals from 
                    19  buffers.
       9           -14.708075858315476              0.3510215144D-07
   current occupation vector 
     2  0  0  0  1  0  0  0
     1  0  0  0  1  0  0  0
 
 sum over diagonal and offdiagdiagonal of C(T)*S*C for irrep
                     1
  1.221245327087672E-014  4.064270536174052E-015
 reorthoganalization of MOs is carried out
 sum over diagonal and offdiagdiagonal of C(T)*S*C for irrep
                     1
  1.554312234475219E-015 -1.265819588903983E-015
 
 sum over diagonal and offdiagdiagonal of C(T)*S*C for irrep
                     2
 -4.662936703425657E-015 -1.604199086936708E-015
 reorthoganalization of MOs is carried out
 sum over diagonal and offdiagdiagonal of C(T)*S*C for irrep
                     2
  1.110223024625157E-016 -1.114085494864636E-016
 
 sum over diagonal and offdiagdiagonal of C(T)*S*C for irrep
                     3
 -4.662936703425657E-015 -1.604199086936708E-015
 reorthoganalization of MOs is carried out
 sum over diagonal and offdiagdiagonal of C(T)*S*C for irrep
                     3
  1.110223024625157E-016 -1.114085494864636E-016
 
 sum over diagonal and offdiagdiagonal of C(T)*S*C for irrep
                     4
 -2.220446049250313E-016  0.000000000000000E+000
 reorthoganalization of MOs is carried out
 sum over diagonal and offdiagdiagonal of C(T)*S*C for irrep
                     4
 -2.220446049250313E-016  0.000000000000000E+000
 
 sum over diagonal and offdiagdiagonal of C(T)*S*C for irrep
                     5
  1.398881011027697E-014 -1.809438216207908E-014
 reorthoganalization of MOs is carried out
 sum over diagonal and offdiagdiagonal of C(T)*S*C for irrep
                     5
 -4.551914400963142E-015 -1.807745551084867E-015
 
 sum over diagonal and offdiagdiagonal of C(T)*S*C for irrep
                     6
 -3.774758283725532E-015  1.368561297274140E-015
 reorthoganalization of MOs is carried out
 sum over diagonal and offdiagdiagonal of C(T)*S*C for irrep
                     6
 -3.330669073875470E-016  4.561238539646517E-016
 
 sum over diagonal and offdiagdiagonal of C(T)*S*C for irrep
                     7
 -3.774758283725532E-015  1.368561297274140E-015
 reorthoganalization of MOs is carried out
 sum over diagonal and offdiagdiagonal of C(T)*S*C for irrep
                     7
 -3.330669073875470E-016  4.561238539646517E-016
 
 sum over diagonal and offdiagdiagonal of C(T)*S*C for irrep
                     8
  0.000000000000000E+000  0.000000000000000E+000
 reorthoganalization of MOs is carried out
 sum over diagonal and offdiagdiagonal of C(T)*S*C for irrep
                     8
  0.000000000000000E+000  0.000000000000000E+000
  processed                   2474  ao basis integrals from 
                     5  buffers.
  processed                   7462  ao basis integrals from 
                    13  buffers.
  processed                  11215  ao basis integrals from 
                    19  buffers.
      10           -14.708075858315462              0.3347635946D-08
   current occupation vector 
     2  0  0  0  1  0  0  0
     1  0  0  0  1  0  0  0
  processed                   2474  ao basis integrals from 
                     5  buffers.
  processed                   7462  ao basis integrals from 
                    13  buffers.
  processed                  11215  ao basis integrals from 
                    19  buffers.
      11           -14.708075858315459              0.6822667431D-10
   current occupation vector 
     2  0  0  0  1  0  0  0
     1  0  0  0  1  0  0  0
  processed                   2474  ao basis integrals from 
                     5  buffers.
  processed                   7462  ao basis integrals from 
                    13  buffers.
  processed                  11215  ao basis integrals from 
                    19  buffers.
      12           -14.708075858315473              0.1906946823D-11
   current occupation vector 
     2  0  0  0  1  0  0  0
     1  0  0  0  1  0  0  0

  SCF has converged.

 Density matrix saved to file den.dat
 total alpha spin electron number:   3.00000000000000     
 total  beta spin electron number:   2.00000000000000     
  processed                   2474  ao basis integrals from 
                     5  buffers.
  processed                   7462  ao basis integrals from 
                    13  buffers.
  processed                  11215  ao basis integrals from 
                    19  buffers.
     E(ROHF)=       -14.708075858315445              0.3129718706D-12


       The average multiplicity is    2.0000000
  The expectation value of S**2 is    0.7500000

 @PUTMOS-I, Writing converged MOs to NEWMOS. 
 @PUTMOS-I, Symmetry   1 Full Blocks  2 Partial Blocksize   2
 @PUTMOS-I, Symmetry   2 Full Blocks  1 Partial Blocksize   0
 @PUTMOS-I, Symmetry   3 Full Blocks  1 Partial Blocksize   0
 @PUTMOS-I, Symmetry   4 Full Blocks  0 Partial Blocksize   1
 @PUTMOS-I, Symmetry   5 Full Blocks  2 Partial Blocksize   2
 @PUTMOS-I, Symmetry   6 Full Blocks  1 Partial Blocksize   0
 @PUTMOS-I, Symmetry   7 Full Blocks  1 Partial Blocksize   0
 @PUTMOS-I, Symmetry   8 Full Blocks  0 Partial Blocksize   1
  @DMPJOB-I, Rotating orbitals to semicanonical basis.
             *** Eigenvalues correspond to new basis. ***

--------------------------------------------------------------------------------
Eigenvalue     -2.684587     -2.684150     -0.433702     -0.133626     -0.124805
 Symmetry        SGg+          SGu+          SGg+          SGu+          PIu     
--------------------------------------------------------------------------------
   1 S         0.1709228     0.1710193     0.0310421     0.0227717     0.0000000
   1 S         0.4640432     0.4643101     0.1086984     0.0779079     0.0000000
   1 S         0.1537147     0.1540450     0.1036544     0.0857454     0.0000000
   1 S         0.0053956     0.0066049    -0.3975771    -0.3185782     0.0000000
   1 S        -0.0014203    -0.0007781    -0.0898801    -0.8252523     0.0000000
   1 PX        0.0000000     0.0000000     0.0000000     0.0000000     0.0798498
   1 PY        0.0000000     0.0000000     0.0000000     0.0000000     0.0000000
   1 PZ        0.0017598     0.0017583     0.0794954    -0.0311350     0.0000000
   1 PX        0.0000000     0.0000000     0.0000000     0.0000000     0.5445093
   1 PY        0.0000000     0.0000000     0.0000000     0.0000000     0.0000000
   1 PZ       -0.0008753    -0.0020572     0.2272375    -0.0732547     0.0000000
   1 PX        0.0000000     0.0000000     0.0000000     0.0000000     0.0068148
   1 PY        0.0000000     0.0000000     0.0000000     0.0000000     0.0000000
   1 PZ        0.0006622     0.0006723     0.0052392    -0.0026478     0.0000000
   1 DX2      -0.0002622    -0.0000690     0.0178016     0.0071373     0.0000000
   1 DXY       0.0000000     0.0000000     0.0000000     0.0000000     0.0000000
   1 DXZ       0.0000000     0.0000000     0.0000000     0.0000000    -0.0396683
   1 DY2      -0.0002622    -0.0000690     0.0178016     0.0071373     0.0000000
   1 DYZ       0.0000000     0.0000000     0.0000000     0.0000000     0.0000000
   1 DZZ       0.0005244     0.0001380    -0.0356033    -0.0142746     0.0000000
   2 S         0.1709228    -0.1710193     0.0310421    -0.0227717     0.0000000
   2 S         0.4640432    -0.4643101     0.1086984    -0.0779079     0.0000000
   2 S         0.1537147    -0.1540450     0.1036544    -0.0857454     0.0000000
   2 S         0.0053956    -0.0066049    -0.3975771     0.3185782     0.0000000
   2 S        -0.0014203     0.0007781    -0.0898801     0.8252523     0.0000000
   2 PX        0.0000000     0.0000000     0.0000000     0.0000000     0.0798498
   2 PY        0.0000000     0.0000000     0.0000000     0.0000000     0.0000000
   2 PZ       -0.0017598     0.0017583    -0.0794954    -0.0311350     0.0000000
   2 PX        0.0000000     0.0000000     0.0000000     0.0000000     0.5445093
   2 PY        0.0000000     0.0000000     0.0000000     0.0000000     0.0000000
   2 PZ        0.0008753    -0.0020572    -0.2272375    -0.0732547     0.0000000
   2 PX        0.0000000     0.0000000     0.0000000     0.0000000     0.0068148
   2 PY        0.0000000     0.0000000     0.0000000     0.0000000     0.0000000
   2 PZ       -0.0006622     0.0006723    -0.0052392    -0.0026478     0.0000000
   2 DX2      -0.0002622     0.0000690     0.0178016    -0.0071373     0.0000000
   2 DXY       0.0000000     0.0000000     0.0000000     0.0000000     0.0000000
   2 DXZ       0.0000000     0.0000000     0.0000000     0.0000000     0.0396683
   2 DY2      -0.0002622     0.0000690     0.0178016    -0.0071373     0.0000000
   2 DYZ       0.0000000     0.0000000     0.0000000     0.0000000     0.0000000
   2 DZZ       0.0005244    -0.0001380    -0.0356033     0.0142746     0.0000000
--------------------------------------------------------------------------------
Eigenvalue     -0.124805     -0.103711     -0.041525     -0.041525     -0.005854
 Symmetry        PIu           SGg+          PIg           PIg           SGg+    
--------------------------------------------------------------------------------
   1 S         0.0000000     0.0030686     0.0000000     0.0000000     0.0242965
   1 S         0.0000000     0.0125244     0.0000000     0.0000000     0.0697914
   1 S         0.0000000     0.0006037     0.0000000     0.0000000     0.1417929
   1 S         0.0000000     0.0866252     0.0000000     0.0000000    -1.3946848
   1 S         0.0000000    -0.5008127     0.0000000     0.0000000     1.0579865
   1 PX        0.0000000     0.0000000     0.0790938     0.0000000     0.0000000
   1 PY        0.0798498     0.0000000     0.0000000     0.0790938     0.0000000
   1 PZ        0.0000000    -0.0890722     0.0000000     0.0000000    -0.0162854
   1 PX        0.0000000     0.0000000     0.9091835     0.0000000     0.0000000
   1 PY        0.5445093     0.0000000     0.0000000     0.9091835     0.0000000
   1 PZ        0.0000000    -0.4880116     0.0000000     0.0000000    -0.3943735
   1 PX        0.0000000     0.0000000     0.0076422     0.0000000     0.0000000
   1 PY        0.0068148     0.0000000     0.0000000     0.0076422     0.0000000
   1 PZ        0.0000000    -0.0070687     0.0000000     0.0000000    -0.0031268
   1 DX2       0.0000000    -0.0070058     0.0000000     0.0000000     0.0066284
   1 DXY       0.0000000     0.0000000     0.0000000     0.0000000     0.0000000
   1 DXZ       0.0000000     0.0000000     0.0179458     0.0000000     0.0000000
   1 DY2       0.0000000    -0.0070058     0.0000000     0.0000000     0.0066284
   1 DYZ      -0.0396683     0.0000000     0.0000000     0.0179458     0.0000000
   1 DZZ       0.0000000     0.0140116     0.0000000     0.0000000    -0.0132569
   2 S         0.0000000     0.0030686     0.0000000     0.0000000     0.0242965
   2 S         0.0000000     0.0125244     0.0000000     0.0000000     0.0697914
   2 S         0.0000000     0.0006037     0.0000000     0.0000000     0.1417929
   2 S         0.0000000     0.0866252     0.0000000     0.0000000    -1.3946848
   2 S         0.0000000    -0.5008127     0.0000000     0.0000000     1.0579865
   2 PX        0.0000000     0.0000000    -0.0790938     0.0000000     0.0000000
   2 PY        0.0798498     0.0000000     0.0000000    -0.0790938     0.0000000
   2 PZ        0.0000000     0.0890722     0.0000000     0.0000000     0.0162854
   2 PX        0.0000000     0.0000000    -0.9091835     0.0000000     0.0000000
   2 PY        0.5445093     0.0000000     0.0000000    -0.9091835     0.0000000
   2 PZ        0.0000000     0.4880116     0.0000000     0.0000000     0.3943735
   2 PX        0.0000000     0.0000000    -0.0076422     0.0000000     0.0000000
   2 PY        0.0068148     0.0000000     0.0000000    -0.0076422     0.0000000
   2 PZ        0.0000000     0.0070687     0.0000000     0.0000000     0.0031268
   2 DX2       0.0000000    -0.0070058     0.0000000     0.0000000     0.0066284
   2 DXY       0.0000000     0.0000000     0.0000000     0.0000000     0.0000000
   2 DXZ       0.0000000     0.0000000     0.0179458     0.0000000     0.0000000
   2 DY2       0.0000000    -0.0070058     0.0000000     0.0000000     0.0066284
   2 DYZ       0.0396683     0.0000000     0.0000000     0.0179458     0.0000000
   2 DZZ       0.0000000     0.0140116     0.0000000     0.0000000    -0.0132569
--------------------------------------------------------------------------------
Eigenvalue      0.006727      0.067735      0.164956      0.164956      0.172553
 Symmetry        SGu+          SGu+          DEg           DEg           PIu     
--------------------------------------------------------------------------------
   1 S         0.0220465     0.0249054     0.0000000     0.0000000     0.0000000
   1 S         0.0731392     0.0673114     0.0000000     0.0000000     0.0000000
   1 S         0.0974640     0.1684929     0.0000000     0.0000000     0.0000000
   1 S        -0.7266898    -1.5628224     0.0000000     0.0000000     0.0000000
   1 S         3.1545042    -1.1831009     0.0000000     0.0000000     0.0000000
   1 PX        0.0000000     0.0000000     0.0000000     0.0000000     0.0552710
   1 PY        0.0000000     0.0000000     0.0000000     0.0000000     0.0000000
   1 PZ       -0.0311801     0.0438176     0.0000000     0.0000000     0.0000000
   1 PX        0.0000000     0.0000000     0.0000000     0.0000000    -0.1991405
   1 PY        0.0000000     0.0000000     0.0000000     0.0000000     0.0000000
   1 PZ       -1.4580816     2.0011063     0.0000000     0.0000000     0.0000000
   1 PX        0.0000000     0.0000000     0.0000000     0.0000000     0.0009719
   1 PY        0.0000000     0.0000000     0.0000000     0.0000000     0.0000000
   1 PZ       -0.0032734     0.0059303     0.0000000     0.0000000     0.0000000
   1 DX2      -0.0437825    -0.0114125     0.0000000     0.3246655     0.0000000
   1 DXY       0.0000000     0.0000000     0.6493310     0.0000000     0.0000000
   1 DXZ       0.0000000     0.0000000     0.0000000     0.0000000    -0.6000036
   1 DY2      -0.0437825    -0.0114125     0.0000000    -0.3246655     0.0000000
   1 DYZ       0.0000000     0.0000000     0.0000000     0.0000000     0.0000000
   1 DZZ       0.0875651     0.0228250     0.0000000     0.0000000     0.0000000
   2 S        -0.0220465    -0.0249054     0.0000000     0.0000000     0.0000000
   2 S        -0.0731392    -0.0673114     0.0000000     0.0000000     0.0000000
   2 S        -0.0974640    -0.1684929     0.0000000     0.0000000     0.0000000
   2 S         0.7266898     1.5628224     0.0000000     0.0000000     0.0000000
   2 S        -3.1545042     1.1831009     0.0000000     0.0000000     0.0000000
   2 PX        0.0000000     0.0000000     0.0000000     0.0000000     0.0552710
   2 PY        0.0000000     0.0000000     0.0000000     0.0000000     0.0000000
   2 PZ       -0.0311801     0.0438176     0.0000000     0.0000000     0.0000000
   2 PX        0.0000000     0.0000000     0.0000000     0.0000000    -0.1991405
   2 PY        0.0000000     0.0000000     0.0000000     0.0000000     0.0000000
   2 PZ       -1.4580816     2.0011063     0.0000000     0.0000000     0.0000000
   2 PX        0.0000000     0.0000000     0.0000000     0.0000000     0.0009719
   2 PY        0.0000000     0.0000000     0.0000000     0.0000000     0.0000000
   2 PZ       -0.0032734     0.0059303     0.0000000     0.0000000     0.0000000
   2 DX2       0.0437825     0.0114125     0.0000000     0.3246655     0.0000000
   2 DXY       0.0000000     0.0000000     0.6493310     0.0000000     0.0000000
   2 DXZ       0.0000000     0.0000000     0.0000000     0.0000000     0.6000036
   2 DY2       0.0437825     0.0114125     0.0000000    -0.3246655     0.0000000
   2 DYZ       0.0000000     0.0000000     0.0000000     0.0000000     0.0000000
   2 DZZ      -0.0875651    -0.0228250     0.0000000     0.0000000     0.0000000
--------------------------------------------------------------------------------
Eigenvalue      0.172553      0.222146      0.252125      0.252125      0.300851
 Symmetry        PIu           SGg+          DEu           DEu           SGu+    
--------------------------------------------------------------------------------
   1 S         0.0000000     0.0032379     0.0000000     0.0000000     0.0149937
   1 S         0.0000000    -0.0038088     0.0000000     0.0000000     0.0135684
   1 S         0.0000000     0.0594953     0.0000000     0.0000000     0.2201447
   1 S         0.0000000    -0.5838506     0.0000000     0.0000000    -2.6137212
   1 S         0.0000000     0.3954779     0.0000000     0.0000000    -2.5679549
   1 PX        0.0000000     0.0000000     0.0000000     0.0000000     0.0000000
   1 PY        0.0552710     0.0000000     0.0000000     0.0000000     0.0000000
   1 PZ        0.0000000    -0.2336573     0.0000000     0.0000000    -0.2963213
   1 PX        0.0000000     0.0000000     0.0000000     0.0000000     0.0000000
   1 PY       -0.1991405     0.0000000     0.0000000     0.0000000     0.0000000
   1 PZ        0.0000000     0.0937588     0.0000000     0.0000000     3.5982169
   1 PX        0.0000000     0.0000000     0.0000000     0.0000000     0.0000000
   1 PY        0.0009719     0.0000000     0.0000000     0.0000000     0.0000000
   1 PZ        0.0000000    -0.0096185     0.0000000     0.0000000    -0.0131295
   1 DX2       0.0000000    -0.1822918     0.3918398     0.0000000     0.3650585
   1 DXY       0.0000000     0.0000000     0.0000000     0.7836797     0.0000000
   1 DXZ       0.0000000     0.0000000     0.0000000     0.0000000     0.0000000
   1 DY2       0.0000000    -0.1822918    -0.3918398     0.0000000     0.3650585
   1 DYZ      -0.6000036     0.0000000     0.0000000     0.0000000     0.0000000
   1 DZZ       0.0000000     0.3645836     0.0000000     0.0000000    -0.7301170
   2 S         0.0000000     0.0032379     0.0000000     0.0000000    -0.0149937
   2 S         0.0000000    -0.0038088     0.0000000     0.0000000    -0.0135684
   2 S         0.0000000     0.0594953     0.0000000     0.0000000    -0.2201447
   2 S         0.0000000    -0.5838506     0.0000000     0.0000000     2.6137212
   2 S         0.0000000     0.3954779     0.0000000     0.0000000     2.5679549
   2 PX        0.0000000     0.0000000     0.0000000     0.0000000     0.0000000
   2 PY        0.0552710     0.0000000     0.0000000     0.0000000     0.0000000
   2 PZ        0.0000000     0.2336573     0.0000000     0.0000000    -0.2963213
   2 PX        0.0000000     0.0000000     0.0000000     0.0000000     0.0000000
   2 PY       -0.1991405     0.0000000     0.0000000     0.0000000     0.0000000
   2 PZ        0.0000000    -0.0937588     0.0000000     0.0000000     3.5982169
   2 PX        0.0000000     0.0000000     0.0000000     0.0000000     0.0000000
   2 PY        0.0009719     0.0000000     0.0000000     0.0000000     0.0000000
   2 PZ        0.0000000     0.0096185     0.0000000     0.0000000    -0.0131295
   2 DX2       0.0000000    -0.1822918    -0.3918398     0.0000000    -0.3650585
   2 DXY       0.0000000     0.0000000     0.0000000    -0.7836797     0.0000000
   2 DXZ       0.0000000     0.0000000     0.0000000     0.0000000     0.0000000
   2 DY2       0.0000000    -0.1822918     0.3918398     0.0000000    -0.3650585
   2 DYZ       0.6000036     0.0000000     0.0000000     0.0000000     0.0000000
   2 DZZ       0.0000000     0.3645836     0.0000000     0.0000000     0.7301170
--------------------------------------------------------------------------------
Eigenvalue      0.378062      0.378062      0.468848      0.468848      0.469842
 Symmetry        PIg           PIg           PIg           PIg           PIu     
--------------------------------------------------------------------------------
   1 S         0.0000000     0.0000000     0.0000000     0.0000000     0.0000000
   1 S         0.0000000     0.0000000     0.0000000     0.0000000     0.0000000
   1 S         0.0000000     0.0000000     0.0000000     0.0000000     0.0000000
   1 S         0.0000000     0.0000000     0.0000000     0.0000000     0.0000000
   1 S         0.0000000     0.0000000     0.0000000     0.0000000     0.0000000
   1 PX        0.0607022     0.0000000     0.7502782     0.0000000     0.7503771
   1 PY        0.0000000     0.0607022     0.0000000     0.7502782     0.0000000
   1 PZ        0.0000000     0.0000000     0.0000000     0.0000000     0.0000000
   1 PX       -0.7858810     0.0000000    -0.4513505     0.0000000    -0.2845898
   1 PY        0.0000000    -0.7858810     0.0000000    -0.4513505     0.0000000
   1 PZ        0.0000000     0.0000000     0.0000000     0.0000000     0.0000000
   1 PX        0.0002453     0.0000000     0.0244657     0.0000000     0.0243593
   1 PY        0.0000000     0.0002453     0.0000000     0.0244657     0.0000000
   1 PZ        0.0000000     0.0000000     0.0000000     0.0000000     0.0000000
   1 DX2       0.0000000     0.0000000     0.0000000     0.0000000     0.0000000
   1 DXY       0.0000000     0.0000000     0.0000000     0.0000000     0.0000000
   1 DXZ       1.1860655     0.0000000    -0.0587076     0.0000000     0.0738763
   1 DY2       0.0000000     0.0000000     0.0000000     0.0000000     0.0000000
   1 DYZ       0.0000000     1.1860655     0.0000000    -0.0587076     0.0000000
   1 DZZ       0.0000000     0.0000000     0.0000000     0.0000000     0.0000000
   2 S         0.0000000     0.0000000     0.0000000     0.0000000     0.0000000
   2 S         0.0000000     0.0000000     0.0000000     0.0000000     0.0000000
   2 S         0.0000000     0.0000000     0.0000000     0.0000000     0.0000000
   2 S         0.0000000     0.0000000     0.0000000     0.0000000     0.0000000
   2 S         0.0000000     0.0000000     0.0000000     0.0000000     0.0000000
   2 PX       -0.0607022     0.0000000    -0.7502782     0.0000000     0.7503771
   2 PY        0.0000000    -0.0607022     0.0000000    -0.7502782     0.0000000
   2 PZ        0.0000000     0.0000000     0.0000000     0.0000000     0.0000000
   2 PX        0.7858810     0.0000000     0.4513505     0.0000000    -0.2845898
   2 PY        0.0000000     0.7858810     0.0000000     0.4513505     0.0000000
   2 PZ        0.0000000     0.0000000     0.0000000     0.0000000     0.0000000
   2 PX       -0.0002453     0.0000000    -0.0244657     0.0000000     0.0243593
   2 PY        0.0000000    -0.0002453     0.0000000    -0.0244657     0.0000000
   2 PZ        0.0000000     0.0000000     0.0000000     0.0000000     0.0000000
   2 DX2       0.0000000     0.0000000     0.0000000     0.0000000     0.0000000
   2 DXY       0.0000000     0.0000000     0.0000000     0.0000000     0.0000000
   2 DXZ       1.1860655     0.0000000    -0.0587076     0.0000000    -0.0738763
   2 DY2       0.0000000     0.0000000     0.0000000     0.0000000     0.0000000
   2 DYZ       0.0000000     1.1860655     0.0000000    -0.0587076     0.0000000
   2 DZZ       0.0000000     0.0000000     0.0000000     0.0000000     0.0000000
--------------------------------------------------------------------------------
Eigenvalue      0.469842      0.587863      0.623434      1.468931      1.530432
 Symmetry        PIu           SGg+          SGu+          SGg+          SGu+    
--------------------------------------------------------------------------------
   1 S         0.0000000     0.0095811     0.0194179     0.0759981     0.0730908
   1 S         0.0000000     0.0753347     0.1049892     0.8763285     0.8947292
   1 S         0.0000000    -0.0803148     0.0340080    -1.3990033    -1.5493094
   1 S         0.0000000     0.5356489    -1.6534208     0.7035773     2.0654965
   1 S         0.0000000    -0.2833397    -0.9444545    -0.3073594     0.4067647
   1 PX        0.0000000     0.0000000     0.0000000     0.0000000     0.0000000
   1 PY        0.7503771     0.0000000     0.0000000     0.0000000     0.0000000
   1 PZ        0.0000000    -0.7833581     0.7240610     0.1013943    -0.1519457
   1 PX        0.0000000     0.0000000     0.0000000     0.0000000     0.0000000
   1 PY       -0.2845898     0.0000000     0.0000000     0.0000000     0.0000000
   1 PZ        0.0000000     0.5342723     1.5865705    -0.0287018    -1.4145750
   1 PX        0.0000000     0.0000000     0.0000000     0.0000000     0.0000000
   1 PY        0.0243593     0.0000000     0.0000000     0.0000000     0.0000000
   1 PZ        0.0000000    -0.0211984     0.0266887     0.0059440    -0.0106858
   1 DX2       0.0000000     0.1416629     0.2778864    -0.0268925    -0.1375463
   1 DXY       0.0000000     0.0000000     0.0000000     0.0000000     0.0000000
   1 DXZ       0.0000000     0.0000000     0.0000000     0.0000000     0.0000000
   1 DY2       0.0000000     0.1416629     0.2778864    -0.0268925    -0.1375463
   1 DYZ       0.0738763     0.0000000     0.0000000     0.0000000     0.0000000
   1 DZZ       0.0000000    -0.2833259    -0.5557728     0.0537850     0.2750926
   2 S         0.0000000     0.0095811    -0.0194179     0.0759981    -0.0730908
   2 S         0.0000000     0.0753347    -0.1049892     0.8763285    -0.8947292
   2 S         0.0000000    -0.0803148    -0.0340080    -1.3990033     1.5493094
   2 S         0.0000000     0.5356489     1.6534208     0.7035773    -2.0654965
   2 S         0.0000000    -0.2833397     0.9444545    -0.3073594    -0.4067647
   2 PX        0.0000000     0.0000000     0.0000000     0.0000000     0.0000000
   2 PY        0.7503771     0.0000000     0.0000000     0.0000000     0.0000000
   2 PZ        0.0000000     0.7833581     0.7240610    -0.1013943    -0.1519457
   2 PX        0.0000000     0.0000000     0.0000000     0.0000000     0.0000000
   2 PY       -0.2845898     0.0000000     0.0000000     0.0000000     0.0000000
   2 PZ        0.0000000    -0.5342723     1.5865705     0.0287018    -1.4145750
   2 PX        0.0000000     0.0000000     0.0000000     0.0000000     0.0000000
   2 PY        0.0243593     0.0000000     0.0000000     0.0000000     0.0000000
   2 PZ        0.0000000     0.0211984     0.0266887    -0.0059440    -0.0106858
   2 DX2       0.0000000     0.1416629    -0.2778864    -0.0268925     0.1375463
   2 DXY       0.0000000     0.0000000     0.0000000     0.0000000     0.0000000
   2 DXZ       0.0000000     0.0000000     0.0000000     0.0000000     0.0000000
   2 DY2       0.0000000     0.1416629    -0.2778864    -0.0268925     0.1375463
   2 DYZ      -0.0738763     0.0000000     0.0000000     0.0000000     0.0000000
   2 DZZ       0.0000000    -0.2833259     0.5557728     0.0537850    -0.2750926
--------------------------------------------------------------------------------
Eigenvalue      6.090482      6.090482      6.091586      6.091586      6.124023
 Symmetry        PIu           PIu           PIg           PIg           SGg+    
--------------------------------------------------------------------------------
   1 S         0.0000000     0.0000000     0.0000000     0.0000000     0.0050525
   1 S         0.0000000     0.0000000     0.0000000     0.0000000     0.0114928
   1 S         0.0000000     0.0000000     0.0000000     0.0000000    -0.0325294
   1 S         0.0000000     0.0000000     0.0000000     0.0000000    -0.0604019
   1 S         0.0000000     0.0000000     0.0000000     0.0000000     0.0307606
   1 PX        0.2763081     0.0000000     0.2762691     0.0000000     0.0000000
   1 PY        0.0000000     0.2763081     0.0000000     0.2762691     0.0000000
   1 PZ        0.0000000     0.0000000     0.0000000     0.0000000     0.3088145
   1 PX       -0.0614197     0.0000000    -0.0971457     0.0000000     0.0000000
   1 PY        0.0000000    -0.0614197     0.0000000    -0.0971457     0.0000000
   1 PZ        0.0000000     0.0000000     0.0000000     0.0000000    -0.1192042
   1 PX       -0.7441491     0.0000000    -0.7441348     0.0000000     0.0000000
   1 PY        0.0000000    -0.7441491     0.0000000    -0.7441348     0.0000000
   1 PZ        0.0000000     0.0000000     0.0000000     0.0000000    -0.7464639
   1 DX2       0.0000000     0.0000000     0.0000000     0.0000000    -0.0205543
   1 DXY       0.0000000     0.0000000     0.0000000     0.0000000     0.0000000
   1 DXZ       0.0082066     0.0000000     0.0013182     0.0000000     0.0000000
   1 DY2       0.0000000     0.0000000     0.0000000     0.0000000    -0.0205543
   1 DYZ       0.0000000     0.0082066     0.0000000     0.0013182     0.0000000
   1 DZZ       0.0000000     0.0000000     0.0000000     0.0000000     0.0411086
   2 S         0.0000000     0.0000000     0.0000000     0.0000000     0.0050525
   2 S         0.0000000     0.0000000     0.0000000     0.0000000     0.0114928
   2 S         0.0000000     0.0000000     0.0000000     0.0000000    -0.0325294
   2 S         0.0000000     0.0000000     0.0000000     0.0000000    -0.0604019
   2 S         0.0000000     0.0000000     0.0000000     0.0000000     0.0307606
   2 PX        0.2763081     0.0000000    -0.2762691     0.0000000     0.0000000
   2 PY        0.0000000     0.2763081     0.0000000    -0.2762691     0.0000000
   2 PZ        0.0000000     0.0000000     0.0000000     0.0000000    -0.3088145
   2 PX       -0.0614197     0.0000000     0.0971457     0.0000000     0.0000000
   2 PY        0.0000000    -0.0614197     0.0000000     0.0971457     0.0000000
   2 PZ        0.0000000     0.0000000     0.0000000     0.0000000     0.1192042
   2 PX       -0.7441491     0.0000000     0.7441348     0.0000000     0.0000000
   2 PY        0.0000000    -0.7441491     0.0000000     0.7441348     0.0000000
   2 PZ        0.0000000     0.0000000     0.0000000     0.0000000     0.7464639
   2 DX2       0.0000000     0.0000000     0.0000000     0.0000000    -0.0205543
   2 DXY       0.0000000     0.0000000     0.0000000     0.0000000     0.0000000
   2 DXZ      -0.0082066     0.0000000     0.0013182     0.0000000     0.0000000
   2 DY2       0.0000000     0.0000000     0.0000000     0.0000000    -0.0205543
   2 DYZ       0.0000000    -0.0082066     0.0000000     0.0013182     0.0000000
   2 DZZ       0.0000000     0.0000000     0.0000000     0.0000000     0.0411086
--------------------------------------------------------------------------------
Eigenvalue      6.166538     14.705110     14.777602
 Symmetry        SGu+          SGg+          SGu+    
--------------------------------------------------------------------------------
   1 S         0.0070786     1.0303134     1.0331362
   1 S         0.0220974    -1.3419329    -1.3613622
   1 S        -0.0800729     0.7931198     0.8548323
   1 S         0.2988565    -0.2601898    -0.6741462
   1 S         0.0606288     0.1117785    -0.1116119
   1 PX        0.0000000     0.0000000     0.0000000
   1 PY        0.0000000     0.0000000     0.0000000
   1 PZ       -0.3112844    -0.0240419     0.0361883
   1 PX        0.0000000     0.0000000     0.0000000
   1 PY        0.0000000     0.0000000     0.0000000
   1 PZ       -0.1819873     0.0014387     0.4398130
   1 PX        0.0000000     0.0000000     0.0000000
   1 PY        0.0000000     0.0000000     0.0000000
   1 PZ        0.7472762     0.0072132    -0.0116666
   1 DX2      -0.0410638     0.0062223     0.0395797
   1 DXY       0.0000000     0.0000000     0.0000000
   1 DXZ       0.0000000     0.0000000     0.0000000
   1 DY2      -0.0410638     0.0062223     0.0395797
   1 DYZ       0.0000000     0.0000000     0.0000000
   1 DZZ       0.0821276    -0.0124446    -0.0791594
   2 S        -0.0070786     1.0303134    -1.0331362
   2 S        -0.0220974    -1.3419329     1.3613622
   2 S         0.0800729     0.7931198    -0.8548323
   2 S        -0.2988565    -0.2601898     0.6741462
   2 S        -0.0606288     0.1117785     0.1116119
   2 PX        0.0000000     0.0000000     0.0000000
   2 PY        0.0000000     0.0000000     0.0000000
   2 PZ       -0.3112844     0.0240419     0.0361883
   2 PX        0.0000000     0.0000000     0.0000000
   2 PY        0.0000000     0.0000000     0.0000000
   2 PZ       -0.1819873    -0.0014387     0.4398130
   2 PX        0.0000000     0.0000000     0.0000000
   2 PY        0.0000000     0.0000000     0.0000000
   2 PZ        0.7472762    -0.0072132    -0.0116666
   2 DX2       0.0410638     0.0062223    -0.0395797
   2 DXY       0.0000000     0.0000000     0.0000000
   2 DXZ       0.0000000     0.0000000     0.0000000
   2 DY2       0.0410638     0.0062223    -0.0395797
   2 DYZ       0.0000000     0.0000000     0.0000000
   2 DZZ      -0.0821276    -0.0124446     0.0791594
--------------------------------------------------------------------------------
--------------------------------------------------------------------------------
Eigenvalue     -2.674124     -2.673825     -0.155979     -0.120594     -0.086790
 Symmetry        SGg+          SGu+          SGg+          SGu+          PIu     
--------------------------------------------------------------------------------
   1 S         0.1709619     0.1710193     0.0251314     0.0195557     0.0000000
   1 S         0.4641803     0.4643101     0.0875656     0.0667137     0.0000000
   1 S         0.1538457     0.1540450     0.0809846     0.0717318     0.0000000
   1 S         0.0048928     0.0066049    -0.1879523    -0.1739113     0.0000000
   1 S        -0.0015340    -0.0007781    -0.4204178    -0.9265466     0.0000000
   1 PX        0.0000000     0.0000000     0.0000000     0.0000000     0.0714476
   1 PY        0.0000000     0.0000000     0.0000000     0.0000000     0.0000000
   1 PZ        0.0018603     0.0017583     0.0059799    -0.0408681     0.0000000
   1 PX        0.0000000     0.0000000     0.0000000     0.0000000     0.5618157
   1 PY        0.0000000     0.0000000     0.0000000     0.0000000     0.0000000
   1 PZ       -0.0005879    -0.0020572    -0.0224003    -0.1174953     0.0000000
   1 PX        0.0000000     0.0000000     0.0000000     0.0000000     0.0071854
   1 PY        0.0000000     0.0000000     0.0000000     0.0000000     0.0000000
   1 PZ        0.0006689     0.0006723     0.0010015    -0.0031999     0.0000000
   1 DX2      -0.0002397    -0.0000690    -0.0009146     0.0102391     0.0000000
   1 DXY       0.0000000     0.0000000     0.0000000     0.0000000     0.0000000
   1 DXZ       0.0000000     0.0000000     0.0000000     0.0000000     0.0164137
   1 DY2      -0.0002397    -0.0000690    -0.0009146     0.0102391     0.0000000
   1 DYZ       0.0000000     0.0000000     0.0000000     0.0000000     0.0000000
   1 DZZ       0.0004794     0.0001380     0.0018292    -0.0204782     0.0000000
   2 S         0.1709619    -0.1710193     0.0251314    -0.0195557     0.0000000
   2 S         0.4641803    -0.4643101     0.0875656    -0.0667137     0.0000000
   2 S         0.1538457    -0.1540450     0.0809846    -0.0717318     0.0000000
   2 S         0.0048928    -0.0066049    -0.1879523     0.1739113     0.0000000
   2 S        -0.0015340     0.0007781    -0.4204178     0.9265466     0.0000000
   2 PX        0.0000000     0.0000000     0.0000000     0.0000000     0.0714476
   2 PY        0.0000000     0.0000000     0.0000000     0.0000000     0.0000000
   2 PZ       -0.0018603     0.0017583    -0.0059799    -0.0408681     0.0000000
   2 PX        0.0000000     0.0000000     0.0000000     0.0000000     0.5618157
   2 PY        0.0000000     0.0000000     0.0000000     0.0000000     0.0000000
[...]
-----------------------------------------------------------------------------
[  2   1  26   8] 0.00016 [  2   1  26   7] 0.00014 [  2   1  36  18]-0.00011
[  2   1  32  14]-0.00011 [  2   1  26   4] 0.00010 [  2   1  25   8]-0.00009
[  2   1  25   7]-0.00008 [  2   1  26  10] 0.00007 [  2   1  28   8] 0.00006
[  2   1  25   4]-0.00006 [  2   1  28   7] 0.00005 [  2   1  32  12]-0.00005
[  2   1  36  16]-0.00005 [  2   1  32  15] 0.00004 [  2   1  36  19] 0.00004
-----------------------------------------------------------------------------
   Norm of T2BB vector (      114 symmetry allowed elements):  0.0003757180.
-----------------------------------------------------------------------------
   Largest T2 amplitudes for spin case AB:
       _       _                 _       _                 _       _
   i   j   a   b             i   j   a   b             i   j   a   b
-----------------------------------------------------------------------------
[  3   2   9   9]-0.01259 [  1   1   9   9]-0.01258 [  3   1   9  27]-0.01226
[  1   2   9  27]-0.01225 [  3   1  27   9]-0.01221 [  1   2  27   9]-0.01221
[  3   2  27  27]-0.01212 [  1   1  27  27]-0.01211 [  3   2  33  33]-0.00864
[  3   2  37  37]-0.00864 [  3   1  33  15]-0.00864 [  3   1  37  19]-0.00864
[  1   2  19  37]-0.00863 [  1   2  15  33]-0.00863 [  1   1  15  15]-0.00863
-----------------------------------------------------------------------------
   Norm of T2AB vector (     1314 symmetry allowed elements):  0.0779237308.
-----------------------------------------------------------------------------
  W(mnij) AA contribution =  0.0000422833 a.u.
  W(mnij) BB contribution =  0.0000000279 a.u.
  W(mnij) AB contribution =  0.0093752779 a.u.
  W(abef) AA contribution =  0.0000585142 a.u.
  W(abef) BB contribution =  0.0000000301 a.u.
  W(abef) AB contribution =  0.0100196465 a.u.
  W(mbej) AA contribution =  -0.0002124901 a.u.
  W(mbej) BB contribution =  -0.0000001471 a.u.
  W(mbej) AB contribution = -0.0299939995 a.u.
   After  11 iterations, amplitude changes are:
    -------------------------------------------------------------------
                 Spin      RMS          Max.      Max. change for
     Amplitude   Case     Change       Change       i    j    a    b
    -------------------------------------------------------------------
        T1        AA    0.0000000000 0.0000000007    2         7
        T1        BB    0.0000000000 0.0000000003    1         5
        T2        AA    0.0000000000-0.0000000001    3    2   32   12
        T2        BB    0.0000000000 0.0000000000    2    1   26    7
        T2        AB    0.0000000000-0.0000000002    1    2    4   21
    -------------------------------------------------------------------
   The AA contribution to the correlation energy is:   -0.0006535 a.u.
   The BB contribution to the correlation energy is:   -0.0000142 a.u.
   The AB contribution to the correlation energy is:   -0.0694402 a.u.
   The total correlation energy is -0.070107877912 a.u.
   The total correlation energy is -0.070107877912 a.u.
  Current DIIS expansion coefficients : 
 [   1] 1.0935759197 [   2]-0.0000675621 [   3] 0.0049005710 [   4]-0.0329550624
 [   5]-0.0654538662
  Convergence information after    11 iterations: 
  Largest element of residual vector :  0.71197090E-09.
  Largest element of DIIS residual   :  0.46439958E-09.
  Amplitude equations converged in    11iterations.
   The AA contribution to the correlation energy is:   -0.0006535 a.u.
   The BB contribution to the correlation energy is:   -0.0000142 a.u.
   The AB contribution to the correlation energy is:   -0.0694402 a.u.
   The total correlation energy is -0.070107877911 a.u.
   The total correlation energy is -0.070107877911 a.u.
   The CC iterations have converged.

            ----------------------------------------------
                     Projected spin multiplicities: 
            ----------------------------------------------
             <0|S^2|0>                  =    0.7500000000.
             <0|S^2 (T2+T1**2) |0>      =    0.0000000000.
             <0|S^2 T1|0>               =    0.0000000000.
             Projected <0|S^2 exp(T)|0> =    0.7500000000.
             Approximate spin mult.     =    2.0000000000.
            ----------------------------------------------
   Largest T1 amplitudes for spin case AA:
   i       a                 i       a                 i       a    
-----------------------------------------------------------------------------
[  2       5    ] 0.00239 [  2       9    ] 0.00164 [  1      11    ] 0.00058
[  3      29    ] 0.00058 [  2       4    ] 0.00053 [  1       7    ] 0.00046
[  1       4    ] 0.00042 [  2       8    ]-0.00037 [  1       5    ]-0.00027
[  1       9    ] 0.00027 [  3      28    ] 0.00024 [  1      10    ]-0.00023
[  1       8    ]-0.00022 [  3      27    ] 0.00022 [  2      11    ] 0.00019
-----------------------------------------------------------------------------
   Norm of T1AA vector (       25 symmetry allowed elements):  0.0032202112.
-----------------------------------------------------------------------------
   Largest T2 amplitudes for spin case AA:
   i   j   a   b             i   j   a   b             i   j   a   b
-----------------------------------------------------------------------------
[  2   1  14  12]-0.00302 [  2   1  18  16]-0.00302 [  3   2  32  12] 0.00296
[  3   2  36  16] 0.00296 [  2   1   8   7]-0.00223 [  2   1   8   4]-0.00208
[  3   2  32  13] 0.00177 [  3   2  36  17] 0.00177 [  3   2  26   7]-0.00177
[  2   1  14  13]-0.00174 [  2   1  18  17]-0.00174 [  3   2  26   4]-0.00166
[  3   2  26  10] 0.00153 [  3   2  26   8] 0.00147 [  2   1  28  26]-0.00145
-----------------------------------------------------------------------------
   Norm of T2AA vector (      298 symmetry allowed elements):  0.0117442080.
-----------------------------------------------------------------------------
   Largest T1 amplitudes for spin case BB:
   i       a                 i       a                 i       a    
-----------------------------------------------------------------------------
[  1       9    ]-0.00158 [  2      27    ]-0.00147 [  1       3    ]-0.00114
[  2      23    ]-0.00106 [  2      21    ]-0.00104 [  1       5    ]-0.00099
[  2      22    ]-0.00088 [  2      26    ]-0.00047 [  1       7    ]-0.00046
[  2      25    ]-0.00034 [  1      10    ] 0.00029 [  2      28    ]-0.00028
[  1       8    ]-0.00024 [  2      29    ] 0.00019 [  1      11    ] 0.00019
-----------------------------------------------------------------------------
   Norm of T1BB vector (       18 symmetry allowed elements):  0.0032829450.
-----------------------------------------------------------------------------
   Largest T2 amplitudes for spin case BB:
   i   j   a   b             i   j   a   b             i   j   a   b
-----------------------------------------------------------------------------
[  2   1  26   8] 0.00016 [  2   1  26   7] 0.00014 [  2   1  32  14]-0.00011
[  2   1  36  18]-0.00011 [  2   1  26   4] 0.00010 [  2   1  25   8]-0.00009
[  2   1  25   7]-0.00008 [  2   1  26  10] 0.00007 [  2   1  28   8] 0.00006
[  2   1  25   4]-0.00006 [  2   1  28   7] 0.00005 [  2   1  32  12]-0.00005
[  2   1  36  16]-0.00005 [  2   1  32  15] 0.00004 [  2   1  36  19] 0.00004
-----------------------------------------------------------------------------
   Norm of T2BB vector (      114 symmetry allowed elements):  0.0003757180.
-----------------------------------------------------------------------------
   Largest T2 amplitudes for spin case AB:
       _       _                 _       _                 _       _
   i   j   a   b             i   j   a   b             i   j   a   b
-----------------------------------------------------------------------------
[  3   2   9   9]-0.01259 [  1   1   9   9]-0.01258 [  3   1   9  27]-0.01226
[  1   2   9  27]-0.01225 [  3   1  27   9]-0.01221 [  1   2  27   9]-0.01221
[  3   2  27  27]-0.01212 [  1   1  27  27]-0.01211 [  3   2  37  37]-0.00864
[  3   2  33  33]-0.00864 [  3   1  33  15]-0.00864 [  3   1  37  19]-0.00864
[  1   2  15  33]-0.00863 [  1   2  19  37]-0.00863 [  1   1  19  19]-0.00863
-----------------------------------------------------------------------------
   Norm of T2AB vector (     1314 symmetry allowed elements):  0.0779237307.
-----------------------------------------------------------------------------
       Summary of iterative solution of CC equations 
      -----------------------------------------------------------
                       Correlation           Total
       Iteration         Energy              Energy
      -----------------------------------------------------------
            0        -0.061326580246     -14.769402438562  DIIS 
            1        -0.068887384425     -14.776963242740  DIIS 
            2        -0.069920615694     -14.777996474010  DIIS 
            3        -0.070107482778     -14.778183341094  DIIS 
            4        -0.070108094423     -14.778183952738  DIIS 
            5        -0.070107854154     -14.778183712469  DIIS 
            6        -0.070107866950     -14.778183725265  DIIS 
            7        -0.070107882289     -14.778183740605  DIIS 
            8        -0.070107881223     -14.778183739539  DIIS 
            9        -0.070107878323     -14.778183736639  DIIS 
           10        -0.070107877966     -14.778183736282  DIIS 
           11        -0.070107877911     -14.778183736226  DIIS 
      -----------------------------------------------------------
      A miracle has come to pass. The CC iterations have converged.
 @DIMT3-I, Dimensions of T3 amplitudes : 
               # abc          # ijk       Symmetry    Spin 
                      897              0     1          1
                      824              0     2          1
                      824              0     3          1
                      736              0     4          1
                      880              1     5          1
                      824              0     6          1
                      824              0     7          1
                      736              0     8          1
                     3051              3     1          2
                     2684              0     2          2
                     2684              0     3          2
                     2291              0     4          2
                     3051              3     5          2
                     2684              0     6          2
                     2684              0     7          2
                     2291              0     8          2
                     3174              1     1          3
                     2760              0     2          3
                     2760              0     3          3
                     2340              0     4          3
                     3156              2     5          3
                     2760              0     6          3
                     2760              0     7          3
                     2340              0     8          3
                      985              0     1          4
                      900              0     2          4
                      900              0     3          4
                      785              0     4          4
                      985              0     5          4
                      900              0     6          4
                      900              0     7          4
                      785              0     8          4
 @DIMT3-I, Dimensions of T3 amplitudes : 
               # abc          # ijk       Symmetry    Spin 
                      897              0     1          1
                      824              0     2          1
                      824              0     3          1
                      736              0     4          1
                      880              1     5          1
                      824              0     6          1
                      824              0     7          1
                      736              0     8          1
                     3051              3     1          2
                     2684              0     2          2
                     2684              0     3          2
                     2291              0     4          2
                     3051              3     5          2
                     2684              0     6          2
                     2684              0     7          2
                     2291              0     8          2
                     3174              1     1          3
                     2760              0     2          3
                     2760              0     3          3
                     2340              0     4          3
                     3156              2     5          3
                     2760              0     6          3
                     2760              0     7          3
                     2340              0     8          3
                      985              0     1          4
                      900              0     2          4
                      900              0     3          4
                      785              0     4          4
                      985              0     5          4
                      900              0     6          4
                      900              0     7          4
                      785              0     8          4
 @TRPS-I, Welcome to TRPS. Watch your RUs ! 
 @TRPS-I, Method is CCSD(T) 
 @TRPS-I, Calculation type is energy 
 @TRPS-I, Reference function information : 
          Reference function is general non-HF 
 @TRPS-I, Reference function is ROHF 
 @TRPS-I, INT1 is true 
 @TRPS-I, INT2 is false 
 @TRPS-I, Lengths of ijka integrals. #1         77
                                     #2         18
                                     #3        102
                                     #4        162
                                    Max        162
 @INITRP-I, Initializing W intermediate lists. 
 @TSPABCI-I, AbIc/AbcI record transposition. 
 @TSPABCI-I, (O,v) ---> (v,O) transposition. 
 @TSPABCI-I, In-core algorithm is being used. 
 @TSPABCI-I, In-core algorithm is being used. 
 @TSPABCI-I, In-core algorithm is being used. 
 @TSPABCI-I, In-core algorithm is being used. 
 @TSPABCI-I, In-core algorithm is being used. 
 @TSPABCI-I, In-core algorithm is being used. 
 @TSPABCI-I, In-core algorithm is being used. 
 @TSPABCI-I, In-core algorithm is being used. 
 @TRPS-I, Available memory in integer words    249959040
          Number of pre-allocated words for TRPS14          591
          Number of free words for TRPS14    249958449
 @TRPS14-I, Spin case AAA 
 @TRPS14-I, Number of free integer words  249958449
            Number of free double words   249958449
            Ratio                                 1
 @TRPS14-I, E4TAAA      -0.000000008072
 @TRPS14-I, E5ST A    0.000000000383594
 @TRPS14-I, E4ST A    0.000000000207941
 @SETOOOV-I, Some OOOV lists are being transposed. 
 @TRPS-I, Available memory in integer words    249959040
          Number of pre-allocated words for TRPS2         3625
          Number of free words for TRPS2    249955415
 @TRPS2-I, Spin case AAB 
 @TRPS2-I, Number of free integer words  249955415
           Number of free double  words  249955415
           Ratio                                 1
 @TRPS2-I, E4TBAA      -0.000023921875
 @TRPS2-I, E5ST A   -0.000000024668880
 @TRPS2-I, E5ST B    0.000000058227273
 @TRPS2-I, E4ST A   -0.000000085936459
 @TRPS2-I, E4ST B    0.000000033283454
 @SETOOOV-I, Some OOOV lists are being transposed. 
 @TSPABCI2-I, (Alpha,Beta) ---> (Beta,Alpha). 
 @TSPABCI2-I, In-core algorithm is being used. 
 @TSPABCI2-I, In-core algorithm is being used. 
 @TSPABCI2-I, In-core algorithm is being used. 
 @TSPABCI2-I, In-core algorithm is being used. 
 @TSPABCI2-I, In-core algorithm is being used. 
 @TSPABCI2-I, In-core algorithm is being used. 
 @TSPABCI2-I, In-core algorithm is being used. 
 @TSPABCI2-I, In-core algorithm is being used. 
 @TSPABCI2-I, In-core algorithm is being used. 
 @TSPABCI2-I, In-core algorithm is being used. 
 @TSPABCI2-I, In-core algorithm is being used. 
 @TSPABCI2-I, In-core algorithm is being used. 
 @TSPABCI2-I, In-core algorithm is being used. 
 @TSPABCI2-I, In-core algorithm is being used. 
 @TSPABCI2-I, In-core algorithm is being used. 
 @TSPABCI2-I, In-core algorithm is being used. 
 @AT2IAB-I, Some AbIj lists are being altered. 
 @TRPS-I, Available memory in integer words    249959040
          Number of pre-allocated words for TRPS3         5619
          Number of free words for TRPS3    249953421
 @TRPS3-I, Spin case BBA 
 @TRPS3-I, Number of free integer words  249953421
           Number of free double  words  249953421
           Ratio                                 1
 @TRPS3-I, E4TBBA      -0.000000310057
 @TRPS3-I, E5ST A   -0.000000024725788
 @TRPS3-I, E5ST B    0.000000062999023
 @TRPS3-I, E4ST A   -0.000000086016033
 @TRPS3-I, E4ST B    0.000000034575795
 @TSPABCI2-I, (Beta,Alpha) ---> (Alpha,Beta). 
 @TSPABCI2-I, In-core algorithm is being used. 
 @TSPABCI2-I, In-core algorithm is being used. 
 @TSPABCI2-I, In-core algorithm is being used. 
 @TSPABCI2-I, In-core algorithm is being used. 
 @TSPABCI2-I, In-core algorithm is being used. 
 @TSPABCI2-I, In-core algorithm is being used. 
 @TSPABCI2-I, In-core algorithm is being used. 
 @TSPABCI2-I, In-core algorithm is being used. 
 @TSPABCI2-I, In-core algorithm is being used. 
 @TSPABCI2-I, In-core algorithm is being used. 
 @TSPABCI2-I, In-core algorithm is being used. 
 @TSPABCI2-I, In-core algorithm is being used. 
 @TSPABCI2-I, In-core algorithm is being used. 
 @TSPABCI2-I, In-core algorithm is being used. 
 @TSPABCI2-I, In-core algorithm is being used. 
 @TSPABCI2-I, In-core algorithm is being used. 
 @AT2IAB-I, Some AbIj lists are being altered. 
 @TSPABCI-I, AbIc/AbcI record transposition. 
 @TSPABCI-I, (v,O) ---> (O,v) transposition. 
 @TSPABCI-I, In-core algorithm is being used. 
 @TSPABCI-I, In-core algorithm is being used. 
 @TSPABCI-I, In-core algorithm is being used. 
 @TSPABCI-I, In-core algorithm is being used. 
 @TSPABCI-I, In-core algorithm is being used. 
 @TSPABCI-I, In-core algorithm is being used. 
 @TSPABCI-I, In-core algorithm is being used. 
 @TSPABCI-I, In-core algorithm is being used. 
 @CCENRG-I, CCSD/QCISD energy will now be evaluated. 
 @CCENRG-I, Correlation energies. ECCAA       -0.000653546241
                                  ECCBB       -0.000014168760
                                  ECCAB       -0.069440162911
                                  Total       -0.070107877911
 @CCENRG-I, Reference   energy     -14.708075858315
            CCSD/QCISD energy      -14.778183736226
          E4T (T(CCSD)) = -0.000024240004
          E5ST          =  0.000000038273
          E4ST          = -0.000000051440
          In other words  
          <T3[2](Dagger) D3  T3[2]> = -0.000024240004
          <T1   (Dagger) Q1 WT3[2]> =  0.000000038273
          <T2   (Dagger) Q2 FT3[2]> = -0.000000051440
        E(CCSD)           =     -14.778183736226
        E(CCSD(T))        =     -14.778207989398
  @CHECKOUT-I, Total execution time (CPU/WALL):        0.13/       0.17 seconds.
--executable xvcc finished with status     0 in        0.33 seconds (walltime).
  The final electronic energy is       -14.778207989397808 a.u. 
  This computation required                            6.67 seconds (walltime).
--- SharcNET Job Epilogue ---
Job completed successfully.
               jobid: 1967867
               resid: 3435140
         exit status: 0
      allocated time: 7.78298
           user time: 0.88
         system time: 0.35
peak rss=212443136; peak vsz=212443136 (bytes)
atime=7.78298; utime=0.88; stime=0.35; exit=0
