 --invoking executable--
/home/nike/cfour_v2.00beta/bin/xjoda


   *************************************************************************
         <<<     CCCCCC     CCCCCC   |||     CCCCCC     CCCCCC   >>>
       <<<      CCC        CCC       |||    CCC        CCC         >>>
      <<<      CCC        CCC        |||   CCC        CCC            >>>
    <<<        CCC        CCC        |||   CCC        CCC              >>>
      <<<      CCC        CCC        |||   CCC        CCC            >>>
       <<<      CCC        CCC       |||    CCC        CCC         >>>
         <<<     CCCCCC     CCCCCC   |||     CCCCCC     CCCCCC   >>>
   *************************************************************************

     ****************************************************************
     * CFOUR Coupled-Cluster techniques for Computational Chemistry *
     ****************************************************************
 

   Department of Chemistry                Institut fuer Physikalische Chemie
   University of Texas at Austin          Universitaet Mainz
   Austin, TX  78712, USA                 D-55099 Mainz, Germany
 
                       Version 2.00beta
 
                     wob144                                            
                     Wed Apr 11 17:54:37 EDT 2018                      
                     integer*8 version is running
 
********************************************************************************
*                          Input from ZMAT file                                *
********************************************************************************
TITLE                                                                           
B                                                                               
                                                                                
*ACES2(CALC=CCSD                                                                
INPUT_MRCC=OFF                                                                  
CC_PROG=MRCC                                                                    
XFORM_TOL=18                                                                    
SAVE_INTS=ON                                                                    
SCF_EXPORDER=6                                                                  
SCF_EXPSTART=5                                                                  
#SCF_DAMPING=1000                                                               
SCF_EXTRAPOLATION=ON                                                            
SCF_CONV=10                                                                     
SCF_MAXCYC=9999                                                                 
CC_CONV=10                                                                      
CC_MAXCYC=999                                                                   
T3_EXTRAPOL=ON                                                                  
REFERENCE=ROHF                                                                  
MULT=2                                                                          
ABCDTYPE=STANDARD                                                               
OCCUPATION=2-1-0-0-0-0-0-0/2-0-0-0-0-0-0-0                                      
MEM=128                                                                         
MEM_UNIT=GB                                                                     
BASIS=SPECIAL)                                                                  
                                                                                
B:aug-cc-pCVQZ                                                                  
                                                                                
********************************************************************************
  @GTFLGS-W, Keyword #SCF_DAMPING not known and is ignored.
    -------------------------------------------------------------------
                    CFOUR Control Parameters 
    -------------------------------------------------------------------
        External           Internal           Value            Units
          Name               Name
    -------------------------------------------------------------------
       ABCDTYPE             IABCDT         STANDARD     [  0]   ***   
       ANHARMONIC           IANHAR         OFF          [  0]   ***   
       ANH_ALGORIT          IANALG         STANDARD     [  0]   ***   
       ANH_DERIVAT          IANDER         SECOND       [  1]   ***   
       ANH_STEPSIZ          ICUBST             50000          x 10-6  
       ANH_SYMMETR          IANHSM         ABELIAN      [  0]   ***   
       AO_LADDERS           IAOLAD         SINGLEPASS   [  1]   ***   
       BASIS                IBASIS         SPECIAL      [  0]   ***   
       BREIT                IBREIT         OFF          [  0]   ***   
       BRUCK_CONV           IBRTOL          10D-  4             ***   
       BRUECKNER            IBRKNR             OFF      [  0]   ***   
       BUFFERSIZE           IBUFFS            600               ***   
       CACHE_RECS           ICHREC             10               ***   
       CALCLEVEL            ICLLVL           CCSD       [ 10]   ***   
       CCORBOPT             ICCORB             OFF      [  0] x 0.01  
       CC_CONV              ICCCNV          10D- 10             ***   
       CC_EXPORDER          ICCEOR              5               ***   
       CC_EXTRAPOL          ICCEXT             DIIS     [  1]   ***   
       CC_MAXCYC            ICCCYC            999              cycles 
       CC_PROGRAM           ICCPRO         MRCC         [  2]   ***   
       CHARGE               ICHRGE              0               ***   
       CHOLESKY             ICHOLE         OFF          [  0]   ***   
       CIS_CONV             ICISTL              5               ***   
       COMM_SIZE            IPSIZE            ***               ***   
       CONSTANT             ICONST         OLD          [  1]   ***   
       CONTINUUM            ICONTU         NONE         [  0]   ***   
       CONTRACTION          ICNTYP          GENERAL     [  1]   ***   
       COORDINATES          ICOORD         INTERNAL     [  0]   ***   
       CPHF_CONVER          ICPHFT          10D- 16             ***   
       CPHF_MAXCYC          ICPHFC             64              cycles 
       CUBIC                ICUBIC         OFF          [  0]   ***   
       CURVILINEAR          ICURVY            OFF       [  0]   ***   
       DBOC                 IDBOC          OFF          [  0]   ***   
       DCT                  IDCT           OFF          [  0]   ***   
       DERIV_LEV            IDRLVL            ZERO      [  0]   ***   
       DIAG_MRCC            IEOMST          10D-  0             ***   
       DIFF_TYPE            IDIFTY         RELAXED      [  0]   ***   
       DIRECT               IDIRCT         OFF          [  0]   ***   
       DROPMO               IDRPMO      NONE         
       ECP                  IECP           OFF          [  0]   ***   
       EIGENVECTOR          IVEC                1               ***   
       EL_ANHARM            IELANH         OFF          [  0]   ***   
       EOMFOLLOW            IEOMSR         ENERGY       [  0]   ***   
       EOM_MRCC             IMRCCE         NEW          [  1]   ***   
       EOM_NONIT            EOMNON         OFF          [  0]   ***   
       EOM_NSING            IEOMSI          10D-  0             ***   
       EOM_NSTATES          IMRCCD         DAVIDSON     [  0]   ***   
       EOM_NTRIP            IEOMTR          10D-  0             ***   
       EOM_ORDER            IEXORD         ENERGY       [  0]   ***   
       ESTATE_CONV          IEXTOL          10D-  5             ***   
       ESTATE_DIAG          IEXDIG         ITERATIVE    [  0]   ***   
       ESTATE_LOCK          IESLOC         ON           [  1]   ***   
       ESTATE_MAXC          IEXMXC             20               ***   
       ESTATE_PROP          IEXPRP         OFF          [  0]   ***   
       EVAL_HESS            IRECAL              0            # of cyc.
       EXCITATION           IEXCIT              0               ***   
       EXCITE               IEXCIT         NONE         [  0]   ***   
       FCGRADNEW            IFCGNW         OFF          [  0]   ***   
       FC_FIELD             IFINFC              0             x 10-6  
       FD_CALTYPE           IFDCAL         GRADONLY     [  0]   ***   
       FD_PROJECT           IFDPRJ         OFF          [  1]   ***   
       FD_STEPSIZE          IDISFD              0            10-4 bohr
       FD_USEGROUP          IFDGRP         FULL         [  0]   ***   
       FILE_RECSIZ          IFLREC              4096           words  
       FINITE_PERT          IFIPER              0             x 10-6  
       FIXGEOM              IFIXGM         OFF          [  0]   ***   
       FOCK                 IFOCK          AO           [  1]   ***   
       FREQ_ALGORI          IVIALG         STANDARD     [  0]   ***   
       FROZEN_CORE          IFROCO         OFF          [  0]   ***   
       FROZEN_VIRT          IFROVI         OFF          [  0]   ***   
       GAMMA_ABCD           IGABCD         STORE        [  0]   ***   
       GAMMA_ABCI           IGABCI         STORE        [  0]   ***   
       GENBAS_1             IGNBS1              0               ***   
       GENBAS_2             IGNBS2              0               ***   
       GENBAS_3             IGNBS3              0               ***   
       GENBAS_4             IGNBS4              0               ***   
       GEO_CONV             ICONTL              5              H/bohr 
       GEO_MAXCYC           IOPTCY             50               ***   
       GEO_MAXSTEP          IMXSTP            300            millibohr
       GEO_METHOD           INR            SINGLE_POINT [  5]   ***   
       GIAO                 IGIAO          OFF          [  1]   ***   
       GIMIC                IGIMIC         OFF          [  0]   ***   
       GRID                 IGRID          OFF          [  0]   ***   
       GRID_ALGO            IGALGO         SERIAL       [  0]   ***   
       GUESS                IGUESS            MOREAD    [  0]   ***   
       HBAR                 IHBAR              OFF      [  0]   ***   
       HESS_TYPE            IHESTP         SCF          [  0]   ***   
       HF2_FILE             IHF2Fl         USE          [  1]   ***   
       HFSTABILITY          ISTABL         OFF          [  0]   ***   
       INCORE               INCORE             OFF      [  0]   ***   
       INPUT_MRCC           IMRCC          OFF          [  0]   ***   
       INTEGRALS            INTTYP             VMOL     [  1]   ***   
       JODA_PRINT           IJPRNT              0               ***   
       LINDEP_TOL           ILINDP              8               ***   
       LINEQ_CONV           IZTACN          10D-  7           cycles  
       LINEQ_EXPOR          ILMAXD              5               ***   
       LINEQ_MAXCY          ILMAXC             50               ***   
       LINEQ_TYPE           ILTYPE         DIIS         [  1]   ***   
       LOCK_ORBOCC          ILOCOC             OFF      [  0]   ***   
       MEMORY_SIZE          IMEMSZ         *********           words  
       MEM_UNIT             IMEMU          GB           [  3]   ***   
       MRCC                 IMRCCC         OFF          [  0]   ***   
       MULTIPLICTY          IMULTP              2               ***   
       NEGEVAL              IDIE             ABORT      [  0]   ***   
       NEWNORM              INEWNO         OFF          [  0]   ***   
       NON-HF               INONHF              ON      [  1]   ***   
       NTOP_TAMP            ITOPT2             15               ***   
       NUC_MODEL            INUCMO         POINT        [  0]   ***   
       OCCUPATION           IOCCU  A   2,  1,  0,  0,  0,  0,  0,  0,
                                   B   2,  0,  0,  0,  0,  0,  0,  0,
       OPEN-SHELL           IOPEN          SPIN-ORBITAL [  0]   ***   
       ORBITALS             IORBTP         SEMICANONICAL[  1]   ***   
       PARALLEL             IPARAL         ON           [  1]   ***   
       PARA_INT             IPINTS         ON           [  1]   ***   
       PARA_PRINT           IPPRIN              0               ***   
       PERT_ORB             IPTORB         STANDARD     [  0]   ***   
       POINTS               IGRDFD              0               ***   
       PRINT                IPRNT               0               ***   
       PROPS                IPROPS             OFF      [  0]   ***   
       PROP_INTEGR          IINTYP         INTERNAL     [  0]   ***   
       PSI                  IPSI           OFF          [  0]   ***   
       QUARTIC              IQUART         OFF          [  0]   ***   
       RAMAN_INT            IRAMIN         OFF          [  0]   ***   
       RAMAN_ORB            IRAMRE         UNRELAXED    [  0]   ***   
       RDO                  IRDOFM             OFF      [  0]   ***   
       REFERENCE            IREFNC             ROHF     [  2]   ***   
       RELATIVIST           IRELAT         OFF          [  0]   ***   
       RELAX_DENS           IRDENS             OFF      [  0]   ***   
       RESET_FLAGS          IRESET             OFF      [  0]   ***   
       RESTART_CC           ICCRES         OFF          [  0]   ***   
       ROT_EVEC             ROTVEC              0               ***   
       SAVE_INTS            ISVINT              ON      [  1]   ***   
       SCALE_ON             ISTCRT              0               ***   
       SCF_CONV             ISCFCV          10D- 10             ***   
       SCF_DAMPING          IDAMP               0             x 10-3  
       SCF_EXPORDE          IRPPOR              6               ***   
       SCF_EXPSTAR          IRPPLS              5               ***   
       SCF_EXTRAPO          IRPP                ON      [  1]   ***   
       SCF_MAXCYC           ISCFCY            ***              cycles 
       SCF_NOSTOP           ISCFST         OFF          [  0]   ***   
       SCF_PRINT            ISCFPR              0               ***   
       SD_FIELD             IFINSD              0             x 10-6  
       SEQUENCE             ISEQUE         OFF          [  0]   ***   
       SOPERT               IPERSO         OFF          [  0]   ***   
       SPHERICAL            IDFGHI             ON       [  1]   ***   
       SPINORBIT            ISOCAL         OFF          [  0]   ***   
       SPINROTATIO          ISRCON         OFF          [  0]   ***   
       SPIN_FLIP            ISPFLP         OFF          [  0]   ***   
       SPIN_ORBIT           ISPORB         OFF          [  0]   ***   
       SPIN_SCAL            ISCSMP         OFF          [  0]   ***   
       SUBGROUP             ISUBGP         DEFAULT      [  0]   ***   
       SUBGRPAXIS           ISBXYZ         X            [  0]   ***   
       SYMMETRY             ISYM             ON         [  0]   ***   
       SYM_CHECK            ISYMCK         OVERRIDE     [  1]   ***   
       T3_EXTRAPOL          IT3EXT         ON           [  1]   ***   
       TAMP_SUM             IEVERY              5               ***   
       TESTSUITE            ITESTS         OFF          [  0]   ***   
       THERMOCH             ITHERM         OFF          [  0]   ***   
       TOL_CHOLESK          ITOLCH          10D-  4             ***   
       TRANGRAD             IRESRM         OFF          [  0]   ***   
       TRANS_INV            ITRAIN         USE          [  0]   ***   
       TREAT_PERT           ITREAT         SIMULTANEOUS [  0]   ***   
       UIJ_THRESHO          IUIJTH              1               ***   
       UNITS                IUNITS         ANGSTROM     [  0]   ***   
       UNOS                 IUNOS          OFF          [  0]   ***   
       UPDATE_HESS          IHUPDT         ON           [  1]   ***   
       VIBPHASE             ISETPH         STANDARD     [  0]   ***   
       VIBRATION            IVIB              NO        [  0]   ***   
       VIB_ALGORIT          IGEALG         STANDARD     [  0]   ***   
       VNATORB              IVNORB         OFF          [  0]   ***   
       VTRAN                IVTRAN         FULL/PARTIAL [  0]   ***   
       XFIELD               IXEFLD              0             x 10-6  
       XFORM_TOL            IXFTOL          10D- 18             ***   
       YFIELD               IYEFLD              0             x 10-6  
       ZFIELD               IZEFLD              0             x 10-6  
    -------------------------------------------------------------------
   1 entries found in Z-matrix 
   Job Title : TITLE                                                                           
  1  B          5    11.00931
 factor:   60.1997200000000     
   Rotational constants (in cm-1): 

   Rotational constants (in MHz): 

********************************************************************************
   The full molecular point group is I h .
   The largest Abelian subgroup of the full molecular point group is D2h .
   The computational point group is D2h .
********************************************************************************
  @GTFLGS-W, Keyword #SCF_DAMPING not known and is ignored.
  There are  109 basis functions.
 @GEOPT-W, Archive file not created for single-point calculation.
  @CHECKOUT-I, Total execution time (CPU/WALL):        0.10/       0.94 seconds.
--executable xjoda finished with status     0 in        1.16 seconds (walltime).
 --invoking executable--
/home/nike/cfour_v2.00beta/bin/xvmol
 Serial version of molecule started
********************************************************************************
                    Input from MOL file
********************************************************************************
INTGRL        1    0    1    0    0    0    0    0    0                         
         *** CFOUR Program System (Release V0.1) ***                            
TITLE                                                                           
    1    3 X  Y   Z   0.10E-08              0    0                              
   9999.00      3.00                                                            
          5.00000000    1    5    1    1    1    1    1                         
B #1   0.000000000000000   0.000000000000000   0.000000000000000                
   16    9                                                                      
   23870.0000000000       8.800000000000000E-005 -1.800000000000000E-005        
  0.000000000000000E+000  0.000000000000000E+000  0.000000000000000E+000        
  0.000000000000000E+000  0.000000000000000E+000  0.000000000000000E+000        
  0.000000000000000E+000                                                        
   3575.00000000000       6.870000000000000E-004 -1.390000000000000E-004        
  0.000000000000000E+000  0.000000000000000E+000  0.000000000000000E+000        
  0.000000000000000E+000  0.000000000000000E+000  0.000000000000000E+000        
  0.000000000000000E+000                                                        
   812.800000000000       3.600000000000000E-003 -7.250000000000000E-004        
  0.000000000000000E+000  0.000000000000000E+000  0.000000000000000E+000        
  0.000000000000000E+000  0.000000000000000E+000  0.000000000000000E+000        
  0.000000000000000E+000                                                        
   229.700000000000       1.494900000000000E-002 -3.063000000000000E-003        
  0.000000000000000E+000  0.000000000000000E+000  0.000000000000000E+000        
  0.000000000000000E+000  0.000000000000000E+000  0.000000000000000E+000        
  0.000000000000000E+000                                                        
   74.6900000000000       5.143500000000000E-002 -1.058100000000000E-002        
  0.000000000000000E+000  0.000000000000000E+000  0.000000000000000E+000        
  0.000000000000000E+000  0.000000000000000E+000  0.000000000000000E+000        
  0.000000000000000E+000                                                        
   26.8100000000000       0.143302000000000      -3.136500000000000E-002        
  0.000000000000000E+000  0.000000000000000E+000  0.000000000000000E+000        
  0.000000000000000E+000  0.000000000000000E+000  0.000000000000000E+000        
  0.000000000000000E+000                                                        
   10.3200000000000       0.300935000000000      -7.101200000000001E-002        
  0.000000000000000E+000  0.000000000000000E+000  0.000000000000000E+000        
  0.000000000000000E+000  0.000000000000000E+000  0.000000000000000E+000        
  0.000000000000000E+000                                                        
   4.17800000000000       0.403526000000000      -0.132103000000000             
  0.000000000000000E+000  0.000000000000000E+000  0.000000000000000E+000        
  0.000000000000000E+000  0.000000000000000E+000  0.000000000000000E+000        
  0.000000000000000E+000                                                        
   1.72700000000000       0.225340000000000      -0.123072000000000             
  0.000000000000000E+000  0.000000000000000E+000  0.000000000000000E+000        
  0.000000000000000E+000  0.000000000000000E+000  0.000000000000000E+000        
  0.000000000000000E+000                                                        
  0.470400000000000       1.540700000000000E-002  0.261819000000000             
   1.00000000000000       0.000000000000000E+000  0.000000000000000E+000        
  0.000000000000000E+000  0.000000000000000E+000  0.000000000000000E+000        
  0.000000000000000E+000                                                        
  0.189600000000000      -3.955000000000000E-003  0.586662000000000             
  0.000000000000000E+000   1.00000000000000       0.000000000000000E+000        
  0.000000000000000E+000  0.000000000000000E+000  0.000000000000000E+000        
  0.000000000000000E+000                                                        
  7.394000000000001E-002  1.124000000000000E-003  0.290494000000000             
  0.000000000000000E+000  0.000000000000000E+000   1.00000000000000             
  0.000000000000000E+000  0.000000000000000E+000  0.000000000000000E+000        
  0.000000000000000E+000                                                        
   4.86400000000000       0.000000000000000E+000  0.000000000000000E+000        
  0.000000000000000E+000  0.000000000000000E+000  0.000000000000000E+000        
   1.00000000000000       0.000000000000000E+000  0.000000000000000E+000        
  0.000000000000000E+000                                                        
   13.2880000000000       0.000000000000000E+000  0.000000000000000E+000        
  0.000000000000000E+000  0.000000000000000E+000  0.000000000000000E+000        
  0.000000000000000E+000   1.00000000000000       0.000000000000000E+000        
  0.000000000000000E+000                                                        
   36.3040000000000       0.000000000000000E+000  0.000000000000000E+000        
  0.000000000000000E+000  0.000000000000000E+000  0.000000000000000E+000        
  0.000000000000000E+000  0.000000000000000E+000   1.00000000000000             
  0.000000000000000E+000                                                        
  2.721000000000000E-002  0.000000000000000E+000  0.000000000000000E+000        
  0.000000000000000E+000  0.000000000000000E+000  0.000000000000000E+000        
  0.000000000000000E+000  0.000000000000000E+000  0.000000000000000E+000        
   1.00000000000000                                                             
   10    8                                                                      
   22.2600000000000       5.095000000000000E-003  0.000000000000000E+000        
  0.000000000000000E+000  0.000000000000000E+000  0.000000000000000E+000        
  0.000000000000000E+000  0.000000000000000E+000  0.000000000000000E+000        
   5.05800000000000       3.320600000000000E-002  0.000000000000000E+000        
  0.000000000000000E+000  0.000000000000000E+000  0.000000000000000E+000        
  0.000000000000000E+000  0.000000000000000E+000  0.000000000000000E+000        
   1.48700000000000       0.132314000000000       0.000000000000000E+000        
  0.000000000000000E+000  0.000000000000000E+000  0.000000000000000E+000        
  0.000000000000000E+000  0.000000000000000E+000  0.000000000000000E+000        
  0.507100000000000       0.331818000000000        1.00000000000000             
  0.000000000000000E+000  0.000000000000000E+000  0.000000000000000E+000        
  0.000000000000000E+000  0.000000000000000E+000  0.000000000000000E+000        
  0.181200000000000       0.472063000000000       0.000000000000000E+000        
   1.00000000000000       0.000000000000000E+000  0.000000000000000E+000        
  0.000000000000000E+000  0.000000000000000E+000  0.000000000000000E+000        
  6.463000000000001E-002  0.257979000000000       0.000000000000000E+000        
  0.000000000000000E+000   1.00000000000000       0.000000000000000E+000        
  0.000000000000000E+000  0.000000000000000E+000  0.000000000000000E+000        
   5.48900000000000       0.000000000000000E+000  0.000000000000000E+000        
  0.000000000000000E+000  0.000000000000000E+000   1.00000000000000             
  0.000000000000000E+000  0.000000000000000E+000  0.000000000000000E+000        
   16.3020000000000       0.000000000000000E+000  0.000000000000000E+000        
  0.000000000000000E+000  0.000000000000000E+000  0.000000000000000E+000        
   1.00000000000000       0.000000000000000E+000  0.000000000000000E+000        
   48.4180000000000       0.000000000000000E+000  0.000000000000000E+000        
  0.000000000000000E+000  0.000000000000000E+000  0.000000000000000E+000        
  0.000000000000000E+000   1.00000000000000       0.000000000000000E+000        
  1.878000000000000E-002  0.000000000000000E+000  0.000000000000000E+000        
  0.000000000000000E+000  0.000000000000000E+000  0.000000000000000E+000        
  0.000000000000000E+000  0.000000000000000E+000   1.00000000000000             
    6    6                                                                      
   1.11000000000000        1.00000000000000       0.000000000000000E+000        
  0.000000000000000E+000  0.000000000000000E+000  0.000000000000000E+000        
  0.000000000000000E+000                                                        
  0.402000000000000       0.000000000000000E+000   1.00000000000000             
  0.000000000000000E+000  0.000000000000000E+000  0.000000000000000E+000        
  0.000000000000000E+000                                                        
  0.145000000000000       0.000000000000000E+000  0.000000000000000E+000        
   1.00000000000000       0.000000000000000E+000  0.000000000000000E+000        
  0.000000000000000E+000                                                        
   6.64000000000000       0.000000000000000E+000  0.000000000000000E+000        
  0.000000000000000E+000   1.00000000000000       0.000000000000000E+000        
  0.000000000000000E+000                                                        
   24.4620000000000       0.000000000000000E+000  0.000000000000000E+000        
  0.000000000000000E+000  0.000000000000000E+000   1.00000000000000             
  0.000000000000000E+000                                                        
  4.660000000000000E-002  0.000000000000000E+000  0.000000000000000E+000        
  0.000000000000000E+000  0.000000000000000E+000  0.000000000000000E+000        
   1.00000000000000                                                             
    4    4                                                                      
  0.882000000000000        1.00000000000000       0.000000000000000E+000        
  0.000000000000000E+000  0.000000000000000E+000                                
  0.311000000000000       0.000000000000000E+000   1.00000000000000             
  0.000000000000000E+000  0.000000000000000E+000                                
   18.7940000000000       0.000000000000000E+000  0.000000000000000E+000        
   1.00000000000000       0.000000000000000E+000                                
  0.113000000000000       0.000000000000000E+000  0.000000000000000E+000        
  0.000000000000000E+000   1.00000000000000                                     
    2    2                                                                      
  0.673000000000000        1.00000000000000       0.000000000000000E+000        
  0.273000000000000       0.000000000000000E+000   1.00000000000000             
FINISH                                                                          
 
********************************************************************************
 One- and two-electron integrals over symmetry-adapted AOs are calculated.

  Spherical harmonics are used.
  
  Integrals less than  0.10E-13 are neglected.

  Nuclear repulsion energy :    0.0000000000 a.u.
  required memory for a1 array                6942280  words 
  required memory for a2 array                7122524  words 
 @GETMEM-I,  Allocated     122 MB of main memory.
  @MOLECU-I, One electron integrals (CPU/WALL):        0.03/       0.04 seconds.
  @TWOEL-I,      57521 integrals of symmetry type  I I I I
  @TWOEL-I,     457145 integrals of symmetry type  I J I J
  @TWOEL-I,     267011 integrals of symmetry type  I I J J
  @TWOEL-I,     970097 integrals of symmetry type  I J K L
  @TWOEL-I, Total number of 2-e integrals    1751774.
  @MOLECU-I, Two electron integrals (CPU/WALL):        1.66/       7.87 seconds.
  @CHECKOUT-I, Total execution time (CPU/WALL):        1.69/       8.20 seconds.
--executable xvmol finished with status     0 in        8.41 seconds (walltime).
 --invoking executable--
/home/nike/cfour_v2.00beta/bin/xvmol2ja
 @GETMEM-I,  Allocated  122070 MB of main memory.
  @CHECKOUT-I, Total execution time (CPU/WALL):        0.00/       0.38 seconds.
--executable xvmol2ja finished with status     0 in        0.53 seconds (walltime).
 --invoking executable--
/home/nike/cfour_v2.00beta/bin/xvscf
  There are  109 functions in the AO basis.

  There are 8 irreducible representations.

       Irrep        # of functions
         1                 27
         2                 16
         3                 16
         4                 10
         5                 16
         6                 10
         7                 10
         8                  4


  Parameters for SCF calculation: 
        SCF reference function: ROHF  
  Maximum number of iterations: 9999
     Full symmetry point group: I h 
     Computational point group: D2h 
        Initial density matrix: MOREAD                 
     SCF convergence tolerance: 10**(-10)
  DIIS convergence acceleration:  ON
          Latest start for DIIS:   5
                     DIIS order:   6

     Alpha population by irrep:   2    1    0    0    0    0    0    0
      Beta population by irrep:   2    0    0    0    0    0    0    0


  Memory information:     654862 words required.
  Fock matrices are constructed from AO integral file.
 @GETMEM-I,  Allocated       4 MB of main memory.
  Initialization and symmetry analysis required      0.001 seconds.

 total no. of electrons in initial guess :  0.000000000000000E+000
 total no. of electrons in initial guess :  0.000000000000000E+000
  --------------------------------------------------------------------
  Iteration         Total Energy            Largest Density Difference
  --------------------------------------------------------------------
       0             0.000000000000000              0.0000000000D+00
   current occupation vector 
     2  1  0  0  0  0  0  0
     2  0  0  0  0  0  0  0
       1           -22.729554084007649              0.1707087687D+02
   current occupation vector 
     2  1  0  0  0  0  0  0
     2  0  0  0  0  0  0  0
       2           -24.266623937194616              0.1706244001D+02
   current occupation vector 
     2  1  0  0  0  0  0  0
     2  0  0  0  0  0  0  0
       3           -24.519469450493787              0.1287176465D+01
   current occupation vector 
     2  1  0  0  0  0  0  0
     2  0  0  0  0  0  0  0
       4           -24.527974437597873              0.1330618192D+00
   current occupation vector 
     2  1  0  0  0  0  0  0
     2  0  0  0  0  0  0  0
       5           -24.528662783108803              0.7432590747D-01
   current occupation vector 
     2  1  0  0  0  0  0  0
     2  0  0  0  0  0  0  0
       6           -24.528957809027776              0.5313317144D-01
   current occupation vector 
     2  1  0  0  0  0  0  0
     2  0  0  0  0  0  0  0
       7           -24.528984839120692              0.1165623753D-01
   current occupation vector 
     2  1  0  0  0  0  0  0
     2  0  0  0  0  0  0  0
       8           -24.528985401052214              0.1665750769D-02
   current occupation vector 
     2  1  0  0  0  0  0  0
     2  0  0  0  0  0  0  0
       9           -24.528985404389356              0.8429003556D-04
   current occupation vector 
     2  1  0  0  0  0  0  0
     2  0  0  0  0  0  0  0
      10           -24.528985404444111              0.1299992699D-04
   current occupation vector 
     2  1  0  0  0  0  0  0
     2  0  0  0  0  0  0  0
      11           -24.528985404444480              0.1154007237D-05
   current occupation vector 
     2  1  0  0  0  0  0  0
     2  0  0  0  0  0  0  0
      12           -24.528985404444505              0.1420902095D-06
   current occupation vector 
     2  1  0  0  0  0  0  0
     2  0  0  0  0  0  0  0
      13           -24.528985404444562              0.4095845312D-07
   current occupation vector 
     2  1  0  0  0  0  0  0
     2  0  0  0  0  0  0  0
      14           -24.528985404444636              0.1061542456D-07
   current occupation vector 
     2  1  0  0  0  0  0  0
     2  0  0  0  0  0  0  0
      15           -24.528985404444402              0.1304614501D-08
   current occupation vector 
     2  1  0  0  0  0  0  0
     2  0  0  0  0  0  0  0
      16           -24.528985404444356              0.1021578377D-09
   current occupation vector 
     2  1  0  0  0  0  0  0
     2  0  0  0  0  0  0  0

  SCF has converged.

 Density matrix saved to file den.dat
 total alpha spin electron number:   2.99999999999999     
 total  beta spin electron number:   2.00000000000000     
     E(ROHF)=       -24.528985404444402              0.1921803862D-11

  Eigenvector printing suppressed.


       The average multiplicity is    2.0000000
  The expectation value of S**2 is    0.7500000

 @PUTMOS-I, Writing converged MOs to NEWMOS. 
 @PUTMOS-I, Symmetry   1 Full Blocks  6 Partial Blocksize   3
 @PUTMOS-I, Symmetry   2 Full Blocks  4 Partial Blocksize   0
 @PUTMOS-I, Symmetry   3 Full Blocks  4 Partial Blocksize   0
 @PUTMOS-I, Symmetry   4 Full Blocks  2 Partial Blocksize   2
 @PUTMOS-I, Symmetry   5 Full Blocks  4 Partial Blocksize   0
 @PUTMOS-I, Symmetry   6 Full Blocks  2 Partial Blocksize   2
 @PUTMOS-I, Symmetry   7 Full Blocks  2 Partial Blocksize   2
 @PUTMOS-I, Symmetry   8 Full Blocks  1 Partial Blocksize   0
  @DMPJOB-I, Rotating orbitals to semicanonical basis.
             *** Eigenvalues correspond to new basis. ***



 
  ORBITAL EIGENVALUES (ALPHA)  (1H = 27.2113838 eV)

       MO #        E(hartree)               E(eV)           FULLSYM    COMPSYM
       ----   --------------------   --------------------   -------   ---------
    1     1          -7.7027144856        -209.6015203205      Ag        Ag (1)
    2     2          -0.5407280944         -14.7139597194      Ag        Ag (1)
    3    28          -0.3099262794          -8.4335229448      Au       B2u (2)
  +++++++++++++++++++++++++++++++++++++++++++++++++++++++++++++++++++++++++++++
    4    44           0.0216983672           0.5904425970       u       B3u (3)
    5    70           0.0216983672           0.5904425970       u       B1u (5)
    6    29           0.0511129319           1.3908536086      Au       B2u (2)
    7     3           0.0554800412           1.5096886951      Ag        Ag (1)
    8    45           0.0752885716           2.0487062203       u       B3u (3)
    9    71           0.0752885716           2.0487062203       u       B1u (5)
   10    96           0.1453202760           3.9543658078       g       B2g (7)
   11     4           0.1453202760           3.9543658078       g        Ag (1)
   12    60           0.1472213369           4.0060963038       g       B1g (4)
   13    86           0.1472213369           4.0060963038       g       B3g (6)
   14     5           0.1480088316           4.0275251240      Ag        Ag (1)
   15    30           0.2722520264           7.4083543850      Au       B2u (2)
   16    46           0.3100220870           8.4361300032       u       B3u (3)
   17    72           0.3100220870           8.4361300032       u       B1u (5)
   18     6           0.3329731642           9.0606605715      Ag        Ag (1)
   19    73           0.4612287168          12.5506716422       u       B1u (5)
   20    47           0.4612287168          12.5506716422       u       B3u (3)
   21   106           0.4666986935          12.6995172772       u        Au (8)
   22    31           0.4666986935          12.6995172772       u       B2u (2)
   23    74           0.4701001922          12.7920767640       u       B1u (5)
   24    48           0.4701001922          12.7920767640       u       B3u (3)
   25    32           0.4712253932          12.8226950400      Au       B2u (2)
   26     7           0.4905508956          13.3485687029      Ag        Ag (1)
   27    61           0.4923073959          13.3963655080       g       B1g (4)
   28    87           0.4923073959          13.3963655080       g       B3g (6)
   29    97           0.4986446808          13.5688117991       g       B2g (7)
   30     8           0.4986446808          13.5688117991       g        Ag (1)
   31    33           1.0139978150          27.5922837349      Au       B2u (2)
   32    49           1.0380937129          28.2479664617       u       B3u (3)
   33    75           1.0380937129          28.2479664617       u       B1u (5)
   34     9           1.3436860760          36.5635575478      Ag        Ag (1)
   35    10           1.3688672378          37.2487718060       g        Ag (1)
   36    98           1.3688672378          37.2487718060       g       B2g (7)
   37    62           1.3785725588          37.5128670205       g       B1g (4)
   38    88           1.3785725588          37.5128670205       g       B3g (6)
   39    11           1.3855414901          37.7025012839       g        Ag (1)
   40    99           1.3855414901          37.7025012839       g       B2g (7)
   41    63           1.3896914857          37.8154284086       g       B1g (4)
   42    89           1.3896914857          37.8154284086       g       B3g (6)
   43    12           1.3910551723          37.8525362088      Ag        Ag (1)
   44    13           1.4015300352          38.1375717213      Ag        Ag (1)
   45    64           1.4021006109          38.1530978759       g       B1g (4)
   46    90           1.4021006109          38.1530978759       g       B3g (6)
   47   100           1.4064724318          38.2720611726       g       B2g (7)
   48    14           1.4064724318          38.2720611726       g        Ag (1)
   49    76           1.4373598437          39.1125503924       u       B1u (5)
   50    50           1.4373598437          39.1125503924       u       B3u (3)
   51   107           1.4467860002          39.3690491564       u        Au (8)
   52    34           1.4467860002          39.3690491564       u       B2u (2)
   53    77           1.4525463716          39.5257968329       u       B1u (5)
   54    51           1.4525463716          39.5257968329       u       B3u (3)
   55    35           1.4544779396          39.5783574714      Au       B2u (2)
   56    52           3.3571648661          91.3531017171       u       B3u (3)
   57    78           3.3571648661          91.3531017171       u       B1u (5)
   58    36           3.3613637969          91.4673604343      Au       B2u (2)
   59    15           3.9181529762         106.6183644988       g        Ag (1)
   60   101           3.9181529762         106.6183644988       g       B2g (7)
   61    91           3.9339470370         107.0481427495       g       B3g (6)
   62    65           3.9339470370         107.0481427495       g       B1g (4)
   63   102           3.9452227761         107.3549712156       g       B2g (7)
   64    16           3.9452227761         107.3549712156       g        Ag (1)
   65    92           3.9519951833         107.5392577852       g       B3g (6)
   66    66           3.9519951833         107.5392577852       g       B1g (4)
   67    17           3.9535408426         107.5813173137       g        Ag (1)
   68   103           3.9535408426         107.5813173137       g       B2g (7)
   69    18           3.9542542807         107.6007309514      Ag        Ag (1)
   70    67           3.9627193951         107.8310784291       g       B1g (4)
   71    93           3.9627193951         107.8310784291       g       B3g (6)
   72    19           3.9658649201         107.9166725166      Ag        Ag (1)
   73    53           4.0845165378         111.1453472279       u       B3u (3)
   74    79           4.0845165378         111.1453472279       u       B1u (5)
   75   108           4.0994240103         111.5510001829       u        Au (8)
   76    37           4.0994240103         111.5510001829       u       B2u (2)
   77    80           4.1084586857         111.7968462029       u       B1u (5)
   78    54           4.1084586857         111.7968462029       u       B3u (3)
   79    38           4.1114870348         111.8792517745      Au       B2u (2)
   80    20           6.0040773252         163.3792525772      Ag        Ag (1)
   81    55          12.3763484294         336.7775673962       u       B3u (3)
   82    81          12.3763484294         336.7775673962       u       B1u (5)
   83    39          12.3924512670         337.2157478907      Au       B2u (2)
   84    21          19.5331317337         531.5235448031       g        Ag (1)
   85   104          19.5331317337         531.5235448031       g       B2g (7)
   86    68          19.5445566060         531.8344313906       g       B1g (4)
   87    94          19.5445566060         531.8344313906       g       B3g (6)
   88    22          19.5483588566         531.9378958912      Ag        Ag (1)
   89    23          23.8557974617         649.1492610522      Ag        Ag (1)
   90    56          44.6324385942        1214.5104173916       u       B3u (3)
   91    82          44.6324385942        1214.5104173916       u       B1u (5)
   92    40          44.6455118341        1214.8661583391      Au       B2u (2)
   93    83          75.8851207520        2064.9391469780       u       B1u (5)
   94    57          75.8851207520        2064.9391469780       u       B3u (3)
   95   109          75.8920874820        2065.1287213426       u        Au (8)
   96    41          75.8920874820        2065.1287213427       u       B2u (2)
   97    84          75.8962679661        2065.2424781003       u       B1u (5)
   98    58          75.8962679661        2065.2424781003       u       B3u (3)
   99    42          75.8976615352        2065.2803990419      Au       B2u (2)
  100    24          82.7950928084        2252.9690487863      Ag        Ag (1)
  101   105          86.0314940985        2341.0360064852       g       B2g (7)
  102    25          86.0314940985        2341.0360064852       g        Ag (1)
  103    95          86.0384692849        2341.2258109615       g       B3g (6)
  104    69          86.0384692849        2341.2258109615       g       B1g (4)
  105    26          86.0408045259        2341.2893560994      Ag        Ag (1)
  106    85         152.0057348467        4136.2863936905       u       B1u (5)
  107    59         152.0057348467        4136.2863936905       u       B3u (3)
  108    43         152.0122535812        4136.4637774781      Au       B2u (2)
  109    27         348.6707614090        9487.8139153652      Ag        Ag (1)


 
  ORBITAL EIGENVALUES ( BETA)  (1H = 27.2113838 eV)

       MO #        E(hartree)               E(eV)           FULLSYM    COMPSYM
       ----   --------------------   --------------------   -------   ---------
    1     1          -7.6883318364        -209.2101485321      Ag        Ag (1)
    2     2          -0.4488997642         -12.2151837790      Ag        Ag (1)
  +++++++++++++++++++++++++++++++++++++++++++++++++++++++++++++++++++++++++++++
    3    44           0.0286607967           0.7798999383       u       B3u (3)
    4    70           0.0286607967           0.7798999383       u       B1u (5)
    5    28           0.0391089547           1.0642087783      Au       B2u (2)
    6     3           0.0586721716           1.5965509819      Ag        Ag (1)
    7    45           0.0859828430           2.3397121423       u       B3u (3)
    8    71           0.0859828430           2.3397121423       u       B1u (5)
    9    29           0.1127907409           3.0691921421      Au       B2u (2)
   10    96           0.1459554288           3.9716491949       g       B2g (7)
   11     4           0.1459554288           3.9716491949       g        Ag (1)
   12    60           0.1518285684           4.1314654492       g       B1g (4)
   13    86           0.1518285684           4.1314654492       g       B3g (6)
   14     5           0.1538663229           4.1869155700      Ag        Ag (1)
   15    46           0.3191871167           8.6855231436       u       B3u (3)
   16    72           0.3191871167           8.6855231436       u       B1u (5)
   17     6           0.3466705956           9.4333866363      Ag        Ag (1)
   18    30           0.3478867764           9.4664805988      Au       B2u (2)
   19    73           0.4621310618          12.5752256962       u       B1u (5)
   20    47           0.4621310618          12.5752256962       u       B3u (3)
   21   106           0.4712860151          12.8243446445       u        Au (8)
   22    31           0.4712860151          12.8243446445       u       B2u (2)
   23    48           0.4769847707          12.9794156721       u       B3u (3)
   24    74           0.4769847707          12.9794156721       u       B1u (5)
   25    32           0.4789337157          13.0324491612      Au       B2u (2)
   26    97           0.5030512773          13.6887213864       g       B2g (7)
   27     7           0.5030512773          13.6887213864       g        Ag (1)
   28    61           0.5231771336          14.2363737876       g       B1g (4)
   29    87           0.5231771336          14.2363737876       g       B3g (6)
   30     8           0.5298836164          14.4188664654      Ag        Ag (1)
   31    49           1.0481326928          28.5211409968       u       B3u (3)
   32    75           1.0481326928          28.5211409968       u       B1u (5)
   33    33           1.0877623971          29.5995200911      Au       B2u (2)
   34     9           1.3662878573          37.1785832920      Ag        Ag (1)
   35    10           1.3702279165          37.2857977559       g        Ag (1)
   36    98           1.3702279165          37.2857977559       g       B2g (7)
   37    88           1.3845282318          37.6749291254       g       B3g (6)
   38    62           1.3845282318          37.6749291254       g       B1g (4)
   39    11           1.3946718488          37.9509509795       g        Ag (1)
   40    99           1.3946718488          37.9509509795       g       B2g (7)
   41    63           1.4009818731          38.1226554721       g       B1g (4)
   42    89           1.4009818731          38.1226554721       g       B3g (6)
   43    12           1.4030839224          38.1798551442      Ag        Ag (1)
   44    13           1.4140029942          38.4769781984       g        Ag (1)
   45   100           1.4140029942          38.4769781984       g       B2g (7)
   46    76           1.4406943725          39.2032875370       u       B1u (5)
   47    50           1.4406943725          39.2032875370       u       B3u (3)
   48    64           1.4478339597          39.3975655856       g       B1g (4)
   49    90           1.4478339597          39.3975655856       g       B3g (6)
   50    14           1.4593749594          39.7116121582      Ag        Ag (1)
   51    34           1.4632379009          39.8167281395       u       B2u (2)
   52   107           1.4632379009          39.8167281395       u        Au (8)
   53    77           1.4772240910          40.1973117287       u       B1u (5)
   54    51           1.4772240910          40.1973117287       u       B3u (3)
   55    35           1.4819933562          40.3270900345      Au       B2u (2)
   56    52           3.3655843709          91.5822080949       u       B3u (3)
   57    78           3.3655843709          91.5822080950       u       B1u (5)
   58    36           3.4094645340          92.7762480529      Au       B2u (2)
   59    15           3.9207097279         106.6879372516       g        Ag (1)
   60   101           3.9207097279         106.6879372516       g       B2g (7)
   61    65           3.9449572928         107.3477470457       g       B1g (4)
   62    91           3.9449572928         107.3477470457       g       B3g (6)
   63    16           3.9590295235         107.7306719170       g        Ag (1)
   64   102           3.9590295235         107.7306719170       g       B2g (7)
   65   103           3.9630730010         107.8407005341       g       B2g (7)
   66    17           3.9630730010         107.8407005341       g        Ag (1)
   67    92           3.9728371437         108.1063963687       g       B3g (6)
   68    66           3.9728371437         108.1063963687       g       B1g (4)
   69    18           3.9763961345         108.2032414335      Ag        Ag (1)
   70    67           3.9967388507         108.7567948929       g       B1g (4)
   71    93           3.9967388507         108.7567948929       g       B3g (6)
   72    19           4.0093778768         109.1007202837      Ag        Ag (1)
   73    53           4.0887548599         111.2606778365       u       B3u (3)
   74    79           4.0887548599         111.2606778365       u       B1u (5)
   75   108           4.1197013281         112.1027740611       u        Au (8)
   76    37           4.1197013281         112.1027740611       u       B2u (2)
   77    80           4.1386331539         112.6179352398       u       B1u (5)
   78    54           4.1386331539         112.6179352398       u       B3u (3)
   79    38           4.1450217997         112.7917791333      Au       B2u (2)
   80    20           6.0193945060         163.7960542643      Ag        Ag (1)
   81    55          12.3806416597         336.8943921342       u       B3u (3)
   82    81          12.3806416597         336.8943921343       u       B1u (5)
   83    39          12.4130045463         337.7750310639      Au       B2u (2)
   84    21          19.5354098545         531.5855356234       g        Ag (1)
   85   104          19.5354098545         531.5855356234       g       B2g (7)
   86    68          19.5566929913         532.1646792285       g       B1g (4)
   87    94          19.5566929913         532.1646792285       g       B3g (6)
   88    22          19.5637760330         532.3574185943      Ag        Ag (1)
   89    23          23.8612802564         649.2984554848      Ag        Ag (1)
   90    56          44.6339339973        1214.5511093793       u       B3u (3)
   91    82          44.6339339973        1214.5511093793       u       B1u (5)
   92    40          44.6517271372        1215.0352853380      Au       B2u (2)
   93    83          75.8856042893        2064.9523046979       u       B1u (5)
   94    57          75.8856042893        2064.9523046979       u       B3u (3)
   95   109          75.8945252313        2065.1950558726       u        Au (8)
   96    41          75.8945252313        2065.1950558726       u       B2u (2)
   97    84          75.8998787367        2065.3407321633       u       B1u (5)
   98    58          75.8998787367        2065.3407321633       u       B3u (3)
   99    42          75.9016633956        2065.3892952027      Au       B2u (2)
  100    24          82.7966344450        2253.0109988531      Ag        Ag (1)
  101    25          86.0320166493        2341.0502258170       g        Ag (1)
  102   105          86.0320166493        2341.0502258170       g       B2g (7)
  103    69          86.0408272328        2341.2899739865       g       B1g (4)
  104    95          86.0408272328        2341.2899739865       g       B3g (6)
  105    26          86.0437794514        2341.3703079403      Ag        Ag (1)
  106    85         152.0061329632        4136.2972269925       u       B1u (5)
  107    59         152.0061329632        4136.2972269925       u       B3u (3)
  108    43         152.0137800550        4136.5053149426      Au       B2u (2)
  109    27         348.6711232522        9487.8237616205      Ag        Ag (1)


  VSCF finished.

  @CHECKOUT-I, Total execution time (CPU/WALL):        0.68/       2.14 seconds.
--executable xvscf finished with status     0 in        2.61 seconds (walltime).
 --invoking executable--
/home/nike/cfour_v2.00beta/bin/xvtran
 @GETMEM-I,  Allocated  122070 MB of main memory.
  Full UHF integral transformation
  Transformation of IIII integrals :
  2 passes through the AO integral file were required.
       57521 AO integrals were read.
      104254 MO integrals (Spin case AAAA) were written to HF2AA.
      104252 MO integrals (Spin case BBBB) were written to HF2BB.
      207546 MO integrals (Spin case AABB) were written to HF2AB.
  Transformation of IIJJ integrals :
  2 passes through the AO integral file were required.
      267011 AO integrals were read.
      357984 MO integrals (Spin case AAAA) were written to HF2AA.
      357982 MO integrals (Spin case BBBB) were written to HF2BB.
      715964 MO integrals (Spin case AABB) were written to HF2AB.
  Transformation of IJIJ integrals :
  2 passes through the AO integral file were required.
      457145 AO integrals were read.
      634681 MO integrals (Spin case AAAA) were written to HF2AA.
      634679 MO integrals (Spin case BBBB) were written to HF2BB.
     1264325 MO integrals (Spin case AABB) were written to HF2AB.
  Transformation of IJKL integrals :
  2 passes through the AO integral file were required.
      970097 AO integrals were read.
     1195750 MO integrals (Spin case AAAA) were written to HF2AA.
     1195745 MO integrals (Spin case BBBB) were written to HF2BB.
     2391497 MO integrals (Spin case AABB) were written to HF2AB.
  Summary of active molecular orbitals: 
------------------------------------------------------------------------
                         * Spin case alpha *
 
  Index      Eigenvalue    Symmetry    Index      Eigenvalue    Symmetry
------------------------------------------------------------------------
     1        -7.7027145        1        56        44.6324386        3
     2        -0.5407281        1        57        75.8851208        3
     3        -0.3099263        2        58        75.8962680        3
     4         0.0554800        1        59       152.0057348        3
     5         0.1453203        1        60         0.1472213        4
     6         0.1480088        1        61         0.4923074        4
     7         0.3329732        1        62         1.3785726        4
     8         0.4905509        1        63         1.3896915        4
     9         0.4986447        1        64         1.4021006        4
    10         1.3436861        1        65         3.9339470        4
    11         1.3688672        1        66         3.9519952        4
    12         1.3855415        1        67         3.9627194        4
    13         1.3910552        1        68        19.5445566        4
    14         1.4015300        1        69        86.0384693        4
    15         1.4064724        1        70         0.0216984        5
    16         3.9181530        1        71         0.0752886        5
    17         3.9452228        1        72         0.3100221        5
    18         3.9535408        1        73         0.4612287        5
    19         3.9542543        1        74         0.4701002        5
    20         3.9658649        1        75         1.0380937        5
    21         6.0040773        1        76         1.4373598        5
    22        19.5331317        1        77         1.4525464        5
    23        19.5483589        1        78         3.3571649        5
    24        23.8557975        1        79         4.0845165        5
    25        82.7950928        1        80         4.1084587        5
    26        86.0314941        1        81        12.3763484        5
    27        86.0408045        1        82        44.6324386        5
    28       348.6707614        1        83        75.8851208        5
    29         0.0511129        2        84        75.8962680        5
    30         0.2722520        2        85       152.0057348        5
    31         0.4666987        2        86         0.1472213        6
    32         0.4712254        2        87         0.4923074        6
    33         1.0139978        2        88         1.3785726        6
    34         1.4467860        2        89         1.3896915        6
    35         1.4544779        2        90         1.4021006        6
    36         3.3613638        2        91         3.9339470        6
    37         4.0994240        2        92         3.9519952        6
    38         4.1114870        2        93         3.9627194        6
    39        12.3924513        2        94        19.5445566        6
    40        44.6455118        2        95        86.0384693        6
    41        75.8920875        2        96         0.1453203        7
    42        75.8976615        2        97         0.4986447        7
    43       152.0122536        2        98         1.3688672        7
    44         0.0216984        3        99         1.3855415        7
    45         0.0752886        3       100         1.4064724        7
    46         0.3100221        3       101         3.9181530        7
    47         0.4612287        3       102         3.9452228        7
    48         0.4701002        3       103         3.9535408        7
    49         1.0380937        3       104        19.5331317        7
    50         1.4373598        3       105        86.0314941        7
    51         1.4525464        3       106         0.4666987        8
    52         3.3571649        3       107         1.4467860        8
    53         4.0845165        3       108         4.0994240        8
    54         4.1084587        3       109        75.8920875        8
    55        12.3763484        3
------------------------------------------------------------------------
------------------------------------------------------------------------
                         * Spin case beta *
 
  Index      Eigenvalue    Symmetry    Index      Eigenvalue    Symmetry
------------------------------------------------------------------------
     1        -7.6883318        1        56        44.6339340        3
     2        -0.4488998        1        57        75.8856043        3
     3         0.0586722        1        58        75.8998787        3
     4         0.1459554        1        59       152.0061330        3
     5         0.1538663        1        60         0.1518286        4
     6         0.3466706        1        61         0.5231771        4
     7         0.5030513        1        62         1.3845282        4
     8         0.5298836        1        63         1.4009819        4
     9         1.3662879        1        64         1.4478340        4
    10         1.3702279        1        65         3.9449573        4
    11         1.3946718        1        66         3.9728371        4
    12         1.4030839        1        67         3.9967389        4
    13         1.4140030        1        68        19.5566930        4
    14         1.4593750        1        69        86.0408272        4
    15         3.9207097        1        70         0.0286608        5
    16         3.9590295        1        71         0.0859828        5
    17         3.9630730        1        72         0.3191871        5
    18         3.9763961        1        73         0.4621311        5
    19         4.0093779        1        74         0.4769848        5
    20         6.0193945        1        75         1.0481327        5
    21        19.5354099        1        76         1.4406944        5
    22        19.5637760        1        77         1.4772241        5
    23        23.8612803        1        78         3.3655844        5
    24        82.7966344        1        79         4.0887549        5
    25        86.0320166        1        80         4.1386332        5
    26        86.0437795        1        81        12.3806417        5
    27       348.6711233        1        82        44.6339340        5
    28         0.0391090        2        83        75.8856043        5
    29         0.1127907        2        84        75.8998787        5
    30         0.3478868        2        85       152.0061330        5
    31         0.4712860        2        86         0.1518286        6
    32         0.4789337        2        87         0.5231771        6
    33         1.0877624        2        88         1.3845282        6
    34         1.4632379        2        89         1.4009819        6
    35         1.4819934        2        90         1.4478340        6
    36         3.4094645        2        91         3.9449573        6
    37         4.1197013        2        92         3.9728371        6
    38         4.1450218        2        93         3.9967389        6
    39        12.4130045        2        94        19.5566930        6
    40        44.6517271        2        95        86.0408272        6
    41        75.8945252        2        96         0.1459554        7
    42        75.9016634        2        97         0.5030513        7
    43       152.0137801        2        98         1.3702279        7
    44         0.0286608        3        99         1.3946718        7
    45         0.0859828        3       100         1.4140030        7
    46         0.3191871        3       101         3.9207097        7
    47         0.4621311        3       102         3.9590295        7
    48         0.4769848        3       103         3.9630730        7
    49         1.0481327        3       104        19.5354099        7
    50         1.4406944        3       105        86.0320166        7
    51         1.4772241        3       106         0.4712860        8
    52         3.3655844        3       107         1.4632379        8
    53         4.0887549        3       108         4.1197013        8
    54         4.1386332        3       109        75.8945252        8
    55        12.3806417        3
------------------------------------------------------------------------
  @CHECKOUT-I, Total execution time (CPU/WALL):        1.14/      31.76 seconds.
--executable xvtran finished with status     0 in       32.23 seconds (walltime).
 --invoking executable--
/home/nike/cfour_v2.00beta/bin/xintprc
 @GETMEM-I,  Allocated  122070 MB of main memory.
  Processing integrals for CCSD calculation.
  @GMOIAA-I, Processing MO integrals for spin case AA.
  @GMOIAA-I, Generation of integral list completed.
                      TYPE                NUMBER
                      ----               --------
                      PPPP               2045220
                      PPPH                234735
                      PPHH                  7294
                      PHPH                  5037
                      PHHH                   370
                      HHHH                    13

                     TOTAL               2292669
  @GMOIAA-I, Processing MO integrals for spin case BB.
  @GMOIAA-I, Generation of integral list completed.
                      TYPE                NUMBER
                      ----               --------
                      PPPP               2123057
                      PPPH                163197
                      PPHH                  3525
                      PHPH                  2723
                      PHHH                   150
                      HHHH                     6

                     TOTAL               2292658
  @GMOIAB-I, Processing MO integrals for spin case AB.
                      TYPE                NUMBER
                      ----               --------
                      PPPP               4161692
                      PPPH1H              239420
                      PPPH2H              160159
                      PPHH                  9762
                      PHPH1P                2676
                      PHPH2P                5152
                      PHHH1P                 195
                      PHHH2P                 264
                      HHHH                    12

                     TOTAL               4579332
            ----------------------------------------------
                     Projected spin multiplicities: 
            ----------------------------------------------
             <0|S^2|0>                  =    0.7500000000.
             <0|S^2 T2|0>               =    0.0000000000.
             Projected <0|S^2 exp(T)|0> =    0.7500000000.
             Approximate spin mult.     =    2.0000000000.
            ----------------------------------------------
   Largest T2 amplitudes for spin case AA:
   i   j   a   b             i   j   a   b             i   j   a   b
-----------------------------------------------------------------------------
[  3   2  30   7]-0.01376 [  3   2  61  45] 0.01139 [  3   2  87  71] 0.01139
[  3   2  87  70] 0.01085 [  3   2  61  44] 0.01085 [  3   2  33   7]-0.00945
[  3   2  33  10] 0.00844 [  3   2  30   4] 0.00818 [  3   2  30  10] 0.00805
[  3   2  61  46] 0.00744 [  3   2  87  72] 0.00744 [  3   2  64  45]-0.00732
[  3   2  90  71]-0.00732 [  3   2  90  70]-0.00657 [  3   2  64  44]-0.00657
-----------------------------------------------------------------------------
   Norm of T2AA vector (     2256 symmetry allowed elements):  0.0439938077.
-----------------------------------------------------------------------------
   Largest T2 amplitudes for spin case BB:
   i   j   a   b             i   j   a   b             i   j   a   b
-----------------------------------------------------------------------------
[  2   1  36  30]-0.00187 [  2   1  78  72]-0.00176 [  2   1  52  46]-0.00176
[  2   1  36  29]-0.00173 [  2   1  78  71]-0.00169 [  2   1  52  45]-0.00169
[  2   1  36  33]-0.00153 [  2   1  78  75]-0.00150 [  2   1  52  49]-0.00150
[  2   1  39  33] 0.00131 [  2   1  55  49] 0.00130 [  2   1  81  75] 0.00130
[  2   1  39  30] 0.00117 [  2   1  81  78] 0.00111 [  2   1  55  52] 0.00111
-----------------------------------------------------------------------------
   Norm of T2BB vector (      801 symmetry allowed elements):  0.0072338454.
-----------------------------------------------------------------------------
   Largest T2 amplitudes for spin case AB:
       _       _                 _       _                 _       _
   i   j   a   b             i   j   a   b             i   j   a   b
-----------------------------------------------------------------------------
[  2   2  71  71]-0.03667 [  2   2  45  45]-0.03667 [  2   2  70  71]-0.03482
[  2   2  44  45]-0.03482 [  3   2   8  29] 0.02814 [  2   2  45  44]-0.02557
[  2   2  71  70]-0.02557 [  2   2  72  71]-0.02528 [  2   2  46  45]-0.02528
[  2   2  45  46]-0.02480 [  2   2  71  72]-0.02480 [  2   2  44  44]-0.02465
[  2   2  70  70]-0.02465 [  3   2  87  71] 0.02333 [  3   2  61  45] 0.02333
-----------------------------------------------------------------------------
   Norm of T2AB vector (     9762 symmetry allowed elements):  0.1646793081.
-----------------------------------------------------------------------------
  @CHECKOUT-I, Total execution time (CPU/WALL):        0.92/      13.39 seconds.
--executable xintprc finished with status     0 in       37.04 seconds (walltime).
 --invoking executable--
/home/nike/cfour_v2.00beta/bin/xint
 @GETMEM-I,  Allocated  122070 MB of main memory.
  @CHECKOUT-I, Total execution time (CPU/WALL):       17.35/     103.31 seconds.
--executable xint finished with status     0 in      155.53 seconds (walltime).
 --invoking executable--
/home/nike/MRCC/dmrcc
 **********************************************************************
                          MRCC program system
 **********************************************************************
 
                              Written by
    Mihaly Kallay, Zoltan Rolik, Jozsef Csontos, Istvan Ladjanszki,
       Lorant Szegedy, Bence Ladoczki, Gyula Samu, Klara Petrov,
        Mate Farkas, Peter Nagy, David Mester, and Bence Hegely
 
        Department of Physical Chemistry and Materials Science
            Budapest University of Technology and Economics
                  Budapest P.O.Box 91, H-1521 Hungary
 
                              www.mrcc.hu

 ************************ 2018-04-11 17:58:34 *************************
 Executing minp...

 Reading input from MINP...
 
 Input file:
 
# B 4Z
basis=aug-cc-pCVQZ
iface=cfour
uncontract=off
calc=CC(4)
mem=128GB
core=corr
itol=18
scftol=13
cctol=7
ccmaxit=999
scfmaxit=9999
scfiguess=ao
scftype=ROHF
rohftype=semicanonical
rest=2
refdet=serialno
1,2
3

symm=2
mult=2
#occ=3,0,0,0,0,1,0,0/1,0,0,0,0,1,0,0
geom
B

#Li 1 R

#R=3.065

#unit=angstroms

tprint=0.01
verbosity=3
nstate=3

 
 
 Checking keyword combinations...
 
 Keywords:
 
 active=none
 agrid=ld0006-ld0590
 basis=aug-cc-pcvqz
 basopt=off
 bpcompo=0.985
 bpcompv=0.98
 bpdfo=0.985
 bpocc=0.985
 bppdo=0.985
 bppdv=0.98
 bpedo=0.985
 bpedv=0.98
 calc=cc(4)
 ccmaxit=999
 ccprog=mrcc
 cctol=7
 charge=0
 cialg=disk
 ciguess=off
 cmpgrp=auto
 core=corr
 corembed=off
 dboc=off
 dendec=cholesky
 dens=0
 dfalg=invsqrt
 dfbasis_cor=none
 dfbasis_scf=none
 dfintran=ovirt
 dft=off
 diag=david
 domrad=10.d0
 drpaalg=fit
 ecp=auto
 edisp=off
 embed=off
 epert=none
 eps=0.975
 excrad=0.d0
 excrad_fin=0.000000000D+00
 freq=off
 gauss=spher
 geom=zmat
 gopt=off
 ghost=none
 gtol=7
 grtol=10
 hamilton=dc
 iface=cfour
 intalg=auto
 itol=18
 lcorthr=loose
 lccrest=off
 lmp2dens=on
 lnoepso=3e-5
 lnoepsv=1e-6
 localcc=off
 locintrf=disk
 maxact=off
 maxex=0
 bfbasis=none
 mem=128gb
 molden=on
 mulmet=0
 mult=2
 nacto=0
 nactv=0
 naf_cor=off
 naf_scf=off
 nafalg=albe
 naftyp=
 nchol=auto
 ndeps=1e-3
 nstate=3
 nsing=0
 ntrip=0
 occ=
 optalg=
 optmaxit=50
 optetol=1e-6
 optgtol=1e-4
 optstol=1e-3
 orblocc=off
 orbloco=off
 orblocv=off
 osveps=1e-3
 ovirt=off
 ovosnorb=80.0
 ptfreq=0.0
 popul=off
 pressure=100000
 qmmm=off
 refdet=serialno
 rest=2
 rgrid=log3
 rohftype=semicanonical
 scspe=1.d0
 scsps=1.2d0
 scspt=0.33333333333333
 scfalg=auto
 scfdamp=off
 scfdiis=on
 scfdiis_end=9999
 scfdiis_start=1
 scfdiis_step=1
 scfdtol=17
 scfext=10
 scfiguess=ao
 scflshift=off
 scfmaxit=9999
 scftype=rohf
 scftol=13
 spairtol=1e-4
 symm=2
 talg=occ
 temp=298.15
 test=off
 tprint=0.01
 uncontract=off
 unit=angs
 verbosity=3
 wpairtol=0.100000000E-05

 ************************ 2018-04-11 17:58:34 *************************
 Executing goldstone...

 Generation of CC equations in terms of H and T...
 Generation of antisymmetrized Goldstone diagrams...
 Number of diagrams in T^1 equations:    15
 Number of diagrams in T^2 equations:    38
 Number of diagrams in T^3 equations:    53
 Number of diagrams in T^4 equations:    74
 Translation of diagrams to factorized equations...
 Optimizing intermediate calculation...
 Optimizing right-hand EOMCC calculation...
 Number of floating-point operations per iteration step:   8.2442E+11
 Probable CPU time per iteration step (hours):      8.24
 Required memory (Mbytes):   16781.3
 Number of intermediates:                                 246
 Number of intermediates to be stored:                     97
 Length of intermediate file (Mbytes):    3910.7

 ************************ 2018-04-11 17:58:44 *************************
 Executing xmrcc...

 **********************************************************************
 CC(                     4 ) calculation 
 
 
 Allocation of****** Mbytes of memory...
 Number of spinorbitals:                   218
 Number of alpha electrons:                        3
 Number of beta electrons:                         2
 z-component of spin:  0.5
 Spatial symmetry:                      2
 Convergence criterion:  1.0E-07
 Construction of occupation graphs...
 Number of                     0 -fold excitations:                      1
 Number of                     1 -fold excitations:                    115
 Number of                     2 -fold excitations:                  12819
 Number of                     3 -fold excitations:                 712591
 Number of                     4 -fold excitations:               17055376
 Total number of configurations:               17780902
 Calculation of coupling coefficients...
 Length of intermediate file (Mbytes):    2574.2
 
 ======================================================================
 
 ======================================================================
 
 ======================================================================
 
 Memory requirements /Mbyte/: 
               Minimal        Optimal
 Real*8:       9027.9257      9609.8338
 Integer:        53.9605
 Total:        9081.8862      9663.7943
 

 ************************ 2018-04-11 17:58:52 *************************
 Executing goldstone...

 Generation of CC equations in terms of H and T...
 Generation of antisymmetrized Goldstone diagrams...
 Number of diagrams in T^1 equations:     8
 Translation of diagrams to factorized equations...
 Optimizing intermediate calculation...
 Optimizing right-hand EOMCC calculation...
 Number of floating-point operations per iteration step:   1.0942E+04
 Probable CPU time per iteration step (hours):      0.00
 Required memory (Mbytes):   16781.3
 Number of intermediates:                                  19
 Number of intermediates to be stored:                      9
 Length of intermediate file (Mbytes):       0.6

 ************************ 2018-04-11 17:58:53 *************************
 Executing xmrcc...

 **********************************************************************
 CC(                     1 ) calculation 
 
 
 Allocation of****** Mbytes of memory...
 Number of spinorbitals:                   218
 Number of alpha electrons:                        3
 Number of beta electrons:                         2
 z-component of spin:  0.5
 Spatial symmetry:                      2
 Convergence criterion:  1.0E-07
 Construction of occupation graphs...
 Number of                     0 -fold excitations:                      1
 Number of                     1 -fold excitations:                    115
 Total number of configurations:                    116
 Calculation of coupling coefficients...
 Length of intermediate file (Mbytes):       0.6
 
 ======================================================================
 
 ======================================================================
 
 ======================================================================
 
 Memory requirements /Mbyte/: 
               Minimal        Optimal
 Real*8:         10.0616      1077.1365
 Integer:         3.8552
 Total:          13.9168      1080.9917
 

 ************************ 2018-04-11 17:58:53 *************************
 Executing mrcc...

 **********************************************************************
 LR-CCS calculation                                                     
 
 
 OpenMP parallel version is running.
 Number of CPUs:  24
 Allocation of 1077.1 Mbytes of memory...
 Number of spinorbitals: 218
 Number of alpha electrons:  3
 Number of beta  electrons:  2
 z-component of spin:  0.5
 Spatial symmetry: 2
 Convergence criterion:  1.0E-07
 Construction of occupation graphs...
 Number of 0-fold excitations: 1
 Number of 1-fold excitations: 115
 Total number of determinants: 116
 Calculation of coupling coefficients...
 Initial cluster amplitudes are generated.
 Length of intermediate file (Mbytes):       0.6
 Reading integral list from unit 55...
 Sorting integrals...
 Sorting integrals...
 Sorting integrals...
 Sorting integrals...
 Energy of reference determinant [au]:     -24.528985404444
 Calculation of diagonal elements of Hamiltonian...
 Calculation of MP denominators...
 
 Starting CC iteration...
 ======================================================================
 Norm of residual vector:     0.06307309
 CPU time [min]:     1.210                   Wall time [min]:     0.838
 
 Iteration  1  CC energy:   -24.53150431  Energy decrease:   0.00251890
 ======================================================================
 Norm of residual vector:     0.01896698
 CPU time [min]:     1.220                   Wall time [min]:     0.839
 
 Iteration  2  CC energy:   -24.53276396  Energy decrease:   0.00125965
 ======================================================================
 Norm of residual vector:     0.00172596
 CPU time [min]:     1.223                   Wall time [min]:     0.839
 
 Iteration  3  CC energy:   -24.53277263  Energy decrease:   0.00000867
 ======================================================================
 Norm of residual vector:     0.00031861
 CPU time [min]:     1.228                   Wall time [min]:     0.839
 
 Iteration  4  CC energy:   -24.53277616  Energy decrease:   0.00000353
 ======================================================================
 Norm of residual vector:     0.00006074
 CPU time [min]:     1.234                   Wall time [min]:     0.839
 
 Iteration  5  CC energy:   -24.53277579  Energy decrease:   0.00000037
 ======================================================================
 Norm of residual vector:     0.00000800
 CPU time [min]:     1.240                   Wall time [min]:     0.839
 
 Iteration  6  CC energy:   -24.53277600  Energy decrease:   0.00000021
 ======================================================================
 Norm of residual vector:     0.00000067
 CPU time [min]:     1.246                   Wall time [min]:     0.840
 
 Iteration  7  CC energy:   -24.53277597  Energy decrease:   0.00000003
 ======================================================================
 Norm of residual vector:     0.00000008
 CPU time [min]:     1.252                   Wall time [min]:     0.840
 
 Iteration  8  CC energy:   -24.53277597  Energy decrease:   1.8718E-09
 ======================================================================
 
 Iteration has converged in  8 steps.
 
 Final results:
 Total CCS energy [au]:              -24.532775974148
 Spin multiplicity:                     2
 
 
 
 Dominant cluster amplitudes
 Printing threshold:  1.00E-02
 
    1.000000  Reference determinant                                     
    0.012422  2b -> 7b                                                  
   -0.018637  2b -> 14b                                                 
   -0.013510  2b -> 18b                                                 
[...]
 
 Iteration  4  CI energy:   -24.42906748  Energy decrease:   0.00001059
 ======================================================================
 Norm of residual vector:     0.00012424      Convergence:   0.00012862
 CPU time [min]:  1329.442                   Wall time [min]:   511.349
 
 Iteration  5  CI energy:   -24.42907562  Energy decrease:   0.00000813
 ======================================================================
 Norm of residual vector:     0.00004634      Convergence:   0.00005103
 CPU time [min]:  1442.040                   Wall time [min]:   546.452
 
 Iteration  6  CI energy:   -24.42907959  Energy decrease:   0.00000397
 ======================================================================
 Norm of residual vector:     0.00001829      Convergence:   0.00002060
 CPU time [min]:  1557.608                   Wall time [min]:   587.045
 
 Iteration  7  CI energy:   -24.42908056  Energy decrease:   0.00000097
 ======================================================================
 Norm of residual vector:     0.00000599      Convergence:   0.00000719
 CPU time [min]:  1681.156                   Wall time [min]:   630.785
 
 Iteration  8  CI energy:   -24.42908066  Energy decrease:   0.00000009
 ======================================================================
 Norm of residual vector:     0.00000297      Convergence:   0.00000351
 CPU time [min]:  1791.937                   Wall time [min]:   670.847
 
 Iteration  9  CI energy:   -24.42908064  Energy decrease:   0.00000002
 ======================================================================
 Norm of residual vector:     0.00000172      Convergence:   0.00000202
 CPU time [min]:  1902.446                   Wall time [min]:   710.809
 
 Iteration 10  CI energy:   -24.42908064  Energy decrease:   0.00000001
 ======================================================================
 Norm of residual vector:     0.00000080      Convergence:   0.00000080
 CPU time [min]:  2018.890                   Wall time [min]:   755.337
 
 Iteration 11  CI energy:   -24.42908064  Energy decrease:   1.5684E-09
 ======================================================================
 Norm of residual vector:     0.00000032      Convergence:   0.00000033
 CPU time [min]:  2128.655                   Wall time [min]:   790.731
 
 Iteration 12  CI energy:   -24.42908063  Energy decrease:   0.00000001
 ======================================================================
 Norm of residual vector:     0.0000E+00      Convergence:   1.3635E-07
 CPU time [min]:  2235.702                   Wall time [min]:   822.272
 
 Iteration 13  CI energy:   -24.42908063  Energy decrease:   3.9532E-09
 ======================================================================
 
 Iteration has converged in 13 steps.
 
 Final results:
 Total LR-CCSDTQ energy [au]:        -24.429080625541
 Excitation energy [eV]:           6.0374
 Excitation energy [cm^-1]:    48695.11
 Absorption wavelength [nm]:     205.36
 Spin multiplicity:                     2
 
 
 
 Dominant CI coefficients
 Printing threshold:  1.00E-02
 
    0.050062  2b -> 7b                                                  
   -0.048505  2b -> 18b                                                 
    0.015257  2b -> 34b                                                 
   -0.024316  2a -> 14a                                                 
   -0.016323  2a -> 18a                                                 
    0.936028  3a -> 6a                                                  
    0.243294  3a -> 15a                                                 
    0.010030  3a -> 25a                                                 
    0.018664  3a -> 31a                                                 
   -0.044911  2a 2b -> 6a 3b                                            
   -0.011470  2a 2b -> 15a 3b                                           
    0.107232  2a 2b -> 6a 6b                                            
    0.026767  2a 2b -> 15a 6b                                           
    0.087335  2a 2b -> 6a 15b                                           
    0.020932  2a 2b -> 15a 15b                                          
    0.030144  2a 2b -> 6a 31b                                           
   -0.021437  3a 2b -> 7a 3b                                            
    0.010758  3a 2b -> 18a 3b                                           
    0.045666  3a 2b -> 7a 6b                                            
    0.017369  3a 2b -> 14a 6b                                           
   -0.024419  3a 2b -> 18a 6b                                           
    0.027244  3a 2b -> 7a 15b                                           
   -0.017105  3a 2b -> 18a 15b                                          
   -0.058754  3a 2b -> 6a 7b                                            
    0.088314  3a 2b -> 6a 18b                                           
   -0.023899  3a 2b -> 6a 30b                                           
   -0.035577  3a 2b -> 6a 34b                                           
    0.020961  3a 2b -> 6a 48b                                           
    0.012578  3a 2b -> 13a 8b                                           
    0.012578  3a 2b -> 12a 9b                                           
    0.050487  2a 3a -> 6a 7a                                            
    0.013430  2a 3a -> 4a 12a                                           
    0.014387  2a 3a -> 9a 12a                                           
    0.013430  2a 3a -> 5a 13a                                           
    0.014387  2a 3a -> 8a 13a                                           
    0.014778  2a 3a -> 6a 14a                                           
   -0.073547  2a 3a -> 6a 18a                                           
   -0.025939  2a 3a -> 6a 26a                                           
    0.030680  2a 3a -> 6a 34a                                           
    0.015400  2a 3a -> 6a 44a                                           
   -0.013333  2a 3a 2b -> 6a 18a 18b                                    
    0.010430  2a 3a 2b -> 6a 16a 16b                                    
    0.010430  2a 3a 2b -> 6a 17a 17b                                    
 
 Starting right-hand LR-CC iteration for root                      3 ...
 ======================================================================
 Norm of residual vector:     0.03413928      Convergence:   1.00000000
 CPU time [min]:  2345.101                   Wall time [min]:   853.975
 
 Iteration  1  CI energy:   -24.30540638  Energy decrease:   0.34554548
 ======================================================================
 Norm of residual vector:     0.00270078      Convergence:   0.00176114
 CPU time [min]:  2458.093                   Wall time [min]:   886.649
 
 Iteration  2  CI energy:   -24.30547887  Energy decrease:   0.00007249
 ======================================================================
 Norm of residual vector:     0.00181835      Convergence:   0.00153219
 CPU time [min]:  2568.544                   Wall time [min]:   918.984
 
 Iteration  3  CI energy:   -24.30547897  Energy decrease:   0.00000010
 ======================================================================
 Norm of residual vector:     0.00074853      Convergence:   0.00117909
 CPU time [min]:  2677.075                   Wall time [min]:   947.147
 
 Iteration  4  CI energy:   -24.30548525  Energy decrease:   0.00000628
 ======================================================================
 Norm of residual vector:     0.00068889      Convergence:   0.00059274
 CPU time [min]:  2794.244                   Wall time [min]:   976.891
 
 Iteration  5  CI energy:   -24.30548787  Energy decrease:   0.00000262
 ======================================================================
 Norm of residual vector:     0.00083241      Convergence:   0.00121035
 CPU time [min]:  2910.056                   Wall time [min]:  1008.071
 
 Iteration  6  CI energy:   -24.30549878  Energy decrease:   0.00001091
 ======================================================================
 Norm of residual vector:     0.00204742      Convergence:   0.00139773
 CPU time [min]:  3019.918                   Wall time [min]:  1036.662
 
 Iteration  7  CI energy:   -24.30551395  Energy decrease:   0.00001517
 ======================================================================
 Norm of residual vector:     0.00032249      Convergence:   0.00054102
 CPU time [min]:  3131.351                   Wall time [min]:  1065.138
 
 Iteration  8  CI energy:   -24.30549766  Energy decrease:   0.00001629
 ======================================================================
 Norm of residual vector:     0.00066714      Convergence:   0.00029938
 CPU time [min]:  3248.112                   Wall time [min]:  1093.544
 
 Iteration  9  CI energy:   -24.30549990  Energy decrease:   0.00000223
 ======================================================================
 Norm of residual vector:     0.00043567      Convergence:   0.00050369
 CPU time [min]:  3354.771                   Wall time [min]:  1117.240
 
 Iteration 10  CI energy:   -24.30549489  Energy decrease:   0.00000501
 ======================================================================
 Norm of residual vector:     0.00025564      Convergence:   0.00030176
 CPU time [min]:  3468.455                   Wall time [min]:  1141.118
 
 Iteration 11  CI energy:   -24.30549196  Energy decrease:   0.00000292
 ======================================================================
 Norm of residual vector:     0.00013675      Convergence:   0.00014007
 CPU time [min]:  3590.654                   Wall time [min]:  1168.646
 
 Iteration 12  CI energy:   -24.30549064  Energy decrease:   0.00000132
 ======================================================================
 Norm of residual vector:     0.00007901      Convergence:   0.00008649
 CPU time [min]:  3711.601                   Wall time [min]:  1201.087
 
 Iteration 13  CI energy:   -24.30549082  Energy decrease:   0.00000018
 ======================================================================
 Norm of residual vector:     0.00004997      Convergence:   0.00004974
 CPU time [min]:  3820.766                   Wall time [min]:  1230.347
 
 Iteration 14  CI energy:   -24.30549152  Energy decrease:   0.00000070
 ======================================================================
 Norm of residual vector:     0.00002445      Convergence:   0.00002541
 CPU time [min]:  3935.984                   Wall time [min]:  1260.403
 
 Iteration 15  CI energy:   -24.30549172  Energy decrease:   0.00000020
 ======================================================================
 Norm of residual vector:     0.00001541      Convergence:   0.00001452
 CPU time [min]:  4045.326                   Wall time [min]:  1286.409
 
 Iteration 16  CI energy:   -24.30549170  Energy decrease:   0.00000003
 ======================================================================
 Norm of residual vector:     0.00000657      Convergence:   0.00000704
 CPU time [min]:  4158.099                   Wall time [min]:  1316.741
 
 Iteration 17  CI energy:   -24.30549166  Energy decrease:   0.00000004
 ======================================================================
 Norm of residual vector:     0.00000335      Convergence:   0.00000337
 CPU time [min]:  4284.343                   Wall time [min]:  1345.421
 
 Iteration 18  CI energy:   -24.30549163  Energy decrease:   0.00000003
 ======================================================================
 Norm of residual vector:     0.00000149      Convergence:   0.00000153
 CPU time [min]:  4410.218                   Wall time [min]:  1374.610
 
 Iteration 19  CI energy:   -24.30549161  Energy decrease:   0.00000002
 ======================================================================
 Norm of residual vector:     0.00000074      Convergence:   0.00000081
 CPU time [min]:  4529.001                   Wall time [min]:  1399.175
 
 Iteration 20  CI energy:   -24.30549160  Energy decrease:   0.00000001
 ======================================================================
 Norm of residual vector:     0.00000037      Convergence:   0.00000040
 CPU time [min]:  4668.547                   Wall time [min]:  1432.086
 
 Iteration 21  CI energy:   -24.30549160  Energy decrease:   2.1662E-10
 ======================================================================
 Norm of residual vector:     0.0000E+00      Convergence:   2.1528E-07
 CPU time [min]:  4804.679                   Wall time [min]:  1465.645
 
 Iteration 22  CI energy:   -24.30549160  Energy decrease:   1.3511E-09
 ======================================================================
 
 Iteration has converged in 22 steps.
 
 Final results:
 Total LR-CCSDTQ energy [au]:        -24.305491596481
 Excitation energy [eV]:           9.4005
 Excitation energy [cm^-1]:    75819.77
 Absorption wavelength [nm]:     131.89
 Spin multiplicity:                     2
 
 Dominant CI coefficients
 Printing threshold:  1.00E-02
 
   -0.442299  2b -> 7b                                                  
    0.154654  2b -> 18b                                                 
   -0.024693  2b -> 34b                                                 
   -0.182028  2a -> 7a                                                  
    0.027079  2a -> 14a                                                 
    0.026982  2a -> 18a                                                 
   -0.010815  2a -> 26a                                                 
   -0.015345  2a -> 44a                                                 
    0.232592  3a -> 6a                                                  
   -0.738222  3a -> 15a                                                 
   -0.019436  3a -> 25a                                                 
   -0.090538  3a -> 31a                                                 
    0.039086  2a 2b -> 7a 7b                                            
   -0.039665  2a 2b -> 18a 7b                                           
    0.016679  2a 2b -> 34a 7b                                           
   -0.026186  2a 2b -> 7a 18b                                           
    0.010298  2a 2b -> 18a 18b                                          
    0.015560  2a 2b -> 7a 30b                                           
   -0.012834  2a 2b -> 7a 48b                                           
   -0.011825  2a 2b -> 6a 3b                                            
    0.035822  2a 2b -> 15a 3b                                           
    0.029431  2a 2b -> 6a 6b                                            
   -0.081602  2a 2b -> 15a 6b                                           
   -0.011631  2a 2b -> 31a 6b                                           
    0.024804  2a 2b -> 6a 15b                                           
   -0.063968  2a 2b -> 15a 15b                                          
   -0.021887  2a 2b -> 15a 31b                                          
   -0.013621  2a 2b -> 8a 8b                                            
   -0.015160  2a 2b -> 16a 8b                                           
   -0.020882  2a 2b -> 5a 16b                                           
   -0.025660  2a 2b -> 8a 16b                                           
   -0.019692  2a 2b -> 16a 16b                                          
   -0.010227  2a 2b -> 8a 32b                                           
   -0.013621  2a 2b -> 9a 9b                                            
   -0.015160  2a 2b -> 17a 9b                                           
   -0.020882  2a 2b -> 4a 17b                                           
   -0.025660  2a 2b -> 9a 17b                                           
   -0.019692  2a 2b -> 17a 17b                                          
   -0.010227  2a 2b -> 9a 33b                                           
    0.091723  3a 2b -> 7a 3b                                            
   -0.041847  3a 2b -> 18a 3b                                           
   -0.205454  3a 2b -> 7a 6b                                            
   -0.013847  3a 2b -> 14a 6b                                           
    0.094469  3a 2b -> 18a 6b                                           
   -0.012654  3a 2b -> 34a 6b                                           
   -0.140653  3a 2b -> 7a 15b                                           
   -0.012141  3a 2b -> 14a 15b                                          
    0.060166  3a 2b -> 18a 15b                                          
    0.011926  3a 2b -> 26a 15b                                          
   -0.041634  3a 2b -> 7a 31b                                           
    0.011946  3a 2b -> 18a 31b                                          
   -0.057964  3a 2b -> 6a 7b                                            
   -0.034016  3a 2b -> 15a 7b                                           
   -0.036845  3a 2b -> 31a 7b                                           
    0.040424  3a 2b -> 6a 18b                                           
   -0.039091  3a 2b -> 15a 18b                                          
    0.012503  3a 2b -> 31a 18b                                          
    0.022222  3a 2b -> 15a 30b                                          
   -0.012685  3a 2b -> 6a 34b                                           
    0.022547  3a 2b -> 15a 34b                                          
   -0.017419  3a 2b -> 15a 48b                                          
    0.014624  3a 2b -> 5a 13b                                           
    0.012764  3a 2b -> 8a 13b                                           
    0.014624  3a 2b -> 4a 12b                                           
    0.012764  3a 2b -> 9a 12b                                           
    0.032359  2a 3a -> 6a 7a                                            
   -0.017457  2a 3a -> 4a 12a                                           
   -0.019280  2a 3a -> 9a 12a                                           
   -0.017457  2a 3a -> 5a 13a                                           
   -0.019280  2a 3a -> 8a 13a                                           
    0.014793  2a 3a -> 14a 15a                                          
    0.013581  2a 3a -> 13a 16a                                          
    0.013581  2a 3a -> 12a 17a                                          
   -0.024802  2a 3a -> 6a 18a                                           
    0.041749  2a 3a -> 15a 18a                                          
    0.026150  2a 3a -> 15a 26a                                          
   -0.020399  2a 3a -> 7a 31a                                           
    0.011861  2a 3a -> 18a 31a                                          
   -0.020948  2a 3a -> 15a 34a                                          
   -0.012612  2a 3a -> 15a 44a                                          
   -0.011911  2a 3a 2b -> 5a 16a 6b                                     
   -0.011911  2a 3a 2b -> 4a 17a 6b                                     
    0.012252  2a 3a 2b -> 7a 18a 6b                                     
    0.010847  2a 3a 2b -> 7a 26a 6b                                     
 
 ************************ 2018-04-12 20:30:51 *************************
                      Normal termination of mrcc.
 **********************************************************************
--executable dmrcc finished with status     0 in    95537.65 seconds (walltime).
  The final electronic energy is       -24.305491596480572 a.u. 
  This computation required                        95776.09 seconds (walltime).
--- SharcNET Job Epilogue ---
Job completed successfully.
               jobid: 1543172
               resid: 3022019
         exit status: 0
      allocated time: 95777.6
           user time: 203479
         system time: 104886
peak rss=21820952576; peak vsz=21820952576 (bytes)
atime=95777.6; utime=203479; stime=104886; exit=0
