 --invoking executable--
/home/nike/cfour_v2.00beta/bin/xjoda


   *************************************************************************
         <<<     CCCCCC     CCCCCC   |||     CCCCCC     CCCCCC   >>>
       <<<      CCC        CCC       |||    CCC        CCC         >>>
      <<<      CCC        CCC        |||   CCC        CCC            >>>
    <<<        CCC        CCC        |||   CCC        CCC              >>>
      <<<      CCC        CCC        |||   CCC        CCC            >>>
       <<<      CCC        CCC       |||    CCC        CCC         >>>
         <<<     CCCCCC     CCCCCC   |||     CCCCCC     CCCCCC   >>>
   *************************************************************************

     ****************************************************************
     * CFOUR Coupled-Cluster techniques for Computational Chemistry *
     ****************************************************************
 

   Department of Chemistry                Institut fuer Physikalische Chemie
   University of Texas at Austin          Universitaet Mainz
   Austin, TX  78712, USA                 D-55099 Mainz, Germany
 
                       Version 2.00beta
 
                     wob143                                            
                     Tue Mar 27 14:08:29 EDT 2018                      
                     integer*8 version is running
 
********************************************************************************
*                          Input from ZMAT file                                *
********************************************************************************
TITLE                                                                           
B                                                                               
                                                                                
*ACES2(CALC=CCSD                                                                
INPUT_MRCC=OFF                                                                  
CC_PROG=MRCC                                                                    
XFORM_TOL=18                                                                    
SAVE_INTS=ON                                                                    
SCF_EXPORDER=6                                                                  
SCF_EXPSTART=5                                                                  
#SCF_DAMPING=1000                                                               
SCF_EXTRAPOLATION=ON                                                            
SCF_CONV=10                                                                     
SCF_MAXCYC=9999                                                                 
CC_CONV=10                                                                      
CC_MAXCYC=999                                                                   
T3_EXTRAPOL=ON                                                                  
REFERENCE=ROHF                                                                  
MULT=2                                                                          
ABCDTYPE=STANDARD                                                               
OCCUPATION=2-1-0-0-0-0-0-0/2-0-0-0-0-0-0-0                                      
MEM=128                                                                         
MEM_UNIT=GB                                                                     
BASIS=SPECIAL)                                                                  
                                                                                
B:aug-cc-pCV5Z                                                                  
                                                                                
********************************************************************************
  @GTFLGS-W, Keyword #SCF_DAMPING not known and is ignored.
    -------------------------------------------------------------------
                    CFOUR Control Parameters 
    -------------------------------------------------------------------
        External           Internal           Value            Units
          Name               Name
    -------------------------------------------------------------------
       ABCDTYPE             IABCDT         STANDARD     [  0]   ***   
       ANHARMONIC           IANHAR         OFF          [  0]   ***   
       ANH_ALGORIT          IANALG         STANDARD     [  0]   ***   
       ANH_DERIVAT          IANDER         SECOND       [  1]   ***   
       ANH_STEPSIZ          ICUBST             50000          x 10-6  
       ANH_SYMMETR          IANHSM         ABELIAN      [  0]   ***   
       AO_LADDERS           IAOLAD         SINGLEPASS   [  1]   ***   
       BASIS                IBASIS         SPECIAL      [  0]   ***   
       BREIT                IBREIT         OFF          [  0]   ***   
       BRUCK_CONV           IBRTOL          10D-  4             ***   
       BRUECKNER            IBRKNR             OFF      [  0]   ***   
       BUFFERSIZE           IBUFFS            600               ***   
       CACHE_RECS           ICHREC             10               ***   
       CALCLEVEL            ICLLVL           CCSD       [ 10]   ***   
       CCORBOPT             ICCORB             OFF      [  0] x 0.01  
       CC_CONV              ICCCNV          10D- 10             ***   
       CC_EXPORDER          ICCEOR              5               ***   
       CC_EXTRAPOL          ICCEXT             DIIS     [  1]   ***   
       CC_MAXCYC            ICCCYC            999              cycles 
       CC_PROGRAM           ICCPRO         MRCC         [  2]   ***   
       CHARGE               ICHRGE              0               ***   
       CHOLESKY             ICHOLE         OFF          [  0]   ***   
       CIS_CONV             ICISTL              5               ***   
       COMM_SIZE            IPSIZE            ***               ***   
       CONSTANT             ICONST         OLD          [  1]   ***   
       CONTINUUM            ICONTU         NONE         [  0]   ***   
       CONTRACTION          ICNTYP          GENERAL     [  1]   ***   
       COORDINATES          ICOORD         INTERNAL     [  0]   ***   
       CPHF_CONVER          ICPHFT          10D- 16             ***   
       CPHF_MAXCYC          ICPHFC             64              cycles 
       CUBIC                ICUBIC         OFF          [  0]   ***   
       CURVILINEAR          ICURVY            OFF       [  0]   ***   
       DBOC                 IDBOC          OFF          [  0]   ***   
       DCT                  IDCT           OFF          [  0]   ***   
       DERIV_LEV            IDRLVL            ZERO      [  0]   ***   
       DIAG_MRCC            IEOMST          10D-  0             ***   
       DIFF_TYPE            IDIFTY         RELAXED      [  0]   ***   
       DIRECT               IDIRCT         OFF          [  0]   ***   
       DROPMO               IDRPMO      NONE         
       ECP                  IECP           OFF          [  0]   ***   
       EIGENVECTOR          IVEC                1               ***   
       EL_ANHARM            IELANH         OFF          [  0]   ***   
       EOMFOLLOW            IEOMSR         ENERGY       [  0]   ***   
       EOM_MRCC             IMRCCE         NEW          [  1]   ***   
       EOM_NONIT            EOMNON         OFF          [  0]   ***   
       EOM_NSING            IEOMSI          10D-  0             ***   
       EOM_NSTATES          IMRCCD         DAVIDSON     [  0]   ***   
       EOM_NTRIP            IEOMTR          10D-  0             ***   
       EOM_ORDER            IEXORD         ENERGY       [  0]   ***   
       ESTATE_CONV          IEXTOL          10D-  5             ***   
       ESTATE_DIAG          IEXDIG         ITERATIVE    [  0]   ***   
       ESTATE_LOCK          IESLOC         ON           [  1]   ***   
       ESTATE_MAXC          IEXMXC             20               ***   
       ESTATE_PROP          IEXPRP         OFF          [  0]   ***   
       EVAL_HESS            IRECAL              0            # of cyc.
       EXCITATION           IEXCIT              0               ***   
       EXCITE               IEXCIT         NONE         [  0]   ***   
       FCGRADNEW            IFCGNW         OFF          [  0]   ***   
       FC_FIELD             IFINFC              0             x 10-6  
       FD_CALTYPE           IFDCAL         GRADONLY     [  0]   ***   
       FD_PROJECT           IFDPRJ         OFF          [  1]   ***   
       FD_STEPSIZE          IDISFD              0            10-4 bohr
       FD_USEGROUP          IFDGRP         FULL         [  0]   ***   
       FILE_RECSIZ          IFLREC              4096           words  
       FINITE_PERT          IFIPER              0             x 10-6  
       FIXGEOM              IFIXGM         OFF          [  0]   ***   
       FOCK                 IFOCK          AO           [  1]   ***   
       FREQ_ALGORI          IVIALG         STANDARD     [  0]   ***   
       FROZEN_CORE          IFROCO         OFF          [  0]   ***   
       FROZEN_VIRT          IFROVI         OFF          [  0]   ***   
       GAMMA_ABCD           IGABCD         STORE        [  0]   ***   
       GAMMA_ABCI           IGABCI         STORE        [  0]   ***   
       GENBAS_1             IGNBS1              0               ***   
       GENBAS_2             IGNBS2              0               ***   
       GENBAS_3             IGNBS3              0               ***   
       GENBAS_4             IGNBS4              0               ***   
       GEO_CONV             ICONTL              5              H/bohr 
       GEO_MAXCYC           IOPTCY             50               ***   
       GEO_MAXSTEP          IMXSTP            300            millibohr
       GEO_METHOD           INR            SINGLE_POINT [  5]   ***   
       GIAO                 IGIAO          OFF          [  1]   ***   
       GIMIC                IGIMIC         OFF          [  0]   ***   
       GRID                 IGRID          OFF          [  0]   ***   
       GRID_ALGO            IGALGO         SERIAL       [  0]   ***   
       GUESS                IGUESS            MOREAD    [  0]   ***   
       HBAR                 IHBAR              OFF      [  0]   ***   
       HESS_TYPE            IHESTP         SCF          [  0]   ***   
       HF2_FILE             IHF2Fl         USE          [  1]   ***   
       HFSTABILITY          ISTABL         OFF          [  0]   ***   
       INCORE               INCORE             OFF      [  0]   ***   
       INPUT_MRCC           IMRCC          OFF          [  0]   ***   
       INTEGRALS            INTTYP             VMOL     [  1]   ***   
       JODA_PRINT           IJPRNT              0               ***   
       LINDEP_TOL           ILINDP              8               ***   
       LINEQ_CONV           IZTACN          10D-  7           cycles  
       LINEQ_EXPOR          ILMAXD              5               ***   
       LINEQ_MAXCY          ILMAXC             50               ***   
       LINEQ_TYPE           ILTYPE         DIIS         [  1]   ***   
       LOCK_ORBOCC          ILOCOC             OFF      [  0]   ***   
       MEMORY_SIZE          IMEMSZ         *********           words  
       MEM_UNIT             IMEMU          GB           [  3]   ***   
       MRCC                 IMRCCC         OFF          [  0]   ***   
       MULTIPLICTY          IMULTP              2               ***   
       NEGEVAL              IDIE             ABORT      [  0]   ***   
       NEWNORM              INEWNO         OFF          [  0]   ***   
       NON-HF               INONHF              ON      [  1]   ***   
       NTOP_TAMP            ITOPT2             15               ***   
       NUC_MODEL            INUCMO         POINT        [  0]   ***   
       OCCUPATION           IOCCU  A   2,  1,  0,  0,  0,  0,  0,  0,
                                   B   2,  0,  0,  0,  0,  0,  0,  0,
       OPEN-SHELL           IOPEN          SPIN-ORBITAL [  0]   ***   
       ORBITALS             IORBTP         SEMICANONICAL[  1]   ***   
       PARALLEL             IPARAL         ON           [  1]   ***   
       PARA_INT             IPINTS         ON           [  1]   ***   
       PARA_PRINT           IPPRIN              0               ***   
       PERT_ORB             IPTORB         STANDARD     [  0]   ***   
       POINTS               IGRDFD              0               ***   
       PRINT                IPRNT               0               ***   
       PROPS                IPROPS             OFF      [  0]   ***   
       PROP_INTEGR          IINTYP         INTERNAL     [  0]   ***   
       PSI                  IPSI           OFF          [  0]   ***   
       QUARTIC              IQUART         OFF          [  0]   ***   
       RAMAN_INT            IRAMIN         OFF          [  0]   ***   
       RAMAN_ORB            IRAMRE         UNRELAXED    [  0]   ***   
       RDO                  IRDOFM             OFF      [  0]   ***   
       REFERENCE            IREFNC             ROHF     [  2]   ***   
       RELATIVIST           IRELAT         OFF          [  0]   ***   
       RELAX_DENS           IRDENS             OFF      [  0]   ***   
       RESET_FLAGS          IRESET             OFF      [  0]   ***   
       RESTART_CC           ICCRES         OFF          [  0]   ***   
       ROT_EVEC             ROTVEC              0               ***   
       SAVE_INTS            ISVINT              ON      [  1]   ***   
       SCALE_ON             ISTCRT              0               ***   
       SCF_CONV             ISCFCV          10D- 10             ***   
       SCF_DAMPING          IDAMP               0             x 10-3  
       SCF_EXPORDE          IRPPOR              6               ***   
       SCF_EXPSTAR          IRPPLS              5               ***   
       SCF_EXTRAPO          IRPP                ON      [  1]   ***   
       SCF_MAXCYC           ISCFCY            ***              cycles 
       SCF_NOSTOP           ISCFST         OFF          [  0]   ***   
       SCF_PRINT            ISCFPR              0               ***   
       SD_FIELD             IFINSD              0             x 10-6  
       SEQUENCE             ISEQUE         OFF          [  0]   ***   
       SOPERT               IPERSO         OFF          [  0]   ***   
       SPHERICAL            IDFGHI             ON       [  1]   ***   
       SPINORBIT            ISOCAL         OFF          [  0]   ***   
       SPINROTATIO          ISRCON         OFF          [  0]   ***   
       SPIN_FLIP            ISPFLP         OFF          [  0]   ***   
       SPIN_ORBIT           ISPORB         OFF          [  0]   ***   
       SPIN_SCAL            ISCSMP         OFF          [  0]   ***   
       SUBGROUP             ISUBGP         DEFAULT      [  0]   ***   
       SUBGRPAXIS           ISBXYZ         X            [  0]   ***   
       SYMMETRY             ISYM             ON         [  0]   ***   
       SYM_CHECK            ISYMCK         OVERRIDE     [  1]   ***   
       T3_EXTRAPOL          IT3EXT         ON           [  1]   ***   
       TAMP_SUM             IEVERY              5               ***   
       TESTSUITE            ITESTS         OFF          [  0]   ***   
       THERMOCH             ITHERM         OFF          [  0]   ***   
       TOL_CHOLESK          ITOLCH          10D-  4             ***   
       TRANGRAD             IRESRM         OFF          [  0]   ***   
       TRANS_INV            ITRAIN         USE          [  0]   ***   
       TREAT_PERT           ITREAT         SIMULTANEOUS [  0]   ***   
       UIJ_THRESHO          IUIJTH              1               ***   
       UNITS                IUNITS         ANGSTROM     [  0]   ***   
       UNOS                 IUNOS          OFF          [  0]   ***   
       UPDATE_HESS          IHUPDT         ON           [  1]   ***   
       VIBPHASE             ISETPH         STANDARD     [  0]   ***   
       VIBRATION            IVIB              NO        [  0]   ***   
       VIB_ALGORIT          IGEALG         STANDARD     [  0]   ***   
       VNATORB              IVNORB         OFF          [  0]   ***   
       VTRAN                IVTRAN         FULL/PARTIAL [  0]   ***   
       XFIELD               IXEFLD              0             x 10-6  
       XFORM_TOL            IXFTOL          10D- 18             ***   
       YFIELD               IYEFLD              0             x 10-6  
       ZFIELD               IZEFLD              0             x 10-6  
    -------------------------------------------------------------------
   1 entries found in Z-matrix 
   Job Title : TITLE                                                                           
  1  B          5    11.00931
 factor:   60.1997200000000     
   Rotational constants (in cm-1): 

   Rotational constants (in MHz): 

********************************************************************************
   The full molecular point group is I h .
   The largest Abelian subgroup of the full molecular point group is D2h .
   The computational point group is D2h .
********************************************************************************
  @GTFLGS-W, Keyword #SCF_DAMPING not known and is ignored.
  There are  181 basis functions.
 @GEOPT-W, Archive file not created for single-point calculation.
  @CHECKOUT-I, Total execution time (CPU/WALL):        0.10/       2.93 seconds.
--executable xjoda finished with status     0 in        3.29 seconds (walltime).
 --invoking executable--
/home/nike/cfour_v2.00beta/bin/xvmol
 Serial version of molecule started
********************************************************************************
                    Input from MOL file
********************************************************************************
INTGRL        1    0    1    0    0    0    0    0    0                         
         *** CFOUR Program System (Release V0.1) ***                            
TITLE                                                                           
    1    3 X  Y   Z   0.10E-08              0    0                              
   9999.00      3.00                                                            
          5.00000000    1    6    1    1    1    1    1    1                    
B #1   0.000000000000000   0.000000000000000   0.000000000000000                
   19   11                                                                      
   68260.0000000000       2.400000000000000E-005 -5.000000000000000E-006        
  0.000000000000000E+000  0.000000000000000E+000  0.000000000000000E+000        
  0.000000000000000E+000  0.000000000000000E+000  0.000000000000000E+000        
  0.000000000000000E+000  0.000000000000000E+000  0.000000000000000E+000        
   10230.0000000000       1.850000000000000E-004 -3.700000000000000E-005        
  0.000000000000000E+000  0.000000000000000E+000  0.000000000000000E+000        
  0.000000000000000E+000  0.000000000000000E+000  0.000000000000000E+000        
  0.000000000000000E+000  0.000000000000000E+000  0.000000000000000E+000        
   2328.00000000000       9.700000000000001E-004 -1.960000000000000E-004        
  0.000000000000000E+000  0.000000000000000E+000  0.000000000000000E+000        
  0.000000000000000E+000  0.000000000000000E+000  0.000000000000000E+000        
  0.000000000000000E+000  0.000000000000000E+000  0.000000000000000E+000        
   660.400000000000       4.056000000000000E-003 -8.240000000000000E-004        
  0.000000000000000E+000  0.000000000000000E+000  0.000000000000000E+000        
  0.000000000000000E+000  0.000000000000000E+000  0.000000000000000E+000        
  0.000000000000000E+000  0.000000000000000E+000  0.000000000000000E+000        
   216.200000000000       1.439900000000000E-002 -2.923000000000000E-003        
  0.000000000000000E+000  0.000000000000000E+000  0.000000000000000E+000        
  0.000000000000000E+000  0.000000000000000E+000  0.000000000000000E+000        
  0.000000000000000E+000  0.000000000000000E+000  0.000000000000000E+000        
   78.6000000000000       4.390100000000000E-002 -9.138000000000000E-003        
  0.000000000000000E+000  0.000000000000000E+000  0.000000000000000E+000        
  0.000000000000000E+000  0.000000000000000E+000  0.000000000000000E+000        
  0.000000000000000E+000  0.000000000000000E+000  0.000000000000000E+000        
   30.9800000000000       0.113057000000000      -2.410500000000000E-002        
  0.000000000000000E+000  0.000000000000000E+000  0.000000000000000E+000        
  0.000000000000000E+000  0.000000000000000E+000  0.000000000000000E+000        
  0.000000000000000E+000  0.000000000000000E+000  0.000000000000000E+000        
   12.9600000000000       0.233825000000000      -5.475500000000000E-002        
  0.000000000000000E+000  0.000000000000000E+000  0.000000000000000E+000        
  0.000000000000000E+000  0.000000000000000E+000  0.000000000000000E+000        
  0.000000000000000E+000  0.000000000000000E+000  0.000000000000000E+000        
   5.65900000000000       0.353960000000000      -9.694300000000000E-002        
  0.000000000000000E+000  0.000000000000000E+000  0.000000000000000E+000        
  0.000000000000000E+000  0.000000000000000E+000  0.000000000000000E+000        
  0.000000000000000E+000  0.000000000000000E+000  0.000000000000000E+000        
   2.55600000000000       0.301547000000000      -0.137485000000000             
  0.000000000000000E+000  0.000000000000000E+000  0.000000000000000E+000        
  0.000000000000000E+000  0.000000000000000E+000  0.000000000000000E+000        
  0.000000000000000E+000  0.000000000000000E+000  0.000000000000000E+000        
   1.17500000000000       8.752100000000000E-002 -4.456500000000000E-002        
   1.00000000000000       0.000000000000000E+000  0.000000000000000E+000        
  0.000000000000000E+000  0.000000000000000E+000  0.000000000000000E+000        
  0.000000000000000E+000  0.000000000000000E+000  0.000000000000000E+000        
  0.424900000000000       2.819000000000000E-003  0.324345000000000             
  0.000000000000000E+000   1.00000000000000       0.000000000000000E+000        
  0.000000000000000E+000  0.000000000000000E+000  0.000000000000000E+000        
  0.000000000000000E+000  0.000000000000000E+000  0.000000000000000E+000        
  0.171200000000000       4.300000000000000E-005  0.570414000000000             
  0.000000000000000E+000  0.000000000000000E+000   1.00000000000000             
  0.000000000000000E+000  0.000000000000000E+000  0.000000000000000E+000        
  0.000000000000000E+000  0.000000000000000E+000  0.000000000000000E+000        
  6.913000000000000E-002  7.800000000000000E-005  0.243444000000000             
  0.000000000000000E+000  0.000000000000000E+000  0.000000000000000E+000        
   1.00000000000000       0.000000000000000E+000  0.000000000000000E+000        
  0.000000000000000E+000  0.000000000000000E+000  0.000000000000000E+000        
   6.41100000000000       0.000000000000000E+000  0.000000000000000E+000        
  0.000000000000000E+000  0.000000000000000E+000  0.000000000000000E+000        
  0.000000000000000E+000   1.00000000000000       0.000000000000000E+000        
  0.000000000000000E+000  0.000000000000000E+000  0.000000000000000E+000        
   14.5210000000000       0.000000000000000E+000  0.000000000000000E+000        
  0.000000000000000E+000  0.000000000000000E+000  0.000000000000000E+000        
  0.000000000000000E+000  0.000000000000000E+000   1.00000000000000             
  0.000000000000000E+000  0.000000000000000E+000  0.000000000000000E+000        
   32.8900000000000       0.000000000000000E+000  0.000000000000000E+000        
  0.000000000000000E+000  0.000000000000000E+000  0.000000000000000E+000        
  0.000000000000000E+000  0.000000000000000E+000  0.000000000000000E+000        
   1.00000000000000       0.000000000000000E+000  0.000000000000000E+000        
   74.4960000000000       0.000000000000000E+000  0.000000000000000E+000        
  0.000000000000000E+000  0.000000000000000E+000  0.000000000000000E+000        
  0.000000000000000E+000  0.000000000000000E+000  0.000000000000000E+000        
  0.000000000000000E+000   1.00000000000000       0.000000000000000E+000        
  2.610000000000000E-002  0.000000000000000E+000  0.000000000000000E+000        
  0.000000000000000E+000  0.000000000000000E+000  0.000000000000000E+000        
  0.000000000000000E+000  0.000000000000000E+000  0.000000000000000E+000        
  0.000000000000000E+000  0.000000000000000E+000   1.00000000000000             
   13   10                                                                      
   66.4400000000000       8.380000000000000E-004  0.000000000000000E+000        
  0.000000000000000E+000  0.000000000000000E+000  0.000000000000000E+000        
  0.000000000000000E+000  0.000000000000000E+000  0.000000000000000E+000        
  0.000000000000000E+000  0.000000000000000E+000                                
   15.7100000000000       6.409000000000000E-003  0.000000000000000E+000        
  0.000000000000000E+000  0.000000000000000E+000  0.000000000000000E+000        
  0.000000000000000E+000  0.000000000000000E+000  0.000000000000000E+000        
  0.000000000000000E+000  0.000000000000000E+000                                
   4.93600000000000       2.808100000000000E-002  0.000000000000000E+000        
  0.000000000000000E+000  0.000000000000000E+000  0.000000000000000E+000        
  0.000000000000000E+000  0.000000000000000E+000  0.000000000000000E+000        
  0.000000000000000E+000  0.000000000000000E+000                                
   1.77000000000000       9.215200000000000E-002  0.000000000000000E+000        
  0.000000000000000E+000  0.000000000000000E+000  0.000000000000000E+000        
  0.000000000000000E+000  0.000000000000000E+000  0.000000000000000E+000        
  0.000000000000000E+000  0.000000000000000E+000                                
  0.700800000000000       0.224164000000000        1.00000000000000             
  0.000000000000000E+000  0.000000000000000E+000  0.000000000000000E+000        
  0.000000000000000E+000  0.000000000000000E+000  0.000000000000000E+000        
  0.000000000000000E+000  0.000000000000000E+000                                
  0.290100000000000       0.369915000000000       0.000000000000000E+000        
   1.00000000000000       0.000000000000000E+000  0.000000000000000E+000        
  0.000000000000000E+000  0.000000000000000E+000  0.000000000000000E+000        
  0.000000000000000E+000  0.000000000000000E+000                                
  0.121100000000000       0.374441000000000       0.000000000000000E+000        
  0.000000000000000E+000   1.00000000000000       0.000000000000000E+000        
  0.000000000000000E+000  0.000000000000000E+000  0.000000000000000E+000        
  0.000000000000000E+000  0.000000000000000E+000                                
  4.973000000000000E-002  0.139086000000000       0.000000000000000E+000        
  0.000000000000000E+000  0.000000000000000E+000   1.00000000000000             
  0.000000000000000E+000  0.000000000000000E+000  0.000000000000000E+000        
  0.000000000000000E+000  0.000000000000000E+000                                
   5.17200000000000       0.000000000000000E+000  0.000000000000000E+000        
  0.000000000000000E+000  0.000000000000000E+000  0.000000000000000E+000        
   1.00000000000000       0.000000000000000E+000  0.000000000000000E+000        
  0.000000000000000E+000  0.000000000000000E+000                                
   13.2250000000000       0.000000000000000E+000  0.000000000000000E+000        
  0.000000000000000E+000  0.000000000000000E+000  0.000000000000000E+000        
  0.000000000000000E+000   1.00000000000000       0.000000000000000E+000        
  0.000000000000000E+000  0.000000000000000E+000                                
   33.8160000000000       0.000000000000000E+000  0.000000000000000E+000        
  0.000000000000000E+000  0.000000000000000E+000  0.000000000000000E+000        
  0.000000000000000E+000  0.000000000000000E+000   1.00000000000000             
  0.000000000000000E+000  0.000000000000000E+000                                
   86.4670000000000       0.000000000000000E+000  0.000000000000000E+000        
  0.000000000000000E+000  0.000000000000000E+000  0.000000000000000E+000        
  0.000000000000000E+000  0.000000000000000E+000  0.000000000000000E+000        
   1.00000000000000       0.000000000000000E+000                                
  1.570000000000000E-002  0.000000000000000E+000  0.000000000000000E+000        
  0.000000000000000E+000  0.000000000000000E+000  0.000000000000000E+000        
  0.000000000000000E+000  0.000000000000000E+000  0.000000000000000E+000        
  0.000000000000000E+000   1.00000000000000                                     
    8    8                                                                      
   2.01000000000000        1.00000000000000       0.000000000000000E+000        
  0.000000000000000E+000  0.000000000000000E+000  0.000000000000000E+000        
  0.000000000000000E+000  0.000000000000000E+000  0.000000000000000E+000        
  0.796000000000000       0.000000000000000E+000   1.00000000000000             
  0.000000000000000E+000  0.000000000000000E+000  0.000000000000000E+000        
  0.000000000000000E+000  0.000000000000000E+000  0.000000000000000E+000        
  0.316000000000000       0.000000000000000E+000  0.000000000000000E+000        
   1.00000000000000       0.000000000000000E+000  0.000000000000000E+000        
  0.000000000000000E+000  0.000000000000000E+000  0.000000000000000E+000        
  0.125000000000000       0.000000000000000E+000  0.000000000000000E+000        
  0.000000000000000E+000   1.00000000000000       0.000000000000000E+000        
  0.000000000000000E+000  0.000000000000000E+000  0.000000000000000E+000        
   7.06600000000000       0.000000000000000E+000  0.000000000000000E+000        
  0.000000000000000E+000  0.000000000000000E+000   1.00000000000000             
  0.000000000000000E+000  0.000000000000000E+000  0.000000000000000E+000        
   19.7210000000000       0.000000000000000E+000  0.000000000000000E+000        
  0.000000000000000E+000  0.000000000000000E+000  0.000000000000000E+000        
   1.00000000000000       0.000000000000000E+000  0.000000000000000E+000        
   55.0420000000000       0.000000000000000E+000  0.000000000000000E+000        
  0.000000000000000E+000  0.000000000000000E+000  0.000000000000000E+000        
  0.000000000000000E+000   1.00000000000000       0.000000000000000E+000        
  4.310000000000000E-002  0.000000000000000E+000  0.000000000000000E+000        
  0.000000000000000E+000  0.000000000000000E+000  0.000000000000000E+000        
  0.000000000000000E+000  0.000000000000000E+000   1.00000000000000             
    6    6                                                                      
   1.21500000000000        1.00000000000000       0.000000000000000E+000        
  0.000000000000000E+000  0.000000000000000E+000  0.000000000000000E+000        
  0.000000000000000E+000                                                        
  0.525000000000000       0.000000000000000E+000   1.00000000000000             
  0.000000000000000E+000  0.000000000000000E+000  0.000000000000000E+000        
  0.000000000000000E+000                                                        
  0.227000000000000       0.000000000000000E+000  0.000000000000000E+000        
   1.00000000000000       0.000000000000000E+000  0.000000000000000E+000        
  0.000000000000000E+000                                                        
   9.99400000000000       0.000000000000000E+000  0.000000000000000E+000        
  0.000000000000000E+000   1.00000000000000       0.000000000000000E+000        
  0.000000000000000E+000                                                        
   33.0900000000000       0.000000000000000E+000  0.000000000000000E+000        
  0.000000000000000E+000  0.000000000000000E+000   1.00000000000000             
  0.000000000000000E+000                                                        
  8.430000000000000E-002  0.000000000000000E+000  0.000000000000000E+000        
  0.000000000000000E+000  0.000000000000000E+000  0.000000000000000E+000        
   1.00000000000000                                                             
    4    4                                                                      
   1.12400000000000        1.00000000000000       0.000000000000000E+000        
  0.000000000000000E+000  0.000000000000000E+000                                
  0.461000000000000       0.000000000000000E+000   1.00000000000000             
  0.000000000000000E+000  0.000000000000000E+000                                
   24.0200000000000       0.000000000000000E+000  0.000000000000000E+000        
   1.00000000000000       0.000000000000000E+000                                
  0.202000000000000       0.000000000000000E+000  0.000000000000000E+000        
  0.000000000000000E+000   1.00000000000000                                     
    2    2                                                                      
  0.834000000000000        1.00000000000000       0.000000000000000E+000        
  0.384000000000000       0.000000000000000E+000   1.00000000000000             
FINISH                                                                          
 
********************************************************************************
 One- and two-electron integrals over symmetry-adapted AOs are calculated.

  Spherical harmonics are used.
  
  Integrals less than  0.10E-13 are neglected.

  Nuclear repulsion energy :    0.0000000000 a.u.
  required memory for a1 array               20241832  words 
  required memory for a2 array               27939203  words 
 @GETMEM-I,  Allocated     382 MB of main memory.
  @MOLECU-I, One electron integrals (CPU/WALL):        0.09/       0.20 seconds.
  @TWOEL-I,     346664 integrals of symmetry type  I I I I
  @TWOEL-I,    3136110 integrals of symmetry type  I J I J
  @TWOEL-I,    1791201 integrals of symmetry type  I I J J
  @TWOEL-I,    7350466 integrals of symmetry type  I J K L
  @TWOEL-I, Total number of 2-e integrals   12624441.
  @MOLECU-I, Two electron integrals (CPU/WALL):       24.24/      33.00 seconds.
  @CHECKOUT-I, Total execution time (CPU/WALL):       24.38/      33.77 seconds.
--executable xvmol finished with status     0 in       34.13 seconds (walltime).
 --invoking executable--
/home/nike/cfour_v2.00beta/bin/xvmol2ja
 @GETMEM-I,  Allocated  122070 MB of main memory.
  @CHECKOUT-I, Total execution time (CPU/WALL):        0.01/       0.53 seconds.
--executable xvmol2ja finished with status     0 in        0.68 seconds (walltime).
 --invoking executable--
/home/nike/cfour_v2.00beta/bin/xvscf
  There are  181 functions in the AO basis.

  There are 8 irreducible representations.

       Irrep        # of functions
         1                 39
         2                 28
         3                 28
         4                 16
         5                 28
         6                 16
         7                 16
         8                 10


  Parameters for SCF calculation: 
        SCF reference function: ROHF  
  Maximum number of iterations: 9999
     Full symmetry point group: I h 
     Computational point group: D2h 
        Initial density matrix: MOREAD                 
     SCF convergence tolerance: 10**(-10)
  DIIS convergence acceleration:  ON
          Latest start for DIIS:   5
                     DIIS order:   6

     Alpha population by irrep:   2    1    0    0    0    0    0    0
      Beta population by irrep:   2    0    0    0    0    0    0    0


  Memory information:    2018302 words required.
  Fock matrices are constructed from AO integral file.
 @GETMEM-I,  Allocated      15 MB of main memory.
  Initialization and symmetry analysis required      0.001 seconds.

 total no. of electrons in initial guess :  0.000000000000000E+000
 total no. of electrons in initial guess :  0.000000000000000E+000
  --------------------------------------------------------------------
  Iteration         Total Energy            Largest Density Difference
  --------------------------------------------------------------------
       0             0.000000000000000              0.0000000000D+00
   current occupation vector 
     2  1  0  0  0  0  0  0
     2  0  0  0  0  0  0  0
       1           -22.704805874676971              0.1970702840D+02
   current occupation vector 
     2  1  0  0  0  0  0  0
     2  0  0  0  0  0  0  0
       2           -24.256143630704400              0.1970583503D+02
   current occupation vector 
     2  1  0  0  0  0  0  0
     2  0  0  0  0  0  0  0
       3           -24.519633456079692              0.1428079462D+01
   current occupation vector 
     2  1  0  0  0  0  0  0
     2  0  0  0  0  0  0  0
       4           -24.528182360904193              0.1861579826D+00
   current occupation vector 
     2  1  0  0  0  0  0  0
     2  0  0  0  0  0  0  0
       5           -24.528779667432936              0.7072121637D-01
   current occupation vector 
     2  1  0  0  0  0  0  0
     2  0  0  0  0  0  0  0
       6           -24.529074562124880              0.6098936027D-01
   current occupation vector 
     2  1  0  0  0  0  0  0
     2  0  0  0  0  0  0  0
       7           -24.529113043270211              0.1555587929D-01
   current occupation vector 
     2  1  0  0  0  0  0  0
     2  0  0  0  0  0  0  0
       8           -24.529113744601869              0.2230227271D-02
   current occupation vector 
     2  1  0  0  0  0  0  0
     2  0  0  0  0  0  0  0
       9           -24.529113748333533              0.1302846618D-03
   current occupation vector 
     2  1  0  0  0  0  0  0
     2  0  0  0  0  0  0  0
      10           -24.529113748411781              0.1339920773D-04
   current occupation vector 
     2  1  0  0  0  0  0  0
     2  0  0  0  0  0  0  0
      11           -24.529113748415838              0.3685424421D-05
   current occupation vector 
     2  1  0  0  0  0  0  0
     2  0  0  0  0  0  0  0
      12           -24.529113748415877              0.4416053437D-06
   current occupation vector 
     2  1  0  0  0  0  0  0
     2  0  0  0  0  0  0  0
      13           -24.529113748415856              0.7556334149D-07
   current occupation vector 
     2  1  0  0  0  0  0  0
     2  0  0  0  0  0  0  0
      14           -24.529113748415980              0.4450622115D-07
   current occupation vector 
     2  1  0  0  0  0  0  0
     2  0  0  0  0  0  0  0
      15           -24.529113748415821              0.5255578237D-08
   current occupation vector 
     2  1  0  0  0  0  0  0
     2  0  0  0  0  0  0  0
      16           -24.529113748415899              0.1630583446D-09
   current occupation vector 
     2  1  0  0  0  0  0  0
     2  0  0  0  0  0  0  0
      17           -24.529113748415906              0.7326832474D-09
   current occupation vector 
     2  1  0  0  0  0  0  0
     2  0  0  0  0  0  0  0
      18           -24.529113748416009              0.1196652555D-08
   current occupation vector 
     2  1  0  0  0  0  0  0
     2  0  0  0  0  0  0  0
      19           -24.529113748415991              0.5194316160D-09
   current occupation vector 
     2  1  0  0  0  0  0  0
     2  0  0  0  0  0  0  0
      20           -24.529113748415824              0.3228204370D-09
   current occupation vector 
     2  1  0  0  0  0  0  0
     2  0  0  0  0  0  0  0
      21           -24.529113748415835              0.1040496578D-09
   current occupation vector 
     2  1  0  0  0  0  0  0
     2  0  0  0  0  0  0  0
      22           -24.529113748415924              0.5721386633D-09
   current occupation vector 
     2  1  0  0  0  0  0  0
     2  0  0  0  0  0  0  0
      23           -24.529113748415838              0.1286569169D-08
   current occupation vector 
     2  1  0  0  0  0  0  0
     2  0  0  0  0  0  0  0
      24           -24.529113748415856              0.5704177729D-09
   current occupation vector 
     2  1  0  0  0  0  0  0
     2  0  0  0  0  0  0  0
      25           -24.529113748415845              0.4982947388D-09
   current occupation vector 
     2  1  0  0  0  0  0  0
     2  0  0  0  0  0  0  0
      26           -24.529113748415863              0.2649218622D-09
   current occupation vector 
     2  1  0  0  0  0  0  0
     2  0  0  0  0  0  0  0
      27           -24.529113748415806              0.2731430637D-09
   current occupation vector 
     2  1  0  0  0  0  0  0
     2  0  0  0  0  0  0  0
      28           -24.529113748415764              0.2662937648D-08
   current occupation vector 
     2  1  0  0  0  0  0  0
     2  0  0  0  0  0  0  0
      29           -24.529113748415792              0.6581297729D-09
   current occupation vector 
     2  1  0  0  0  0  0  0
     2  0  0  0  0  0  0  0
      30           -24.529113748415810              0.2295508213D-09
   current occupation vector 
     2  1  0  0  0  0  0  0
     2  0  0  0  0  0  0  0
      31           -24.529113748415817              0.3511821944D-09
   current occupation vector 
     2  1  0  0  0  0  0  0
     2  0  0  0  0  0  0  0
      32           -24.529113748415739              0.4288634781D-08
   current occupation vector 
     2  1  0  0  0  0  0  0
     2  0  0  0  0  0  0  0
      33           -24.529113748415757              0.2127254151D-08
   current occupation vector 
     2  1  0  0  0  0  0  0
     2  0  0  0  0  0  0  0
      34           -24.529113748415789              0.3806264193D-09
   current occupation vector 
     2  1  0  0  0  0  0  0
     2  0  0  0  0  0  0  0

  SCF has converged.

 Density matrix saved to file den.dat
 total alpha spin electron number:   3.00000000000000     
 total  beta spin electron number:   2.00000000000000     
     E(ROHF)=       -24.529113748415838              0.6040656864D-10

  Eigenvector printing suppressed.


       The average multiplicity is    2.0000000
  The expectation value of S**2 is    0.7500000

 @PUTMOS-I, Writing converged MOs to NEWMOS. 
 @PUTMOS-I, Symmetry   1 Full Blocks  9 Partial Blocksize   3
 @PUTMOS-I, Symmetry   2 Full Blocks  7 Partial Blocksize   0
 @PUTMOS-I, Symmetry   3 Full Blocks  7 Partial Blocksize   0
 @PUTMOS-I, Symmetry   4 Full Blocks  4 Partial Blocksize   0
 @PUTMOS-I, Symmetry   5 Full Blocks  7 Partial Blocksize   0
 @PUTMOS-I, Symmetry   6 Full Blocks  4 Partial Blocksize   0
 @PUTMOS-I, Symmetry   7 Full Blocks  4 Partial Blocksize   0
 @PUTMOS-I, Symmetry   8 Full Blocks  2 Partial Blocksize   2
  @DMPJOB-I, Rotating orbitals to semicanonical basis.
             *** Eigenvalues correspond to new basis. ***

  @PRJDEN-I, Basis set contains h and/or higher angular momentum functions.
             Analysis of density matrix symmetry not available.
             Check irreps of the molecular orbitals in the full point group
             for presence of an asymmetric solution.

 
  ORBITAL EIGENVALUES (ALPHA)  (1H = 27.2113838 eV)

       MO #        E(hartree)               E(eV)           FULLSYM    COMPSYM
       ----   --------------------   --------------------   -------   ---------
    1     1          -7.7025919962        -209.5981872136      Ag        Ag (1)
    2     2          -0.5406791744         -14.7126285370      Ag        Ag (1)
    3    40          -0.3099915687          -8.4352995564      Au       B2u (2)
  +++++++++++++++++++++++++++++++++++++++++++++++++++++++++++++++++++++++++++++
    4    68           0.0200009074           0.5442523674       u       B3u (3)
    5   112           0.0200009074           0.5442523674       u       B1u (5)
    6    41           0.0403593958           1.0982350087      Au       B2u (2)
    7     3           0.0514779009           1.4007849206      Ag        Ag (1)
    8    69           0.0607628522           1.6534412919       u       B3u (3)
    9   113           0.0607628522           1.6534412919       u       B1u (5)
   10     4           0.1329640989           3.6181371286       g        Ag (1)
   11   156           0.1329640989           3.6181371286       g       B2g (7)
   12   140           0.1349600928           3.6724508861       g       B3g (6)
   13    96           0.1349600928           3.6724508861       g       B1g (4)
   14     5           0.1357685838           3.6944510447      Ag        Ag (1)
   15    42           0.1920618587           5.2262689542      Au       B2u (2)
   16    70           0.2229874269           6.0677964612       u       B3u (3)
   17   114           0.2229874269           6.0677964612       u       B1u (5)
   18     6           0.2982352712           8.1153944339      Ag        Ag (1)
   19    71           0.3431421018           9.3373714377       u       B3u (3)
   20   115           0.3431421018           9.3373714377       u       B1u (5)
   21   172           0.3474955861           9.4558357685       u        Au (8)
   22    43           0.3474955861           9.4558357685       u       B2u (2)
   23   116           0.3501923998           9.5292198016       u       B1u (5)
   24    72           0.3501923998           9.5292198016       u       B3u (3)
   25    44           0.3510913599           9.5536817497      Au       B2u (2)
   26     7           0.4332333865          11.7888799636      Ag        Ag (1)
   27    97           0.4344215238          11.8212108249       g       B1g (4)
   28   141           0.4344215238          11.8212108249       g       B3g (6)
   29     8           0.4390242132          11.9464563710       g        Ag (1)
   30   157           0.4390242132          11.9464563710       g       B2g (7)
   31    45           0.6352837959          17.2869512049      Au       B2u (2)
   32   117           0.6621887381          18.0190719121       u       B1u (5)
   33    73           0.6621887381          18.0190719121       u       B3u (3)
   34   158           0.9998773917          27.2080474788       g       B2g (7)
   35     9           0.9998773917          27.2080474788       g        Ag (1)
   36    98           1.0075230280          27.4160958212       g       B1g (4)
   37   142           1.0075230280          27.4160958212       g       B3g (6)
   38   159           1.0130275680          27.5658819714       g       B2g (7)
   39    10           1.0130275680          27.5658819714       g        Ag (1)
   40   143           1.0163385659          27.6559788071       g       B3g (6)
   41    99           1.0163385659          27.6559788071       g       B1g (4)
   42    11           1.0174423167          27.6860133937      Ag        Ag (1)
   43    74           1.0395100104          28.2865058777       u       B3u (3)
   44   118           1.0395100104          28.2865058777       u       B1u (5)
   45   173           1.0473968063          28.5011165085       u        Au (8)
   46    46           1.0473968063          28.5011165085       u       B2u (2)
   47    75           1.0521862289          28.6314433236       u       B3u (3)
   48   119           1.0521862289          28.6314433236       u       B1u (5)
   49    47           1.0537884859          28.6750429536      Au       B2u (2)
   50    12           1.1291535555          30.7258307911      Ag        Ag (1)
   51   100           1.1501928565          31.2983392855       g       B1g (4)
   52   144           1.1501928565          31.2983392855       g       B3g (6)
   53    13           1.1516291870          31.3374238257      Ag        Ag (1)
   54    14           1.1552291279          31.4353831997       g        Ag (1)
   55   160           1.1552291279          31.4353831997       g       B2g (7)
   56    48           1.7728282269          48.2411093280      Au       B2u (2)
   57   120           1.7774515212          48.3669155633       u       B1u (5)
   58    76           1.7774515212          48.3669155633       u       B3u (3)
   59   121           2.2830558208          62.1251082217       u       B1u (5)
   60    77           2.2830558208          62.1251082217       u       B3u (3)
   61    49           2.2936796786          62.4141980947               B2u (2)
   62   174           2.2936796786          62.4141980947                Au (8)
   63   122           2.3019866575          62.6402424848       u       B1u (5)
   64    78           2.3019866575          62.6402424848       u       B3u (3)
   65   175           2.3079443220          62.8023587809       u        Au (8)
   66    50           2.3079443220          62.8023587809       u       B2u (2)
   67   123           2.3115287108          62.8998949597       u       B1u (5)
   68    79           2.3115287108          62.8998949597       u       B3u (3)
   69    51           2.3127251530          62.9324518067      Au       B2u (2)
   70    80           2.5875972239          70.4121012308       u       B3u (3)
   71   124           2.5875972239          70.4121012308       u       B1u (5)
   72    52           2.6008227801          70.7719869154       u       B2u (2)
   73   176           2.6008227801          70.7719869154       u        Au (8)
   74    81           2.6088162579          70.9895005091       u       B3u (3)
   75   125           2.6088162579          70.9895005091       u       B1u (5)
   76    53           2.6114919043          71.0623085499      Au       B2u (2)
   77   161           2.6939011749          73.3047788410       g       B2g (7)
   78    15           2.6939011749          73.3047788410       g        Ag (1)
   79   145           2.7075536121          73.6762805504       g       B3g (6)
   80   101           2.7075536121          73.6762805504       g       B1g (4)
   81    16           2.7173129042          73.9418443941       g        Ag (1)
   82   162           2.7173129042          73.9418443941       g       B2g (7)
   83   146           2.7231657110          74.1011073672       g       B3g (6)
   84   102           2.7231657110          74.1011073672       g       B1g (4)
   85    17           2.7251156665          74.1541683547      Ag        Ag (1)
   86    18           2.9467730488          80.1857724595       g        Ag (1)
   87   163           2.9467730488          80.1857724595       g       B2g (7)
   88   103           2.9546308107          80.3995930346       g       B1g (4)
   89   147           2.9546308107          80.3995930346       g       B3g (6)
   90    19           2.9573178160          80.4727101669      Ag        Ag (1)
   91    20           3.8435690713         104.5888332357      Ag        Ag (1)
   92    82           4.7781703407         130.0206270974       u       B3u (3)
   93   126           4.7781703408         130.0206270975       u       B1u (5)
   94    54           4.7935713090         130.4397087550      Au       B2u (2)
   95    83           5.9013024036         160.5826047406       u       B3u (3)
   96   127           5.9013024036         160.5826047406       u       B1u (5)
   97   177           5.9174813986         161.0228575819                Au (8)
   98    55           5.9174813986         161.0228575819               B2u (2)
   99   128           5.9300958207         161.3661134632       u       B1u (5)
  100    84           5.9300958207         161.3661134632       u       B3u (3)
  101   178           5.9391237939         161.6117771086       u        Au (8)
  102    56           5.9391237939         161.6117771086       u       B2u (2)
  103    85           5.9445479582         161.7593761235       u       B3u (3)
  104   129           5.9445479582         161.7593761235       u       B1u (5)
  105    57           5.9463572725         161.8086100691      Au       B2u (2)
  106    86           6.2585472165         170.3037304618       u       B3u (3)
  107   130           6.2585472165         170.3037304618       u       B1u (5)
  108    58           6.2762198639         170.7846276525       u       B2u (2)
  109   179           6.2762198639         170.7846276525       u        Au (8)
  110    87           6.2868852519         171.0748476187       u       B3u (3)
  111   131           6.2868852519         171.0748476187       u       B1u (5)
  112    59           6.2904515064         171.1718903378      Au       B2u (2)
  113    21           6.7644030431         184.0687675172       g        Ag (1)
  114   164           6.7644030431         184.0687675172       g       B2g (7)
  115   104           6.7824321244         184.5593637684       g       B1g (4)
  116   148           6.7824321244         184.5593637684       g       B3g (6)
  117    22           6.7953429262         184.9106845494       g        Ag (1)
  118   165           6.7953429262         184.9106845494       g       B2g (7)
  119   149           6.8031021971         185.1218250488       g       B3g (6)
  120   105           6.8031021971         185.1218250488       g       B1g (4)
  121    23           6.8056907201         185.1922623431      Ag        Ag (1)
  122    24           7.7138600010         209.9048052164       g        Ag (1)
  123   166           7.7138600010         209.9048052164       g       B2g (7)
  124   106           7.7310044845         210.3713303396       g       B1g (4)
  125   150           7.7310044845         210.3713303396       g       B3g (6)
  126    25           7.7368041734         210.5291478991      Ag        Ag (1)
  127    26          11.9208714660         324.3834089243      Ag        Ag (1)
  128    88          13.7759210029         374.8618738787       u       B3u (3)
  129   132          13.7759210029         374.8618738789       u       B1u (5)
  130    60          13.7972081864         375.4411275989      Au       B2u (2)
  131   167          24.1731182961         657.7840000721       g       B2g (7)
  132    27          24.1731182961         657.7840000721       g        Ag (1)
  133   107          24.1884772365         658.2019380948       g       B1g (4)
  134   151          24.1884772365         658.2019380948       g       B3g (6)
  135    28          24.1936087570         658.3415738663      Ag        Ag (1)
  136    29          33.9096736219         922.7291441211      Ag        Ag (1)
  137    89          39.2170347492        1067.1497848261       u       B3u (3)
  138   133          39.2170347492        1067.1497848261       u       B1u (5)
  139    61          39.2278508098        1067.4441048026       u       B2u (2)
  140   180          39.2278508098        1067.4441048026       u        Au (8)
  141    90          39.2343122415        1067.6199293014       u       B3u (3)
  142   134          39.2343122415        1067.6199293014       u       B1u (5)
  143    62          39.2364624175        1067.6784385662      Au       B2u (2)
  144    91          39.8336263130        1083.9280945279       u       B3u (3)
  145   135          39.8336263130        1083.9280945280       u       B1u (5)
  146    63          39.8506595927        1084.3915936400      Au       B2u (2)
  147   168          75.3480558523        2050.3248678552       g       B2g (7)
  148    30          75.3480558523        2050.3248678552       g        Ag (1)
  149   108          75.3578085817        2050.5902531194       g       B1g (4)
  150   152          75.3578085817        2050.5902531194       g       B3g (6)
  151    31          75.3610580559        2050.6786758093      Ag        Ag (1)
  152    32          89.9258603519        2447.0071013426      Ag        Ag (1)
  153   136         112.3139389515        3056.2177010993       u       B1u (5)
  154    92         112.3139389515        3056.2177010993       u       B3u (3)
  155    64         112.3240473987        3056.4927659337      Au       B2u (2)
  156   169         123.4081154004        3358.1055946110       g       B2g (7)
  157    33         123.4081154004        3358.1055946110       g        Ag (1)
  158   153         123.4143153673        3358.2743042914       g       B3g (6)
  159   109         123.4143153673        3358.2743042914       g       B1g (4)
  160   170         123.4187442099        3358.3948192251       g       B2g (7)
  161    34         123.4187442099        3358.3948192251       g        Ag (1)
  162   110         123.4214016333        3358.4671313934       g       B1g (4)
  163   154         123.4214016333        3358.4671313934       g       B3g (6)
  164    35         123.4222874607        3358.4912359841      Ag        Ag (1)
  165    93         153.0142481035        4163.7294350075       u       B3u (3)
  166   137         153.0142481035        4163.7294350075       u       B1u (5)
  167   181         153.0196293822        4163.8758670479       u        Au (8)
  168    65         153.0196293822        4163.8758670479       u       B2u (2)
  169    94         153.0228584406        4163.9637341965       u       B3u (3)
  170   138         153.0228584406        4163.9637341965       u       B1u (5)
  171    66         153.0239348420        4163.9930245683      Au       B2u (2)
  172   171         231.1625933591        6290.2540526246       g       B2g (7)
  173    36         231.1625933591        6290.2540526246       g        Ag (1)
  174   111         231.1671429023        6290.3778519910       g       B1g (4)
  175   155         231.1671429023        6290.3778519910       g       B3g (6)
  176    37         231.1686563530        6290.4190350779      Ag        Ag (1)
  177    38         235.2558159532        6401.6363036908      Ag        Ag (1)
  178   139         318.2514446344        8660.0622110831       u       B1u (5)
  179    95         318.2514446344        8660.0622110832       u       B3u (3)
  180    67         318.2560907338        8660.1886378779      Au       B2u (2)
  181    39         815.2803199785       22184.9057074855      Ag        Ag (1)


 
  ORBITAL EIGENVALUES ( BETA)  (1H = 27.2113838 eV)

       MO #        E(hartree)               E(eV)           FULLSYM    COMPSYM
       ----   --------------------   --------------------   -------   ---------
    1     1          -7.6881967608        -209.2064729384      Ag        Ag (1)
    2     2          -0.4488361639         -12.2134531278      Ag        Ag (1)
  +++++++++++++++++++++++++++++++++++++++++++++++++++++++++++++++++++++++++++++
    3    68           0.0255286853           0.6946708548       u       B3u (3)
    4   112           0.0255286853           0.6946708548       u       B1u (5)
    5    40           0.0331949015           0.9032792047      Au       B2u (2)
    6     3           0.0543271709           1.4783174992      Ag        Ag (1)
    7    69           0.0710860683           1.9343502893       u       B3u (3)
    8   113           0.0710860683           1.9343502893       u       B1u (5)
    9    41           0.0955833702           2.6009557732      Au       B2u (2)
   10     4           0.1334536779           3.6314592528       g        Ag (1)
   11   156           0.1334536779           3.6314592528       g       B2g (7)
   12   140           0.1385309641           3.7696192363       g       B3g (6)
   13    96           0.1385309641           3.7696192363       g       B1g (4)
   14     5           0.1403108309           3.8180518744      Ag        Ag (1)
   15    70           0.2309534745           6.2845636384       u       B3u (3)
   16   114           0.2309534745           6.2845636384       u       B1u (5)
   17    42           0.2551083241           6.9418505227      Au       B2u (2)
   18     6           0.3103355693           8.4446602885      Ag        Ag (1)
   19   115           0.3436118465           9.3501538389       u       B1u (5)
   20    71           0.3436118465           9.3501538389       u       B3u (3)
   21   172           0.3498954967           9.5211406562       u        Au (8)
   22    43           0.3498954967           9.5211406562       u       B2u (2)
   23   116           0.3537811240           9.6268739533       u       B1u (5)
   24    72           0.3537811240           9.6268739533       u       B3u (3)
   25    44           0.3551057139           9.6629178785      Au       B2u (2)
   26   157           0.4426181338          12.0442519248       g       B2g (7)
   27     7           0.4426181338          12.0442519248       g        Ag (1)
   28   141           0.4598995930          12.5145043435       g       B3g (6)
   29    97           0.4598995930          12.5145043435       g       B1g (4)
   30     8           0.4657771837          12.6744417201      Ag        Ag (1)
   31   117           0.6707105665          18.2509626566       u       B1u (5)
   32    73           0.6707105665          18.2509626566       u       B3u (3)
   33    45           0.7027374219          19.1224577127      Au       B2u (2)
   34   158           1.0007215911          27.2310193113       g       B2g (7)
   35     9           1.0007215911          27.2310193113       g        Ag (1)
   36   142           1.0112185184          27.5166552302       g       B3g (6)
   37    98           1.0112185184          27.5166552302       g       B1g (4)
   38   159           1.0188583665          27.7245460679       g       B2g (7)
   39    10           1.0188583665          27.7245460679       g        Ag (1)
   40   143           1.0235048749          27.8509839923       g       B3g (6)
   41    99           1.0235048749          27.8509839923       g       B1g (4)
   42    11           1.0250646906          27.8934287347      Ag        Ag (1)
   43    74           1.0418224605          28.3494308434       u       B3u (3)
   44   118           1.0418224605          28.3494308434       u       B1u (5)
   45   173           1.0590252327          28.8175420829       u        Au (8)
   46    46           1.0590252327          28.8175420829       u       B2u (2)
   47   119           1.0695894225          29.1050083062       u       B1u (5)
   48    75           1.0695894225          29.1050083062       u       B3u (3)
   49    47           1.0731677019          29.2023782381      Au       B2u (2)
   50    12           1.1515193140          31.3344340284      Ag        Ag (1)
   51    13           1.1618069251          31.6143741626       g        Ag (1)
   52   160           1.1618069251          31.6143741626       g       B2g (7)
   53   100           1.1922080654          32.4416312609       g       B1g (4)
   54   144           1.1922080654          32.4416312609       g       B3g (6)
   55    14           1.2031056554          32.7381697657      Ag        Ag (1)
   56   120           1.7862900462          48.6074240613       u       B1u (5)
   57    76           1.7862900462          48.6074240613       u       B3u (3)
   58    48           1.8281478388          49.7464325202      Au       B2u (2)
   59   121           2.2840414510          62.1519285843       u       B1u (5)
   60    77           2.2840414510          62.1519285843       u       B3u (3)
   61    49           2.2976475349          62.5221689551               B2u (2)
   62   174           2.2976475349          62.5221689551                Au (8)
   63   122           2.3082981785          62.8119877056       u       B1u (5)
   64    78           2.3082981785          62.8119877056       u       B3u (3)
   65   175           2.3159456587          63.0200862232       u        Au (8)
   66    50           2.3159456587          63.0200862232       u       B2u (2)
   67    79           2.3205509447          63.1454024303       u       B3u (3)
   68   123           2.3205509447          63.1454024303       u       B1u (5)
   69    51           2.3220889211          63.1872528945      Au       B2u (2)
   70    80           2.5913781709          70.5149860301       u       B3u (3)
   71   124           2.5913781709          70.5149860301       u       B1u (5)
   72    52           2.6187928553          71.2609775287       u       B2u (2)
   73   176           2.6187928553          71.2609775287       u        Au (8)
   74    81           2.6355442153          71.7168052158       u       B3u (3)
   75   125           2.6355442153          71.7168052158       u       B1u (5)
   76    53           2.6411917048          71.8704812191      Au       B2u (2)
   77    15           2.6959692906          73.3610551320       g        Ag (1)
   78   161           2.6959692906          73.3610551320       g       B2g (7)
   79   145           2.7163757887          73.9163441846       g       B3g (6)
   80   101           2.7163757887          73.9163441846       g       B1g (4)
   81   162           2.7311286516          74.3177899984       g       B2g (7)
   82    16           2.7311286516          74.3177899984       g        Ag (1)
   83   146           2.7400658041          74.5609822872       g       B3g (6)
   84   102           2.7400658041          74.5609822872       g       B1g (4)
   85    17           2.7430601450          74.6424624451      Ag        Ag (1)
   86    18           2.9531071712          80.3581326958       g        Ag (1)
   87   163           2.9531071712          80.3581326958       g       B2g (7)
   88   103           2.9899731234          81.3613062721       g       B1g (4)
   89   147           2.9899731234          81.3613062721       g       B3g (6)
   90    19           3.0027493496          81.7089650670      Ag        Ag (1)
   91    20           3.8605851443         105.0518641296      Ag        Ag (1)
   92    82           4.7852501342         130.2132780731       u       B3u (3)
   93   126           4.7852501342         130.2132780732       u       B1u (5)
   94    54           4.8294450976         131.4158841856      Au       B2u (2)
   95   127           5.9029236874         160.6267221150       u       B1u (5)
   96    83           5.9029236874         160.6267221150       u       B3u (3)
   97   177           5.9239340333         161.1984427030                Au (8)
   98    55           5.9239340333         161.1984427030               B2u (2)
   99   128           5.9403164173         161.6442300422       u       B1u (5)
  100    84           5.9403164173         161.6442300422       u       B3u (3)
  101   178           5.9520461688         161.9634128101       u        Au (8)
  102    56           5.9520461688         161.9634128101       u       B2u (2)
  103   129           5.9590966706         162.1552667203       u       B1u (5)
  104    85           5.9590966706         162.1552667203       u       B3u (3)
  105    57           5.9614490752         162.2192789054      Au       B2u (2)
  106    86           6.2621291310         170.4011993107       u       B3u (3)
  107   130           6.2621291310         170.4011993107       u       B1u (5)
  108   179           6.2925751424         171.2296774144       u        Au (8)
  109    58           6.2925751424         171.2296774144       u       B2u (2)
  110    87           6.3110360941         171.7320254562       u       B3u (3)
  111   131           6.3110360941         171.7320254562       u       B1u (5)
  112    59           6.3172263847         171.9004718301      Au       B2u (2)
  113    21           6.7668609575         184.1356507670       g        Ag (1)
  114   164           6.7668609575         184.1356507670       g       B2g (7)
  115   104           6.7928117190         184.8418068996       g       B1g (4)
  116   148           6.7928117190         184.8418068996       g       B3g (6)
  117    22           6.8114631021         185.3493368446       g        Ag (1)
  118   165           6.8114631021         185.3493368446       g       B2g (7)
  119   149           6.8227025611         185.6551780779       g       B3g (6)
  120   105           6.8227025611         185.6551780779       g       B1g (4)
  121    23           6.8264574256         185.7573531350      Ag        Ag (1)
  122    24           7.7181988103         210.0228702223       g        Ag (1)
  123   166           7.7181988103         210.0228702223       g       B2g (7)
  124   106           7.7524148582         210.9539362362       g       B1g (4)
  125   150           7.7524148582         210.9539362362       g       B3g (6)
  126    25           7.7640832802         211.2714501448      Ag        Ag (1)
  127    26          11.9300627028         324.6335151980      Ag        Ag (1)
  128    88          13.7799147625         374.9705496029       u       B3u (3)
  129   132          13.7799147625         374.9705496029       u       B1u (5)
  130    60          13.8149040965         375.9226577995      Au       B2u (2)
  131   167          24.1750371012         657.8362134122       g       B2g (7)
  132    27          24.1750371012         657.8362134122       g        Ag (1)
  133   107          24.1972848588         658.4416056856       g       B1g (4)
  134   151          24.1972848588         658.4416056856       g       B3g (6)
  135    28          24.2047249528         658.6440609375      Ag        Ag (1)
  136    29          33.9135232953         922.8338990635      Ag        Ag (1)
  137   133          39.2180884775        1067.1784582315       u       B1u (5)
  138    89          39.2180884775        1067.1784582315       u       B3u (3)
  139    61          39.2328906894        1067.5812469008       u       B2u (2)
  140   180          39.2328906894        1067.5812469008       u        Au (8)
  141   134          39.2417238896        1067.8216105016       u       B1u (5)
  142    90          39.2417238896        1067.8216105016       u       B3u (3)
  143    62          39.2446626849        1067.9015791899      Au       B2u (2)
  144    91          39.8353369248        1083.9746426441       u       B3u (3)
  145   135          39.8353369248        1083.9746426441       u       B1u (5)
  146    63          39.8574461485        1084.5762652154      Au       B2u (2)
  147   168          75.3486973982        2050.3423252074       g       B2g (7)
  148    30          75.3486973982        2050.3423252074       g        Ag (1)
  149   108          75.3604689359        2050.6626450376       g       B1g (4)
  150   152          75.3604689359        2050.6626450377       g       B3g (6)
  151    31          75.3643911494        2050.7693738957      Ag        Ag (1)
  152    32          89.9272928561        2447.0460817642      Ag        Ag (1)
  153   136         112.3145242526        3056.2336279508       u       B1u (5)
  154    92         112.3145242526        3056.2336279509       u       B3u (3)
  155    64         112.3262356834        3056.5523121896      Au       B2u (2)
  156    33         123.4083731445        3358.1126081860       g        Ag (1)
  157   169         123.4083731445        3358.1126081860       g       B2g (7)
  158   109         123.4154498917        3358.3051762698       g       B1g (4)
  159   153         123.4154498917        3358.3051762698       g       B3g (6)
  160    34         123.4205051310        3358.4427363265       g        Ag (1)
  161   170         123.4205051310        3358.4427363265       g       B2g (7)
  162   110         123.4235384426        3358.5252769325       g       B1g (4)
  163   154         123.4235384426        3358.5252769325       g       B3g (6)
  164    35         123.4245495745        3358.5527912300      Ag        Ag (1)
  165    93         153.0144795227        4163.7357322459       u       B3u (3)
  166   137         153.0144795227        4163.7357322459       u       B1u (5)
  167   181         153.0206162223        4163.9027203329       u        Au (8)
  168    65         153.0206162223        4163.9027203329       u       B2u (2)
  169   138         153.0242986685        4164.0029247918       u       B1u (5)
  170    94         153.0242986685        4164.0029247918       u       B3u (3)
  171    66         153.0255262218        4164.0363282159      Au       B2u (2)
  172   171         231.1627638966        6290.2586931846       g       B2g (7)
  173    36         231.1627638966        6290.2586931846       g        Ag (1)
  174   111         231.1678107711        6290.3960256252       g       B1g (4)
  175   155         231.1678107711        6290.3960256252       g       B3g (6)
  176    37         231.1694894374        6290.4417044583      Ag        Ag (1)
  177    38         235.2562900906        6401.6492056268      Ag        Ag (1)
  178   139         318.2516143514        8660.0668293167       u       B1u (5)
  179    95         318.2516143514        8660.0668293167       u       B3u (3)
  180    67         318.2566982249        8660.2051685500      Au       B2u (2)
  181    39         815.2805242168       22184.9112650930      Ag        Ag (1)


  VSCF finished.

  @CHECKOUT-I, Total execution time (CPU/WALL):        2.96/       4.13 seconds.
--executable xvscf finished with status     0 in        4.30 seconds (walltime).
 --invoking executable--
/home/nike/cfour_v2.00beta/bin/xvtran
 @GETMEM-I,  Allocated  122070 MB of main memory.
  Full UHF integral transformation
  Transformation of IIII integrals :
  2 passes through the AO integral file were required.
      346664 AO integrals were read.
      581940 MO integrals (Spin case AAAA) were written to HF2AA.
      581939 MO integrals (Spin case BBBB) were written to HF2BB.
     1161417 MO integrals (Spin case AABB) were written to HF2AB.
  Transformation of IIJJ integrals :
  2 passes through the AO integral file were required.
     1791201 AO integrals were read.
     2447543 MO integrals (Spin case AAAA) were written to HF2AA.
     2447540 MO integrals (Spin case BBBB) were written to HF2BB.
     4895086 MO integrals (Spin case AABB) were written to HF2AB.
  Transformation of IJIJ integrals :
  2 passes through the AO integral file were required.
     3136110 AO integrals were read.
     4535257 MO integrals (Spin case AAAA) were written to HF2AA.
     4535259 MO integrals (Spin case BBBB) were written to HF2BB.
     9056513 MO integrals (Spin case AABB) were written to HF2AB.
  Transformation of IJKL integrals :
  2 passes through the AO integral file were required.
     7350466 AO integrals were read.
     9564661 MO integrals (Spin case AAAA) were written to HF2AA.
     9564645 MO integrals (Spin case BBBB) were written to HF2BB.
    19129313 MO integrals (Spin case AABB) were written to HF2AB.
  Summary of active molecular orbitals: 
------------------------------------------------------------------------
                         * Spin case alpha *
 
  Index      Eigenvalue    Symmetry    Index      Eigenvalue    Symmetry
------------------------------------------------------------------------
     1        -7.7025920        1        92       112.3139390        3
     2        -0.5406792        1        93       153.0142481        3
     3        -0.3099916        2        94       153.0228584        3
     4         0.0514779        1        95       318.2514446        3
     5         0.1329641        1        96         0.1349601        4
     6         0.1357686        1        97         0.4344215        4
     7         0.2982353        1        98         1.0075230        4
     8         0.4332334        1        99         1.0163386        4
     9         0.4390242        1       100         1.1501929        4
    10         0.9998774        1       101         2.7075536        4
    11         1.0130276        1       102         2.7231657        4
    12         1.0174423        1       103         2.9546308        4
    13         1.1291536        1       104         6.7824321        4
    14         1.1516292        1       105         6.8031022        4
    15         1.1552291        1       106         7.7310045        4
    16         2.6939012        1       107        24.1884772        4
    17         2.7173129        1       108        75.3578086        4
    18         2.7251157        1       109       123.4143154        4
    19         2.9467730        1       110       123.4214016        4
    20         2.9573178        1       111       231.1671429        4
    21         3.8435691        1       112         0.0200009        5
    22         6.7644030        1       113         0.0607629        5
    23         6.7953429        1       114         0.2229874        5
    24         6.8056907        1       115         0.3431421        5
    25         7.7138600        1       116         0.3501924        5
    26         7.7368042        1       117         0.6621887        5
    27        11.9208715        1       118         1.0395100        5
    28        24.1731183        1       119         1.0521862        5
    29        24.1936088        1       120         1.7774515        5
    30        33.9096736        1       121         2.2830558        5
    31        75.3480559        1       122         2.3019867        5
    32        75.3610581        1       123         2.3115287        5
    33        89.9258604        1       124         2.5875972        5
    34       123.4081154        1       125         2.6088163        5
    35       123.4187442        1       126         4.7781703        5
    36       123.4222875        1       127         5.9013024        5
    37       231.1625934        1       128         5.9300958        5
    38       231.1686564        1       129         5.9445480        5
    39       235.2558160        1       130         6.2585472        5
    40       815.2803200        1       131         6.2868853        5
    41         0.0403594        2       132        13.7759210        5
    42         0.1920619        2       133        39.2170347        5
    43         0.3474956        2       134        39.2343122        5
    44         0.3510914        2       135        39.8336263        5
    45         0.6352838        2       136       112.3139390        5
    46         1.0473968        2       137       153.0142481        5
    47         1.0537885        2       138       153.0228584        5
    48         1.7728282        2       139       318.2514446        5
    49         2.2936797        2       140         0.1349601        6
    50         2.3079443        2       141         0.4344215        6
    51         2.3127252        2       142         1.0075230        6
    52         2.6008228        2       143         1.0163386        6
    53         2.6114919        2       144         1.1501929        6
    54         4.7935713        2       145         2.7075536        6
    55         5.9174814        2       146         2.7231657        6
    56         5.9391238        2       147         2.9546308        6
    57         5.9463573        2       148         6.7824321        6
    58         6.2762199        2       149         6.8031022        6
    59         6.2904515        2       150         7.7310045        6
    60        13.7972082        2       151        24.1884772        6
    61        39.2278508        2       152        75.3578086        6
    62        39.2364624        2       153       123.4143154        6
    63        39.8506596        2       154       123.4214016        6
    64       112.3240474        2       155       231.1671429        6
    65       153.0196294        2       156         0.1329641        7
    66       153.0239348        2       157         0.4390242        7
    67       318.2560907        2       158         0.9998774        7
    68         0.0200009        3       159         1.0130276        7
    69         0.0607629        3       160         1.1552291        7
    70         0.2229874        3       161         2.6939012        7
    71         0.3431421        3       162         2.7173129        7
    72         0.3501924        3       163         2.9467730        7
[...]
   -0.011637  2a 2b -> 31a 31b                                          
   -0.038653  2a 2b -> 4a 4b                                            
   -0.043674  2a 2b -> 9a 4b                                            
   -0.031763  2a 2b -> 17a 4b                                           
   -0.014436  2a 2b -> 33a 4b                                           
   -0.062078  2a 2b -> 4a 9b                                            
   -0.070281  2a 2b -> 9a 9b                                            
   -0.051499  2a 2b -> 17a 9b                                           
   -0.023790  2a 2b -> 33a 9b                                           
   -0.044787  2a 2b -> 4a 17b                                           
   -0.051040  2a 2b -> 9a 17b                                           
   -0.038343  2a 2b -> 17a 17b                                          
   -0.018828  2a 2b -> 33a 17b                                          
   -0.019501  2a 2b -> 4a 33b                                           
   -0.022543  2a 2b -> 9a 33b                                           
   -0.018001  2a 2b -> 17a 33b                                          
   -0.010726  2a 2b -> 33a 33b                                          
   -0.038653  2a 2b -> 5a 5b                                            
   -0.043674  2a 2b -> 8a 5b                                            
   -0.031763  2a 2b -> 16a 5b                                           
   -0.014436  2a 2b -> 32a 5b                                           
   -0.062078  2a 2b -> 5a 8b                                            
   -0.070281  2a 2b -> 8a 8b                                            
   -0.051499  2a 2b -> 16a 8b                                           
   -0.023790  2a 2b -> 32a 8b                                           
   -0.044787  2a 2b -> 5a 16b                                           
   -0.051040  2a 2b -> 8a 16b                                           
   -0.038343  2a 2b -> 16a 16b                                          
   -0.018828  2a 2b -> 32a 16b                                          
   -0.019501  2a 2b -> 5a 32b                                           
   -0.022543  2a 2b -> 8a 32b                                           
   -0.018001  2a 2b -> 16a 32b                                          
   -0.010726  2a 2b -> 32a 32b                                          
   -0.014392  3a 2b -> 26a 3b                                           
   -0.016817  3a 2b -> 14a 6b                                           
   -0.010759  3a 2b -> 18a 6b                                           
    0.037986  3a 2b -> 26a 6b                                           
    0.011457  3a 2b -> 50a 6b                                           
   -0.025259  3a 2b -> 53a 6b                                           
    0.010462  3a 2b -> 7a 15b                                           
   -0.012765  3a 2b -> 14a 15b                                          
   -0.014143  3a 2b -> 18a 15b                                          
    0.030643  3a 2b -> 26a 15b                                          
    0.013019  3a 2b -> 50a 15b                                          
   -0.022019  3a 2b -> 53a 15b                                          
   -0.013078  3a 2b -> 18a 31b                                          
    0.010993  3a 2b -> 26a 31b                                          
    0.011226  3a 2b -> 50a 31b                                          
    0.014464  3a 2b -> 15a 7b                                           
    0.013849  3a 2b -> 31a 7b                                           
   -0.024721  3a 2b -> 15a 18b                                          
   -0.025995  3a 2b -> 31a 18b                                          
    0.015277  3a 2b -> 15a 50b                                          
    0.019891  3a 2b -> 31a 50b                                          
   -0.011263  3a 2b -> 56a 50b                                          
    0.015003  3a 2b -> 4a 27b                                           
    0.016712  3a 2b -> 9a 27b                                           
    0.011518  3a 2b -> 17a 27b                                          
   -0.012454  3a 2b -> 4a 51b                                           
   -0.014282  3a 2b -> 9a 51b                                           
   -0.010941  3a 2b -> 17a 51b                                          
    0.020166  3a 2b -> 27a 4b                                           
   -0.014402  3a 2b -> 51a 4b                                           
   -0.014248  3a 2b -> 13a 9b                                           
    0.032460  3a 2b -> 27a 9b                                           
   -0.024056  3a 2b -> 51a 9b                                           
    0.023260  3a 2b -> 27a 17b                                          
   -0.019469  3a 2b -> 51a 17b                                          
   -0.010219  3a 2b -> 51a 33b                                          
    0.015003  3a 2b -> 5a 28b                                           
    0.016712  3a 2b -> 8a 28b                                           
    0.011518  3a 2b -> 16a 28b                                          
   -0.012454  3a 2b -> 5a 52b                                           
   -0.014282  3a 2b -> 8a 52b                                           
   -0.010941  3a 2b -> 16a 52b                                          
    0.020166  3a 2b -> 28a 5b                                           
   -0.014402  3a 2b -> 52a 5b                                           
   -0.014248  3a 2b -> 12a 8b                                           
    0.032460  3a 2b -> 28a 8b                                           
   -0.024056  3a 2b -> 52a 8b                                           
    0.023260  3a 2b -> 28a 16b                                          
   -0.019469  3a 2b -> 52a 16b                                          
   -0.010219  3a 2b -> 52a 32b                                          
    0.010030  2a 3a -> 7a 15a                                           
    0.016949  2a 3a -> 15a 18a                                          
    0.010961  2a 3a -> 4a 27a                                           
    0.012599  2a 3a -> 9a 27a                                           
    0.010961  2a 3a -> 5a 28a                                           
    0.012599  2a 3a -> 8a 28a                                           
   -0.016203  2a 3a -> 18a 31a                                          
   -0.010922  2a 3a -> 31a 50a                                          
 
 Starting right-hand LR-CC iteration for root                      2 ...
 ======================================================================
 Norm of residual vector:     0.02723589      Convergence:   1.00000000
 CPU time [min]:  8753.430                   Wall time [min]:  2526.597
 
 Iteration  1  CI energy:   -24.43091556  Energy decrease:   0.22164406
 ======================================================================
 Norm of residual vector:     0.00229424      Convergence:   0.00118990
 CPU time [min]:  9983.302                   Wall time [min]:  2789.008
 
 Iteration  2  CI energy:   -24.43095304  Energy decrease:   0.00003748
 ======================================================================
 Norm of residual vector:     0.00064761      Convergence:   0.00067741
 CPU time [min]: 11206.092                   Wall time [min]:  3056.901
 
 Iteration  3  CI energy:   -24.43097061  Energy decrease:   0.00001757
 ======================================================================
 Norm of residual vector:     0.00039716      Convergence:   0.00039005
 CPU time [min]: 12455.528                   Wall time [min]:  3323.144
 
 Iteration  4  CI energy:   -24.43098015  Energy decrease:   0.00000954
 ======================================================================
 Norm of residual vector:     0.00014884      Convergence:   0.00016651
 CPU time [min]: 13704.133                   Wall time [min]:  3601.813
 
 Iteration  5  CI energy:   -24.43098888  Energy decrease:   0.00000873
 ======================================================================
 Norm of residual vector:     0.00007787      Convergence:   0.00007313
 CPU time [min]: 14924.274                   Wall time [min]:  3874.791
 
 Iteration  6  CI energy:   -24.43099357  Energy decrease:   0.00000470
 ======================================================================
 Norm of residual vector:     0.00002686      Convergence:   0.00002674
 CPU time [min]: 16132.077                   Wall time [min]:  4142.480
 
 Iteration  7  CI energy:   -24.43099542  Energy decrease:   0.00000185
 ======================================================================
 Norm of residual vector:     0.00000843      Convergence:   0.00000981
 CPU time [min]: 17372.679                   Wall time [min]:  4413.676
 
 Iteration  8  CI energy:   -24.43099559  Energy decrease:   0.00000017
 ======================================================================
 Norm of residual vector:     0.00000375      Convergence:   0.00000344
 CPU time [min]: 18576.373                   Wall time [min]:  4688.500
 
 Iteration  9  CI energy:   -24.43099556  Energy decrease:   0.00000003
 ======================================================================
 Norm of residual vector:     0.00000193      Convergence:   0.00000239
 CPU time [min]: 19664.374                   Wall time [min]:  4941.656
 
 Iteration 10  CI energy:   -24.43099556  Energy decrease:   2.6689E-09
 ======================================================================
 Norm of residual vector:     0.00000128      Convergence:   0.00000104
 CPU time [min]: 20760.963                   Wall time [min]:  5192.313
 
 Iteration 11  CI energy:   -24.43099556  Energy decrease:   4.2816E-09
 ======================================================================
 Norm of residual vector:     0.00000046      Convergence:   0.00000041
 CPU time [min]: 21915.482                   Wall time [min]:  5460.129
 
 Iteration 12  CI energy:   -24.43099556  Energy decrease:   0.00000001
 ======================================================================
 Norm of residual vector:     0.0000E+00      Convergence:   1.7629E-07
 CPU time [min]: 22948.305                   Wall time [min]:  5775.447
 
 Iteration 13  CI energy:   -24.43099555  Energy decrease:   3.0601E-09
 ======================================================================
 
 Iteration has converged in 13 steps.
 
 Final results:
 Total LR-CCSDTQ energy [au]:        -24.430995552930
 Excitation energy [eV]:           6.0291
 Excitation energy [cm^-1]:    48627.69
 Absorption wavelength [nm]:     205.64
 Spin multiplicity:                     2
 
 
 
 Dominant CI coefficients
 Printing threshold:  1.00E-02
 
    0.046311  2b -> 7b                                                  
   -0.047582  2b -> 18b                                                 
    0.018128  2b -> 50b                                                 
   -0.023564  2a -> 14a                                                 
   -0.014941  2a -> 18a                                                 
    0.010659  2a -> 53a                                                 
    0.904866  3a -> 6a                                                  
    0.339228  3a -> 15a                                                 
   -0.013301  3a -> 25a                                                 
    0.047820  3a -> 31a                                                 
   -0.034230  2a 2b -> 6a 3b                                            
   -0.012456  2a 2b -> 15a 3b                                           
    0.095862  2a 2b -> 6a 6b                                            
    0.034600  2a 2b -> 15a 6b                                           
    0.089091  2a 2b -> 6a 15b                                           
    0.031744  2a 2b -> 15a 15b                                          
    0.048845  2a 2b -> 6a 31b                                           
    0.017118  2a 2b -> 15a 31b                                          
   -0.016102  3a 2b -> 7a 3b                                            
    0.040816  3a 2b -> 7a 6b                                            
    0.016395  3a 2b -> 14a 6b                                           
   -0.023272  3a 2b -> 18a 6b                                           
    0.030322  3a 2b -> 7a 15b                                           
    0.010889  3a 2b -> 14a 15b                                          
   -0.019257  3a 2b -> 18a 15b                                          
    0.010620  3a 2b -> 7a 31b                                           
   -0.055070  3a 2b -> 6a 7b                                            
   -0.011534  3a 2b -> 15a 7b                                           
    0.085670  3a 2b -> 6a 18b                                           
    0.021104  3a 2b -> 15a 18b                                          
   -0.020331  3a 2b -> 6a 30b                                           
   -0.043358  3a 2b -> 6a 50b                                           
   -0.011315  3a 2b -> 15a 50b                                          
    0.018565  3a 2b -> 6a 54b                                           
    0.012481  3a 2b -> 13a 9b                                           
    0.012481  3a 2b -> 12a 8b                                           
    0.046982  2a 3a -> 6a 7a                                            
    0.011981  2a 3a -> 5a 12a                                           
    0.013838  2a 3a -> 8a 12a                                           
    0.011981  2a 3a -> 4a 13a                                           
    0.013838  2a 3a -> 9a 13a                                           
    0.012647  2a 3a -> 6a 14a                                           
   -0.012321  2a 3a -> 7a 15a                                           
   -0.070775  2a 3a -> 6a 18a                                           
   -0.019657  2a 3a -> 15a 18a                                          
   -0.024378  2a 3a -> 6a 26a                                           
   -0.010714  2a 3a -> 15a 26a                                          
    0.029167  2a 3a -> 6a 50a                                           
    0.026122  2a 3a -> 6a 53a                                           
   -0.012997  2a 3a 2b -> 6a 18a 18b                                    
 
 Starting right-hand LR-CC iteration for root                      3 ...
 ======================================================================
 Norm of residual vector:     0.02910119      Convergence:   1.00000000
 CPU time [min]: 23995.541                   Wall time [min]:  6077.368
 
 Iteration  1  CI energy:   -24.34009037  Energy decrease:   0.31246925
 ======================================================================
 Norm of residual vector:     0.00247628      Convergence:   0.00130085
 CPU time [min]: 25023.773                   Wall time [min]:  6383.390
 
 Iteration  2  CI energy:   -24.34013393  Energy decrease:   0.00004355
 ======================================================================
 Norm of residual vector:     0.00136109      Convergence:   0.00117248
 CPU time [min]: 26046.924                   Wall time [min]:  6690.120
 
 Iteration  3  CI energy:   -24.34014340  Energy decrease:   0.00000947
 ======================================================================
 Norm of residual vector:     0.00049994      Convergence:   0.00050479
 CPU time [min]: 27190.912                   Wall time [min]:  6992.775
 
 Iteration  4  CI energy:   -24.34015582  Energy decrease:   0.00001242
 ======================================================================
 Norm of residual vector:     0.00029276      Convergence:   0.00033939
 CPU time [min]: 28158.632                   Wall time [min]:  7335.471
 
 Iteration  5  CI energy:   -24.34015895  Energy decrease:   0.00000313
 ======================================================================
 Norm of residual vector:     0.00147557      Convergence:   0.00069165
 CPU time [min]: 29185.996                   Wall time [min]:  7765.425
 
 Iteration  6  CI energy:   -24.34014078  Energy decrease:   0.00001817
 ======================================================================
 Norm of residual vector:     0.00105391      Convergence:   0.00005959
 CPU time [min]: 30212.931                   Wall time [min]:  8242.418
 
 Iteration  7  CI energy:   -24.34014562  Energy decrease:   0.00000485
 ======================================================================
 Norm of residual vector:     0.00013087      Convergence:   0.00013989
 CPU time [min]: 31241.113                   Wall time [min]:  8755.361
 
 Iteration  8  CI energy:   -24.34016830  Energy decrease:   0.00002268
 ======================================================================
 Norm of residual vector:     0.00008444      Convergence:   0.00010956
 CPU time [min]: 32253.063                   Wall time [min]:  9235.985
 
 Iteration  9  CI energy:   -24.34017031  Energy decrease:   0.00000201
 ======================================================================
 Norm of residual vector:     0.00007026      Convergence:   0.00006615
 CPU time [min]: 33383.482                   Wall time [min]:  9766.169
 
 Iteration 10  CI energy:   -24.34017024  Energy decrease:   0.00000008
 ======================================================================
 Norm of residual vector:     0.00004672      Convergence:   0.00004583
 CPU time [min]: 34437.783                   Wall time [min]: 10257.942
 
 Iteration 11  CI energy:   -24.34016859  Energy decrease:   0.00000165
 ======================================================================
 Norm of residual vector:     0.00002050      Convergence:   0.00002006
 CPU time [min]: 35491.574                   Wall time [min]: 10741.944
 
 Iteration 12  CI energy:   -24.34016794  Energy decrease:   0.00000065
 ======================================================================
 Norm of residual vector:     0.00001071      Convergence:   0.00000943
 CPU time [min]: 36580.208                   Wall time [min]: 11263.070
 
 Iteration 13  CI energy:   -24.34016802  Energy decrease:   0.00000008
 ======================================================================
 Norm of residual vector:     0.00000504      Convergence:   0.00000473
 CPU time [min]: 37624.362                   Wall time [min]: 12143.565
 
 Iteration 14  CI energy:   -24.34016811  Energy decrease:   0.00000009
 ======================================================================
 Norm of residual vector:     0.00000289      Convergence:   0.00000244
 CPU time [min]: 38651.604                   Wall time [min]: 12824.786
 
 Iteration 15  CI energy:   -24.34016814  Energy decrease:   0.00000004
 ======================================================================
 Norm of residual vector:     0.00000143      Convergence:   0.00000125
 CPU time [min]: 39644.544                   Wall time [min]: 13394.250
 
 Iteration 16  CI energy:   -24.34016817  Energy decrease:   0.00000003
 ======================================================================
 Norm of residual vector:     0.00000078      Convergence:   0.00000072
 CPU time [min]: 40743.901                   Wall time [min]: 13894.394
 
 Iteration 17  CI energy:   -24.34016818  Energy decrease:   0.00000001
 ======================================================================
--- SharcNET Job Epilogue ---
Job ended with signal 1.
               jobid: 1536624
               resid: 3016524
         exit status: 129
      allocated time: 882831
           user time: 40481.5
         system time: 21311.1
peak rss=133400915968; peak vsz=133422346240 (bytes)
atime=882831; utime=40481.5; stime=21311.1; exit=129
