 --invoking executable--
/project1/nike/cfour_v2.00beta_May2019xnmol_noLABBASIS/bin/xjoda


   *************************************************************************
         <<<     CCCCCC     CCCCCC   |||     CCCCCC     CCCCCC   >>>
       <<<      CCC        CCC       |||    CCC        CCC         >>>
      <<<      CCC        CCC        |||   CCC        CCC            >>>
    <<<        CCC        CCC        |||   CCC        CCC              >>>
      <<<      CCC        CCC        |||   CCC        CCC            >>>
       <<<      CCC        CCC       |||    CCC        CCC         >>>
         <<<     CCCCCC     CCCCCC   |||     CCCCCC     CCCCCC   >>>
   *************************************************************************

     ****************************************************************
     * CFOUR Coupled-Cluster techniques for Computational Chemistry *
     ****************************************************************
 

   Department of Chemistry                Institut fuer Physikalische Chemie
   University of Texas at Austin          Universitaet Mainz
   Austin, TX  78712, USA                 D-55099 Mainz, Germany
 
                       Version 2.00beta
 
                     wob103                                            
                     Sat Jul 20 11:05:44 EDT 2019                      
                     integer*8 version is running
 
********************************************************************************
*                          Input from ZMAT file                                *
********************************************************************************
TITLE                                                                           
Mg 0.0000 0.0000 0.0000                                                         
O  0.0000 0.0000 1.749                                                          
                                                                                
*ACES2(CALC=CCSD                                                                
COORD=CARTESIAN                                                                 
PRINT=4                                                                         
JODA_PRINT=4                                                                    
INPUT_MRCC=OFF                                                                  
CC_PROG=MRCC                                                                    
#FROZEN_CORE=ON                                                                 
DROPMO=1>3                                                                      
CONTRACTION=GENERAL                                                             
#CONTRACTION=SEGMENTED                                                          
RELATIVISTIC=OFF                                                                
#EXCITE=EOMEE                                                                   
#ESTATE_CONV=5                                                                  
#ESTATE_SYM=2/2/2/2/2/2/2/2                                                     
XFORM_TOL=18                                                                    
SAVE_INTS=ON                                                                    
SCF_EXPORDER=6                                                                  
SCF_EXPSTART=5                                                                  
#SCF_DAMPING=1000                                                               
SCF_EXTRAPOLATION=ON                                                            
SCF_CONV=10                                                                     
SCF_MAXCYC=9999                                                                 
CC_CONV=5                                                                       
CC_MAXCYC=999                                                                   
T3_EXTRAPOL=ON                                                                  
REFERENCE=ROHF                                                                  
CHARGE=+1                                                                       
MULT=2                                                                          
ABCDTYPE=STANDARD                                                               
#OCCUPATION=3-2-2-0-1-0-0-0/3-1-1-0-1-0-0-0                                     
MEM=20                                                                          
MEM_UNIT=GB                                                                     
BASIS=SPECIAL)                                                                  
                                                                                
MG:def2-TZVPP                                                                   
O:def2-TZVPP                                                                    
                                                                                
********************************************************************************
  @GTFLGS-W, Keyword #FROZEN_CORE not known and is ignored.
  @GTFLGS-W, Keyword #CONTRACTION not known and is ignored.
  @GTFLGS-W, Keyword #EXCITE not known and is ignored.
  @GTFLGS-W, Keyword #ESTATE_CONV not known and is ignored.
  @GTFLGS-W, Keyword #ESTATE_SYM not known and is ignored.
  @GTFLGS-W, Keyword #SCF_DAMPING not known and is ignored.
  @GTFLGS-W, Keyword #OCCUPATION not known and is ignored.
    -------------------------------------------------------------------
                    CFOUR Control Parameters 
    -------------------------------------------------------------------
        External           Internal           Value            Units
          Name               Name
    -------------------------------------------------------------------
       ABCDTYPE             IABCDT         STANDARD     [  0]   ***   
       ANHARMONIC           IANHAR         OFF          [  0]   ***   
       ANH_ALGORIT          IANALG         STANDARD     [  0]   ***   
       ANH_DERIVAT          IANDER         SECOND       [  1]   ***   
       ANH_STEPSIZ          ICUBST             50000          x 10-6  
       ANH_SYMMETR          IANHSM         ABELIAN      [  0]   ***   
       AO_LADDERS           IAOLAD         SINGLEPASS   [  1]   ***   
       BASIS                IBASIS         SPECIAL      [  0]   ***   
       BREIT                IBREIT         OFF          [  0]   ***   
       BRUCK_CONV           IBRTOL          10D-  4             ***   
       BRUECKNER            IBRKNR             OFF      [  0]   ***   
       BUFFERSIZE           IBUFFS            600               ***   
       CACHE_RECS           ICHREC             10               ***   
       CALCLEVEL            ICLLVL           CCSD       [ 10]   ***   
       CCORBOPT             ICCORB             OFF      [  0] x 0.01  
       CC_CONV              ICCCNV          10D-  5             ***   
       CC_EXPORDER          ICCEOR              5               ***   
       CC_EXTRAPOL          ICCEXT             DIIS     [  1]   ***   
       CC_MAXCYC            ICCCYC            999              cycles 
       CC_PROGRAM           ICCPRO         MRCC         [  2]   ***   
       CHARGE               ICHRGE              1               ***   
       CHOLESKY             ICHOLE         OFF          [  0]   ***   
       CIS_CONV             ICISTL              5               ***   
       COMM_SIZE            IPSIZE            ***               ***   
       CONSTANT             ICONST         OLD          [  1]   ***   
       CONTINUUM            ICONTU         NONE         [  0]   ***   
       CONTRACTION          ICNTYP          GENERAL     [  1]   ***   
       COORDINATES          ICOORD         CARTESIAN    [  1]   ***   
       CPHF_CONVER          ICPHFT          10D- 16             ***   
       CPHF_MAXCYC          ICPHFC             64              cycles 
       CUBIC                ICUBIC         OFF          [  0]   ***   
       CURVILINEAR          ICURVY            OFF       [  0]   ***   
       DBOC                 IDBOC          OFF          [  0]   ***   
       DCT                  IDCT           OFF          [  0]   ***   
       DERIV_LEV            IDRLVL            ZERO      [  0]   ***   
       DIAG_MRCC            IEOMST          10D-  0             ***   
       DIFF_TYPE            IDIFTY         RELAXED      [  0]   ***   
       DIRECT               IDIRCT         OFF          [  0]   ***   
       DROPMO               IDRPMO A   1,  2,  3,
                                   B   1,  2,  3,
       ECP                  IECP           OFF          [  0]   ***   
       EIGENVECTOR          IVEC                1               ***   
       EL_ANHARM            IELANH         OFF          [  0]   ***   
       EOMFOLLOW            IEOMSR         ENERGY       [  0]   ***   
       EOM_MRCC             IMRCCE         NEW          [  1]   ***   
       EOM_NONIT            EOMNON         OFF          [  0]   ***   
       EOM_NSING            IEOMSI          10D-  0             ***   
       EOM_NSTATES          IMRCCD         DAVIDSON     [  0]   ***   
       EOM_NTRIP            IEOMTR          10D-  0             ***   
       EOM_ORDER            IEXORD         ENERGY       [  0]   ***   
       ESTATE_CONV          IEXTOL          10D-  5             ***   
       ESTATE_DIAG          IEXDIG         ITERATIVE    [  0]   ***   
       ESTATE_LOCK          IESLOC         ON           [  1]   ***   
       ESTATE_MAXC          IEXMXC             20               ***   
       ESTATE_PROP          IEXPRP         OFF          [  0]   ***   
       EVAL_HESS            IRECAL              0            # of cyc.
       EXCITATION           IEXCIT              0               ***   
       EXCITE               IEXCIT         NONE         [  0]   ***   
       FCGRADNEW            IFCGNW         OFF          [  0]   ***   
       FC_FIELD             IFINFC              0             x 10-6  
       FD_CALTYPE           IFDCAL         GRADONLY     [  0]   ***   
       FD_PROJECT           IFDPRJ         OFF          [  1]   ***   
       FD_STEPSIZE          IDISFD              0            10-4 bohr
       FD_USEGROUP          IFDGRP         FULL         [  0]   ***   
       FILE_RECSIZ          IFLREC              4096           words  
       FINITE_PERT          IFIPER              0             x 10-6  
       FIXGEOM              IFIXGM         OFF          [  0]   ***   
       FOCK                 IFOCK          AO           [  1]   ***   
       FREQ_ALGORI          IVIALG         STANDARD     [  0]   ***   
       FROZEN_CORE          IFROCO         OFF          [  0]   ***   
       FROZEN_VIRT          IFROVI         OFF          [  0]   ***   
       GAMMA_ABCD           IGABCD         STORE        [  0]   ***   
       GAMMA_ABCI           IGABCI         STORE        [  0]   ***   
       GENBAS_1             IGNBS1              0               ***   
       GENBAS_2             IGNBS2              0               ***   
       GENBAS_3             IGNBS3              0               ***   
       GENBAS_4             IGNBS4              0               ***   
       GEO_CONV             ICONTL              5              H/bohr 
       GEO_MAXCYC           IOPTCY             50               ***   
       GEO_MAXSTEP          IMXSTP            300            millibohr
       GEO_METHOD           INR            SINGLE_POINT [  5]   ***   
       GIAO                 IGIAO          OFF          [  1]   ***   
       GIMIC                IGIMIC         OFF          [  0]   ***   
       GRID                 IGRID          OFF          [  0]   ***   
       GRID_ALGO            IGALGO         SERIAL       [  0]   ***   
       GUESS                IGUESS            MOREAD    [  0]   ***   
       HBAR                 IHBAR              OFF      [  0]   ***   
       HESS_TYPE            IHESTP         SCF          [  0]   ***   
       HF2_FILE             IHF2Fl         USE          [  1]   ***   
       HFSTABILITY          ISTABL         OFF          [  0]   ***   
       INCORE               INCORE             OFF      [  0]   ***   
       INPUT_MRCC           IMRCC          OFF          [  0]   ***   
       INTEGRALS            INTTYP             VMOL     [  1]   ***   
       JODA_PRINT           IJPRNT              4               ***   
       LINDEP_TOL           ILINDP              8               ***   
       LINEQ_CONV           IZTACN          10D-  7           cycles  
       LINEQ_EXPOR          ILMAXD              5               ***   
       LINEQ_MAXCY          ILMAXC             50               ***   
       LINEQ_TYPE           ILTYPE         DIIS         [  1]   ***   
       LOCK_ORBOCC          ILOCOC             OFF      [  0]   ***   
       MEMORY_SIZE          IMEMSZ         *********           words  
       MEM_UNIT             IMEMU          GB           [  3]   ***   
       MRCC                 IMRCCC         OFF          [  0]   ***   
       MULTIPLICTY          IMULTP              2               ***   
       NEGEVAL              IDIE             ABORT      [  0]   ***   
       NEWNORM              INEWNO         OFF          [  0]   ***   
       NON-HF               INONHF              ON      [  1]   ***   
       NTOP_TAMP            ITOPT2             15               ***   
       NUC_MODEL            INUCMO         POINT        [  0]   ***   
       OCCUPATION           IOCCU   ESTIMATED BY SCF 
       OPEN-SHELL           IOPEN          SPIN-ORBITAL [  0]   ***   
       ORBITALS             IORBTP         SEMICANONICAL[  1]   ***   
       PARALLEL             IPARAL         ON           [  1]   ***   
       PARA_INT             IPINTS         ON           [  1]   ***   
       PARA_PRINT           IPPRIN              0               ***   
       PERT_ORB             IPTORB         STANDARD     [  0]   ***   
       POINTS               IGRDFD              0               ***   
       PRINT                IPRNT               4               ***   
       PROPS                IPROPS             OFF      [  0]   ***   
       PROP_INTEGR          IINTYP         INTERNAL     [  0]   ***   
       PSI                  IPSI           OFF          [  0]   ***   
       QUARTIC              IQUART         OFF          [  0]   ***   
       RAMAN_INT            IRAMIN         OFF          [  0]   ***   
       RAMAN_ORB            IRAMRE         UNRELAXED    [  0]   ***   
       RDO                  IRDOFM             OFF      [  0]   ***   
       REFERENCE            IREFNC             ROHF     [  2]   ***   
       RELATIVIST           IRELAT         OFF          [  0]   ***   
       RELAX_DENS           IRDENS             OFF      [  0]   ***   
       RESET_FLAGS          IRESET             OFF      [  0]   ***   
       RESTART_CC           ICCRES         OFF          [  0]   ***   
       ROT_EVEC             ROTVEC              0               ***   
       SAVE_INTS            ISVINT              ON      [  1]   ***   
       SCALE_ON             ISTCRT              0               ***   
       SCF_CONV             ISCFCV          10D- 10             ***   
       SCF_DAMPING          IDAMP               0             x 10-3  
       SCF_EXPORDE          IRPPOR              6               ***   
       SCF_EXPSTAR          IRPPLS              5               ***   
       SCF_EXTRAPO          IRPP                ON      [  1]   ***   
       SCF_MAXCYC           ISCFCY            ***              cycles 
       SCF_NOSTOP           ISCFST         OFF          [  0]   ***   
       SCF_PRINT            ISCFPR              0               ***   
       SD_FIELD             IFINSD              0             x 10-6  
       SEQUENCE             ISEQUE         OFF          [  0]   ***   
       SOPERT               IPERSO         OFF          [  0]   ***   
       SPHERICAL            IDFGHI             ON       [  1]   ***   
       SPINORBIT            ISOCAL         OFF          [  0]   ***   
       SPINROTATIO          ISRCON         OFF          [  0]   ***   
       SPIN_FLIP            ISPFLP         OFF          [  0]   ***   
       SPIN_ORBIT           ISPORB         OFF          [  0]   ***   
       SPIN_SCAL            ISCSMP         OFF          [  0]   ***   
       SUBGROUP             ISUBGP         DEFAULT      [  0]   ***   
       SUBGRPAXIS           ISBXYZ         X            [  0]   ***   
       SYMMETRY             ISYM             ON         [  0]   ***   
       SYM_CHECK            ISYMCK         OVERRIDE     [  1]   ***   
       T3_EXTRAPOL          IT3EXT         ON           [  1]   ***   
       TAMP_SUM             IEVERY              5               ***   
       TESTSUITE            ITESTS         OFF          [  0]   ***   
       THERMOCH             ITHERM         OFF          [  0]   ***   
       TOL_CHOLESK          ITOLCH          10D-  4             ***   
       TRANGRAD             IRESRM         OFF          [  0]   ***   
       TRANS_INV            ITRAIN         USE          [  0]   ***   
       TREAT_PERT           ITREAT         SIMULTANEOUS [  0]   ***   
       UIJ_THRESHO          IUIJTH              1               ***   
       UNITS                IUNITS         ANGSTROM     [  0]   ***   
       UNOS                 IUNOS          OFF          [  0]   ***   
       UPDATE_HESS          IHUPDT         ON           [  1]   ***   
       VIBPHASE             ISETPH         STANDARD     [  0]   ***   
       VIBRATION            IVIB              NO        [  0]   ***   
       VIB_ALGORIT          IGEALG         STANDARD     [  0]   ***   
       VNATORB              IVNORB         OFF          [  0]   ***   
       VTRAN                IVTRAN         FULL/PARTIAL [  0]   ***   
       XFIELD               IXEFLD              0             x 10-6  
       XFORM_TOL            IXFTOL          10D- 18             ***   
       YFIELD               IYEFLD              0             x 10-6  
       ZFIELD               IZEFLD              0             x 10-6  
    -------------------------------------------------------------------
  @GETXYZ-I,     2 atoms read from ZMAT.
  1  MG        12    23.98504
  2  O          8    15.99491
  1  MG        12    23.98504
  2  O          8    15.99491
   23.9850423000
   15.9949146300
 After translation to center of mass coordinates 
        0.000000000000    0.000000000000   -1.322295049727
        0.000000000000    0.000000000000    1.982836634920
  Inertia tensor (amu*bohr**2)
  104.82325    0.00000    0.00000
    0.00000  104.82325    0.00000
    0.00000    0.00000    0.00000
    Inertia tensor:
      104.823251844572    0.000000000000    0.000000000000
        0.000000000000  104.823251844572    0.000000000000
        0.000000000000    0.000000000000    0.000000000000
    Principal axis orientation for molecular system: 
        0.000000000000    0.000000000000    1.322295049727
        0.000000000000    0.000000000000   -1.982836634920
    Diagonalized inertia tensor:
      104.823251844572    0.000000000000    0.000000000000
        0.000000000000  104.823251844572    0.000000000000
        0.000000000000    0.000000000000    0.000000000000
    Eigenvectors of inertia tensor: 
        1.000000000000    0.000000000000    0.000000000000
        0.000000000000    1.000000000000    0.000000000000
        0.000000000000    0.000000000000   -1.000000000000
 factor:   60.1997200000000     
   Rotational constants (in cm-1): 
          0.5742973905             0.5742973905
   Rotational constants (in MHz): 
      17217.0050447014         17217.0050447014
  @SYMMETRY-I, Handedness of inertial frame:-1.00000
  @SYMMETRY-I, Sense of inertial frame y-axis will be changed.
  @SYMMETRY-I, The symmetry group is 2-fold degenerate.
  @SYMMETRY-I, The molecule belongs to a point group with doubly degenerate representations.
  @SYMMETRY-I, The molecule is linear.
   Principal axis orientation for molecule:
        0.000000000000    0.000000000000    1.322295049727
        0.000000000000    0.000000000000   -1.982836634920
   Rotation about  3 is a valid symmetry operation 
   Reflection in plane  2 is a valid symmetry operation.
   Reflection in plane  1 is a valid symmetry operation.
  Symmetry bits:    3   4   0
********************************************************************************
   The full molecular point group is CXv .
   The largest Abelian subgroup of the full molecular point group is C2v .
   The computational point group is C2v .
********************************************************************************
 ----------------------------------------------------------------
 Z-matrix   Atomic            Coordinates (in bohr)
  Symbol    Number           X              Y              Z
 ----------------------------------------------------------------
     MG       12         0.00000000     0.00000000     1.32229505
     O         8         0.00000000     0.00000000    -1.98283663
 ----------------------------------------------------------------
   Interatomic distance matrix (Angstroms) 
 
                 MG            O    
                [ 1]        [ 2]
  MG   [ 1]     0.00000
  O    [ 2]     1.74900     0.00000
  Inertia tensor (amu*bohr**2)
  104.82325    0.00000    0.00000
    0.00000  104.82325    0.00000
    0.00000    0.00000    0.00000
   Rotational constants (in cm-1): 
          0.5742973905             0.0000000000
   Rotational constants (in MHz): 
      17217.0050447014             0.0000000000
  @GTFLGS-W, Keyword #FROZEN_CORE not known and is ignored.
  @GTFLGS-W, Keyword #CONTRACTION not known and is ignored.
  @GTFLGS-W, Keyword #EXCITE not known and is ignored.
  @GTFLGS-W, Keyword #ESTATE_CONV not known and is ignored.
  @GTFLGS-W, Keyword #ESTATE_SYM not known and is ignored.
  @GTFLGS-W, Keyword #SCF_DAMPING not known and is ignored.
  @GTFLGS-W, Keyword #OCCUPATION not known and is ignored.
  There are   63 basis functions.
 @GEOPT-W, Archive file not created for single-point calculation.
  @CHECKOUT-I, Total execution time (CPU/WALL):        0.36/       0.39 seconds.
--executable xjoda finished with status     0 in        0.40 seconds (walltime).
 --invoking executable--
/project1/nike/cfour_v2.00beta_May2019xnmol_noLABBASIS/bin/xvmol
Running with 15 threads/proc

********************************************************************************
                   INPUT FROM MOL FILE                                          
********************************************************************************
INTGRL        1    0    1    0    0    0    0    0    0
         *** CFOUR Program System (Release V0.1) *** 
TITLE
    2    2 X  Y       0.10E-08              0    0
   9999.00      3.00
         12.00000000    1    3    1    1    1
MG#1   0.000000000000000   0.000000000000000   1.322295049727271
   14    5
   31438.3495550000       6.091231132599999E-004  0.000000000000000E+000
  0.000000000000000E+000  0.000000000000000E+000  0.000000000000000E+000
   4715.51533540000       4.706619646500000E-003  0.000000000000000E+000
  0.000000000000000E+000  0.000000000000000E+000  0.000000000000000E+000
   1073.16292470000       2.413582065700000E-002  0.000000000000000E+000
  0.000000000000000E+000  0.000000000000000E+000  0.000000000000000E+000
   303.572387680000       9.362895983400001E-002  0.000000000000000E+000
  0.000000000000000E+000  0.000000000000000E+000  0.000000000000000E+000
   98.6262510420000       0.266467420930000       0.000000000000000E+000
  0.000000000000000E+000  0.000000000000000E+000  0.000000000000000E+000
   34.9438084170000       0.478909299170000       0.000000000000000E+000
  0.000000000000000E+000  0.000000000000000E+000  0.000000000000000E+000
   12.8597851990000       0.336984902860000       0.000000000000000E+000
  0.000000000000000E+000  0.000000000000000E+000  0.000000000000000E+000
   64.8769130040000       0.000000000000000E+000  1.918088930700000E-002
  0.000000000000000E+000  0.000000000000000E+000  0.000000000000000E+000
   19.7255207770000       0.000000000000000E+000  9.091370439200000E-002
  0.000000000000000E+000  0.000000000000000E+000  0.000000000000000E+000
   2.89518043390000       0.000000000000000E+000 -0.395637561250000     
  0.000000000000000E+000  0.000000000000000E+000  0.000000000000000E+000
   1.19604547100000       0.000000000000000E+000  0.000000000000000E+000
   1.68276033730000       0.000000000000000E+000  0.000000000000000E+000
  0.543294511560000       0.000000000000000E+000  0.000000000000000E+000
  0.521410919540000       0.000000000000000E+000  0.000000000000000E+000
  0.100991040920000       0.000000000000000E+000  0.000000000000000E+000
  0.000000000000000E+000   1.00000000000000       0.000000000000000E+000
  3.686572808500000E-002  0.000000000000000E+000  0.000000000000000E+000
  0.000000000000000E+000  0.000000000000000E+000   1.00000000000000     
    8    4
   179.871896120000       5.379954901800000E-003  0.000000000000000E+000
  0.000000000000000E+000  0.000000000000000E+000
   42.1200693760000       3.931801409800000E-002  0.000000000000000E+000
  0.000000000000000E+000  0.000000000000000E+000
   13.1205030320000       0.157401294760000       0.000000000000000E+000
  0.000000000000000E+000  0.000000000000000E+000
   4.62575036090000       0.359190941280000       0.000000000000000E+000
  0.000000000000000E+000  0.000000000000000E+000
   1.66952110160000       0.455333793100000       0.000000000000000E+000
  0.000000000000000E+000  0.000000000000000E+000
  0.585510121050000       0.000000000000000E+000  0.219864329100000     
  0.000000000000000E+000  0.000000000000000E+000
  0.189147961950000       0.000000000000000E+000  0.000000000000000E+000
   1.00000000000000       0.000000000000000E+000
  5.376875518700000E-002  0.000000000000000E+000  0.000000000000000E+000
  0.000000000000000E+000   1.00000000000000     
    3    3
   3.44400000000000        1.00000000000000       0.000000000000000E+000
  0.000000000000000E+000
  0.290000000000000       0.000000000000000E+000   1.00000000000000     
  0.000000000000000E+000
  7.000000000000001E-002  0.000000000000000E+000  0.000000000000000E+000
   1.00000000000000     
          8.00000000    1    4    1    1    1    1
O #2   0.000000000000000   0.000000000000000  -1.982836634920458
   11    5
   27032.3826310000       2.172630246500000E-004  0.000000000000000E+000
  0.000000000000000E+000  0.000000000000000E+000  0.000000000000000E+000
   4052.38713920000       1.683866219900000E-003  0.000000000000000E+000
  0.000000000000000E+000  0.000000000000000E+000  0.000000000000000E+000
   922.327227100000       8.739561626499999E-003  0.000000000000000E+000
  0.000000000000000E+000  0.000000000000000E+000  0.000000000000000E+000
   261.240709890000       3.523996880800000E-002  0.000000000000000E+000
  0.000000000000000E+000  0.000000000000000E+000  0.000000000000000E+000
   85.3546413510000       0.111535191150000       0.000000000000000E+000
  0.000000000000000E+000  0.000000000000000E+000  0.000000000000000E+000
   31.0350352450000       0.255889539610000       0.000000000000000E+000
  0.000000000000000E+000  0.000000000000000E+000  0.000000000000000E+000
   12.2608607280000       0.000000000000000E+000  0.397687309010000     
  0.000000000000000E+000  0.000000000000000E+000  0.000000000000000E+000
   4.99870760050000       0.000000000000000E+000  0.246278494300000     
  0.000000000000000E+000  0.000000000000000E+000  0.000000000000000E+000
   1.17031081580000       0.000000000000000E+000  0.000000000000000E+000
   1.00000000000000       0.000000000000000E+000  0.000000000000000E+000
  0.464747409940000       0.000000000000000E+000  0.000000000000000E+000
  0.000000000000000E+000   1.00000000000000       0.000000000000000E+000
  0.185045363570000       0.000000000000000E+000  0.000000000000000E+000
  0.000000000000000E+000  0.000000000000000E+000   1.00000000000000     
    6    3
   63.2749548010000       6.068510341800000E-003  0.000000000000000E+000
  0.000000000000000E+000
   14.6270493790000       4.191257582400000E-002  0.000000000000000E+000
  0.000000000000000E+000
   4.45012234560000       0.161538410880000       0.000000000000000E+000
  0.000000000000000E+000
   1.52757996470000       0.357069513110000       0.000000000000000E+000
  0.000000000000000E+000
  0.529351179430000       0.000000000000000E+000  0.447942075020000     
  0.000000000000000E+000
  0.174784212700000       0.000000000000000E+000  0.000000000000000E+000
  0.244460696630000     
    2    2
   2.31400000000000        1.00000000000000       0.000000000000000E+000
  0.645000000000000       0.000000000000000E+000   1.00000000000000     
    1    1
   1.42800000000000        1.00000000000000     
FINISH
                                                                                
********************************************************************************

ONE- AND TWO-ELECTRON INTEGRALS OVER SYMMETRY-ADAPTED AOS ARE CALCULATED.


    BASIS FUNCTION NOT NORMALIZED:
    CENTER (AS ORDERED IN MOL FILE): ?
    ANGULAR MOMENTUM TYPE:           S
    OFFSET WITHIN ANGULAR MOMENTUM:  1
    <CHI|CHI>:                       1.1094291478

    BASIS FUNCTION NOT NORMALIZED:
    CENTER (AS ORDERED IN MOL FILE): ?
    ANGULAR MOMENTUM TYPE:           S
    OFFSET WITHIN ANGULAR MOMENTUM:  2
    <CHI|CHI>:                       0.1246817846

    BASIS FUNCTION NOT NORMALIZED:
    CENTER (AS ORDERED IN MOL FILE): ?
    ANGULAR MOMENTUM TYPE:           S
    OFFSET WITHIN ANGULAR MOMENTUM:  3
    <CHI|CHI>:                       4.6695378414

    BASIS FUNCTION NOT NORMALIZED:
    CENTER (AS ORDERED IN MOL FILE): ?
    ANGULAR MOMENTUM TYPE:           P
    OFFSET WITHIN ANGULAR MOMENTUM:  1
    <CHI|CHI>:                       0.7497556981

    BASIS FUNCTION NOT NORMALIZED:
    CENTER (AS ORDERED IN MOL FILE): ?
    ANGULAR MOMENTUM TYPE:           P
    OFFSET WITHIN ANGULAR MOMENTUM:  2
    <CHI|CHI>:                       0.0483403232

    BASIS FUNCTION NOT NORMALIZED:
    CENTER (AS ORDERED IN MOL FILE): ?
    ANGULAR MOMENTUM TYPE:           S
    OFFSET WITHIN ANGULAR MOMENTUM:  1
    <CHI|CHI>:                       0.1441333881

    BASIS FUNCTION NOT NORMALIZED:
    CENTER (AS ORDERED IN MOL FILE): ?
    ANGULAR MOMENTUM TYPE:           S
    OFFSET WITHIN ANGULAR MOMENTUM:  2
    <CHI|CHI>:                       0.3880597184

    BASIS FUNCTION NOT NORMALIZED:
    CENTER (AS ORDERED IN MOL FILE): ?
    ANGULAR MOMENTUM TYPE:           P
    OFFSET WITHIN ANGULAR MOMENTUM:  1
    <CHI|CHI>:                       0.2549621911

    BASIS FUNCTION NOT NORMALIZED:
    CENTER (AS ORDERED IN MOL FILE): ?
    ANGULAR MOMENTUM TYPE:           P
    OFFSET WITHIN ANGULAR MOMENTUM:  2
    <CHI|CHI>:                       0.2006521026

    BASIS FUNCTION NOT NORMALIZED:
    CENTER (AS ORDERED IN MOL FILE): ?
    ANGULAR MOMENTUM TYPE:           P
    OFFSET WITHIN ANGULAR MOMENTUM:  3
    <CHI|CHI>:                       0.0597610322
CARTESIAN GAUSSIANS ARE USED.

2 TYPES OF ATOMS
2 SYMMETRY OPERATIONS

REFLECTION IN THE YZ-PLANE
REFLECTION IN THE XZ-PLANE

INTEGRALS LESS THAN 1e-14 ARE NEGLECTED.

ATOMIC TYPE NUMBER 1:
---------------------

    NUCLEAR CHARGE:                       12
    NUMBER OF SYMMETRY INDEPENDENT ATOMS: 1
    HIGHEST ORBITAL TYPE:                 D

    1 GROUPS OF CGTOS OF S TYPE
    1 GROUPS OF CGTOS OF P TYPE
    1 GROUPS OF CGTOS OF D TYPE

    NUCLEAR COORDINATES (IN A.U.) ARE:

    MG#1   0.000000000000000   0.000000000000000   1.322295049727271

ATOMIC TYPE NUMBER 2:
---------------------

    NUCLEAR CHARGE:                       8
    NUMBER OF SYMMETRY INDEPENDENT ATOMS: 1
    HIGHEST ORBITAL TYPE:                 F

    1 GROUPS OF CGTOS OF S TYPE
    1 GROUPS OF CGTOS OF P TYPE
    1 GROUPS OF CGTOS OF D TYPE
    1 GROUPS OF CGTOS OF F TYPE

    NUCLEAR COORDINATES (IN A.U.) ARE:

    O #2   0.000000000000000   0.000000000000000  -1.982836634920458

INTERNUCLEAR DISTANCES (A):

    FOR ATOM MG#1 (COORDINATES:   0.00000   0.00000   1.32230)

    O #2 1 DISTANCE IS   1.74900

    FOR ATOM O #2 (COORDINATES:   0.00000   0.00000  -1.98284)


GROUP MULTIPLICATION TABLE:

    1 2 3 4
    2 1 4 3
    3 4 1 2
    4 3 2 1

GAUSSIAN BASIS INFORMATION:

ATOM                EXPONENT       COEFFICIENTS

MG#1  1  S   
                  1   31438.349555   0.9731061   0.0000000   0.0000000   0.0000000   0.0000000
                  2    4715.515335   1.8122424   0.0000000   0.0000000   0.0000000   0.0000000
                  3    1073.162925   3.0621159   0.0000000   0.0000000   0.0000000   0.0000000
                  4     303.572388   4.6075197   0.0000000   0.0000000   0.0000000   0.0000000
                  5      98.626251   5.6428541   0.0000000   0.0000000   0.0000000   0.0000000
                  6      34.943808   4.6573755   0.0000000   0.0000000   0.0000000   0.0000000
                  7      12.859785   1.5484459   0.0000000   0.0000000   0.0000000   0.0000000
                  8      64.876913   0.0000000   0.8850034   0.0000000   0.0000000   0.0000000
                  9      19.725521   0.0000000   1.7175496   0.0000000   0.0000000   0.0000000
                 10       2.895180   0.0000000  -1.7724044   0.0000000   0.0000000   0.0000000
                 11       1.196045   0.0000000   0.0000000   0.6347551   0.0000000   0.0000000
                 12       0.543295   0.0000000   0.0000000   0.1088253   0.0000000   0.0000000
                 13       0.100991   0.0000000   0.0000000   0.0000000   0.1276798   0.0000000
                 14       0.036866   0.0000000   0.0000000   0.0000000   0.0000000   0.0599622

MG#1  1  X   
                 15     179.871896   5.8339537   0.0000000   0.0000000   0.0000000
                 16      42.120069   6.9451739   0.0000000   0.0000000   0.0000000
                 17      13.120503   6.4703326   0.0000000   0.0000000   0.0000000
                 18       4.625750   4.0112831   0.0000000   0.0000000   0.0000000
                 19       1.669521   1.4224925   0.0000000   0.0000000   0.0000000
                 20       0.585510   0.0000000   0.7300592   0.0000000   0.0000000
                 21       0.189148   0.0000000   0.0000000   0.1778043   0.0000000
                 22       0.053769   0.0000000   0.0000000   0.0000000   0.0369065

MG#1  1  Y   
                 23     179.871896   5.8339537   0.0000000   0.0000000   0.0000000
                 24      42.120069   6.9451739   0.0000000   0.0000000   0.0000000
                 25      13.120503   6.4703326   0.0000000   0.0000000   0.0000000
                 26       4.625750   4.0112831   0.0000000   0.0000000   0.0000000
                 27       1.669521   1.4224925   0.0000000   0.0000000   0.0000000
                 28       0.585510   0.0000000   0.7300592   0.0000000   0.0000000
                 29       0.189148   0.0000000   0.0000000   0.1778043   0.0000000
                 30       0.053769   0.0000000   0.0000000   0.0000000   0.0369065

MG#1  1  Z   
                 31     179.871896   5.8339537   0.0000000   0.0000000   0.0000000
                 32      42.120069   6.9451739   0.0000000   0.0000000   0.0000000
                 33      13.120503   6.4703326   0.0000000   0.0000000   0.0000000
                 34       4.625750   4.0112831   0.0000000   0.0000000   0.0000000
                 35       1.669521   1.4224925   0.0000000   0.0000000   0.0000000
                 36       0.585510   0.0000000   0.7300592   0.0000000   0.0000000
                 37       0.189148   0.0000000   0.0000000   0.1778043   0.0000000
                 38       0.053769   0.0000000   0.0000000   0.0000000   0.0369065

MG#1  1  XX  
                 39       3.444000  24.8216463   0.0000000   0.0000000
                 40       0.290000   0.0000000   0.3267131   0.0000000
                 41       0.070000   0.0000000   0.0000000   0.0271576

MG#1  1  XY  
                 42       3.444000  24.8216463   0.0000000   0.0000000
                 43       0.290000   0.0000000   0.3267131   0.0000000
                 44       0.070000   0.0000000   0.0000000   0.0271576

MG#1  1  XZ  
                 45       3.444000  24.8216463   0.0000000   0.0000000
                 46       0.290000   0.0000000   0.3267131   0.0000000
                 47       0.070000   0.0000000   0.0000000   0.0271576

MG#1  1  YY  
                 48       3.444000  24.8216463   0.0000000   0.0000000
                 49       0.290000   0.0000000   0.3267131   0.0000000
                 50       0.070000   0.0000000   0.0000000   0.0271576

MG#1  1  YZ  
                 51       3.444000  24.8216463   0.0000000   0.0000000
                 52       0.290000   0.0000000   0.3267131   0.0000000
                 53       0.070000   0.0000000   0.0000000   0.0271576

MG#1  1  ZZ  
                 54       3.444000  24.8216463   0.0000000   0.0000000
                 55       0.290000   0.0000000   0.3267131   0.0000000
                 56       0.070000   0.0000000   0.0000000   0.0271576

O #2  1  S   
                 57   27032.382631   0.8598582   0.0000000   0.0000000   0.0000000   0.0000000
                 58    4052.387139   1.6055306   0.0000000   0.0000000   0.0000000   0.0000000
                 59     922.327227   2.7458779   0.0000000   0.0000000   0.0000000   0.0000000
                 60     261.240710   4.2987674   0.0000000   0.0000000   0.0000000   0.0000000
                 61      85.354641   5.8797663   0.0000000   0.0000000   0.0000000   0.0000000
                 62      31.035035   6.3163983   0.0000000   0.0000000   0.0000000   0.0000000
                 63      12.260861   0.0000000   2.9812148   0.0000000   0.0000000   0.0000000
                 64       4.998708   0.0000000   0.9419560   0.0000000   0.0000000   0.0000000
                 65       1.170311   0.0000000   0.0000000   0.8019292   0.0000000   0.0000000
                 66       0.464747   0.0000000   0.0000000   0.0000000   0.4011648   0.0000000
                 67       0.185045   0.0000000   0.0000000   0.0000000   0.0000000   0.2010799

O #2  1  X   
                 68      63.274955   3.0572017   0.0000000   0.0000000
                 69      14.627049   3.3844839   0.0000000   0.0000000
                 70       4.450122   2.9474262   0.0000000   0.0000000
                 71       1.527580   1.7118271   0.0000000   0.0000000
                 72       0.529351   0.0000000   0.6436058   0.0000000
                 73       0.174784   0.0000000   0.0000000   0.1610897

O #2  1  Y   
                 74      63.274955   3.0572017   0.0000000   0.0000000
                 75      14.627049   3.3844839   0.0000000   0.0000000
                 76       4.450122   2.9474262   0.0000000   0.0000000
                 77       1.527580   1.7118271   0.0000000   0.0000000
                 78       0.529351   0.0000000   0.6436058   0.0000000
                 79       0.174784   0.0000000   0.0000000   0.1610897

O #2  1  Z   
                 80      63.274955   3.0572017   0.0000000   0.0000000
                 81      14.627049   3.3844839   0.0000000   0.0000000
                 82       4.450122   2.9474262   0.0000000   0.0000000
                 83       1.527580   1.7118271   0.0000000   0.0000000
                 84       0.529351   0.0000000   0.6436058   0.0000000
                 85       0.174784   0.0000000   0.0000000   0.1610897

O #2  1  XX  
                 86       2.314000  12.3767311   0.0000000
                 87       0.645000   0.0000000   1.3234258

O #2  1  XY  
                 88       2.314000  12.3767311   0.0000000
                 89       0.645000   0.0000000   1.3234258

O #2  1  XZ  
                 90       2.314000  12.3767311   0.0000000
                 91       0.645000   0.0000000   1.3234258

O #2  1  YY  
                 92       2.314000  12.3767311   0.0000000
                 93       0.645000   0.0000000   1.3234258

O #2  1  YZ  
                 94       2.314000  12.3767311   0.0000000
                 95       0.645000   0.0000000   1.3234258

O #2  1  ZZ  
                 96       2.314000  12.3767311   0.0000000
                 97       0.645000   0.0000000   1.3234258

O #2  1  F300
                 98       1.428000  12.7097950

O #2  1  F210
                 99       1.428000  12.7097950

O #2  1  F201
                100       1.428000  12.7097950

O #2  1  F120
                101       1.428000  12.7097950

O #2  1  F111
                102       1.428000  12.7097950

O #2  1  F102
                103       1.428000  12.7097950

O #2  1  F030
                104       1.428000  12.7097950

O #2  1  F021
                105       1.428000  12.7097950

O #2  1  F012
                106       1.428000  12.7097950

O #2  1  F003
                107       1.428000  12.7097950

SYMMETRY TRANSFORMATION INTO 63 SYMMETRY-ADAPTED BASIS FUNCTIONS

    IRREDUCIBLE REPRESENTATION NUMBER 1

    1    1 MG#1 S      1   1.0
    2    2 MG#1 S      2   1.0
    3    3 MG#1 S      3   1.0
    4    4 MG#1 S      4   1.0
    5    5 MG#1 S      5   1.0
    6    6 MG#1 Z     14   1.0
    7    7 MG#1 Z     15   1.0
    8    8 MG#1 Z     16   1.0
    9    9 MG#1 Z     17   1.0
   10   10 MG#1 XX    18  -1.0  27  -1.0  33   2.0
   11   11 MG#1 XX    19  -1.0  28  -1.0  34   2.0
   12   12 MG#1 XX    20  -1.0  29  -1.0  35   2.0
   13   13 MG#1 YY    18   1.0  27  -1.0
   14   14 MG#1 YY    19   1.0  28  -1.0
   15   15 MG#1 YY    20   1.0  29  -1.0
   16   16 MG#1 ZZ    36   1.0
   17   17 MG#1 ZZ    37   1.0
   18   18 MG#1 ZZ    38   1.0
   19   19 O #2 S     39   1.0
   20   20 O #2 S     40   1.0
   21   21 O #2 S     47   1.0
   22   22 O #2 S     48   1.0
   23   23 O #2 S     49   1.0
   24   24 O #2 Z     50  -1.0  56  -1.0  60   2.0
   25   25 O #2 Z     51  -1.0  57  -1.0  61   2.0
   26   26 O #2 Z     50   1.0  56  -1.0
   27   27 O #2 XX    51   1.0  57  -1.0
   28   28 O #2 XX    64  -3.0  69  -3.0  71   2.0
   29   29 O #2 YY    64   1.0  69  -1.0
   30   30 O #2 YY     6   1.0
   31   31 O #2 ZZ     7   1.0
   32   32 O #2 ZZ     8   1.0
   33   33 O #2 F201   9   1.0
   34   34 O #2 F021  24   1.0
   35   35 O #2 F003  25   1.0

    IRREDUCIBLE REPRESENTATION NUMBER 2

   36    1 MG#1 X     26   1.0
   37    2 MG#1 X     41   1.0
   38    3 MG#1 X     42   1.0
   39    4 MG#1 X     43   1.0
   40    5 MG#1 XZ    54   1.0
   41    6 MG#1 XZ    55   1.0
   42    7 MG#1 XZ    62  -1.0  65  -1.0  67   4.0
   43    8 O #2 X     62   1.0  65  -3.0
   44    9 O #2 X     10   1.0
   45   10 O #2 X     11   1.0
   46   11 O #2 XZ    12   1.0
   47   12 O #2 XZ    13   1.0
   48   13 O #2 F300  30   1.0
   49   14 O #2 F120  31   1.0
   50   15 O #2 F102  32   1.0

    IRREDUCIBLE REPRESENTATION NUMBER 3

   51    1 MG#1 Y     44   1.0
   52    2 MG#1 Y     45   1.0
   53    3 MG#1 Y     46   1.0
   54    4 MG#1 Y     58   1.0
   55    5 MG#1 YZ    59   1.0
   56    6 MG#1 YZ    63  -1.0  68  -1.0  70   4.0
   57    7 MG#1 YZ    63   3.0  68  -1.0
   58    8 O #2 Y     21   1.0
   59    9 O #2 Y     22   1.0
   60   10 O #2 Y     23   1.0
   61   11 O #2 YZ    52   1.0
   62   12 O #2 YZ    53   1.0
   63   13 O #2 F210  66   1.0
   64   14 O #2 F030
   65   15 O #2 F012

    IRREDUCIBLE REPRESENTATION NUMBER 4

   66    1 MG#1 XY  
   67    2 MG#1 XY  
   68    3 MG#1 XY  
   69    4 O #2 XY  
   70    5 O #2 XY  
   71    6 O #2 F111

NUCLEAR REPULSION ENERGY:   29.0457413379 A.U.

One-electron integrals took 0.012247 seconds

  @TWOEL-I,      59209 INTEGRALS OF SYMMETRY TYPE  I I I I
  @TWOEL-I,     174627 INTEGRALS OF SYMMETRY TYPE  I J I J
  @TWOEL-I,      97347 INTEGRALS OF SYMMETRY TYPE  I I J J
  @TWOEL-I,      89294 INTEGRALS OF SYMMETRY TYPE  I J K L
  @TWOEL-I, TOTAL NUMBER OF 2-E INTEGRALS     420477

Two-electron integrals took 0.379041 seconds

Nuclear repulsion energy: 29.045741337907
--executable xvmol finished with status     0 in        0.54 seconds (walltime).
 --invoking executable--
/project1/nike/cfour_v2.00beta_May2019xnmol_noLABBASIS/bin/xvmol2ja
--executable xvmol2ja finished with status     0 in        0.01 seconds (walltime).
 --invoking executable--
/project1/nike/cfour_v2.00beta_May2019xnmol_noLABBASIS/bin/xvscf
  There are   63 functions in the AO basis.

  There are 4 irreducible representations.

       Irrep        # of functions
         1                 29
         2                 14
         3                 14
         4                  6


  Parameters for SCF calculation: 
        SCF reference function: ROHF  
  Maximum number of iterations: 9999
     Full symmetry point group: CXv 
     Computational point group: C2v 
        Initial density matrix: CORE                   
     SCF convergence tolerance: 10**(-10)
  DIIS convergence acceleration:  ON
          Latest start for DIIS:   5
                     DIIS order:   6

  Memory information:     215453 words required.
  Fock matrices are constructed from AO integral file.
 @GETMEM-I,  Allocated       1 MB of main memory.
  Initialization and symmetry analysis required      0.002 seconds.

  @INITGES-I, Occupancies from core Hamiltonian:

          Alpha population by irrep:   6    2    2    0
           Beta population by irrep:   5    2    2    0


 total no. of electrons in initial guess :  0.000000000000000E+000
 total no. of electrons in initial guess :  0.000000000000000E+000
  --------------------------------------------------------------------
  Iteration         Total Energy            Largest Density Difference
  --------------------------------------------------------------------
       0            29.045741337907380              0.0000000000D+00
   current occupation vector 
     6  2  2  0
     5  2  2  0
  processed                  59209  ao basis integrals from 
                    99  buffers.
  processed                  97347  ao basis integrals from 
                   163  buffers.
  processed                 174627  ao basis integrals from 
                   292  buffers.
       1          -259.942217624465854              0.1590936585D+01
   current occupation vector 
     6  2  2  0
     5  2  2  0
  processed                  59209  ao basis integrals from 
                    99  buffers.
  processed                  97347  ao basis integrals from 
                   163  buffers.
  processed                 174627  ao basis integrals from 
                   292  buffers.
       2          -260.602997272971720              0.1584269353D+01
   current occupation vector 
     6  2  2  0
     5  2  2  0
  processed                  59209  ao basis integrals from 
                    99  buffers.
  processed                  97347  ao basis integrals from 
                   163  buffers.
  processed                 174627  ao basis integrals from 
                   292  buffers.
       3          -265.881099191494968              0.7196582179D+00
   current occupation vector 
     6  2  2  0
     6  1  2  0
  processed                  59209  ao basis integrals from 
                    99  buffers.
  processed                  97347  ao basis integrals from 
                   163  buffers.
  processed                 174627  ao basis integrals from 
                   292  buffers.
       4          -259.674903336196337              0.1680209489D+01
   current occupation vector 
     6  2  2  0
     5  2  2  0
 
 sum over diagonal and offdiagdiagonal of C(T)*S*C for irrep
                     1
  9.348077867343818E-014  1.261357721694727E-013
 reorthoganalization of MOs is carried out
 sum over diagonal and offdiagdiagonal of C(T)*S*C for irrep
                     1
  5.995204332975845E-015  3.611349110542686E-015
 
 sum over diagonal and offdiagdiagonal of C(T)*S*C for irrep
                     2
  2.364775042451583E-014 -1.181786012110437E-014
 reorthoganalization of MOs is carried out
 sum over diagonal and offdiagdiagonal of C(T)*S*C for irrep
                     2
  5.551115123125783E-016  2.129910086356581E-016
 
 sum over diagonal and offdiagdiagonal of C(T)*S*C for irrep
                     3
  8.837375276016246E-014 -4.682878624517667E-014
 reorthoganalization of MOs is carried out
 sum over diagonal and offdiagdiagonal of C(T)*S*C for irrep
                     3
  4.440892098500626E-016 -1.877630882527243E-016
 
 sum over diagonal and offdiagdiagonal of C(T)*S*C for irrep
                     4
  1.199040866595169E-014 -5.230055754798513E-016
 reorthoganalization of MOs is carried out
 sum over diagonal and offdiagdiagonal of C(T)*S*C for irrep
                     4
 -6.661338147750939E-016  6.715277205832093E-017
  processed                  59209  ao basis integrals from 
                    99  buffers.
  processed                  97347  ao basis integrals from 
                   163  buffers.
  processed                 174627  ao basis integrals from 
                   292  buffers.
       5          -264.904441250359525              0.1664976643D+01
   current occupation vector 
     6  2  2  0
     6  2  1  0
  processed                  59209  ao basis integrals from 
                    99  buffers.
  processed                  97347  ao basis integrals from 
                   163  buffers.
  processed                 174627  ao basis integrals from 
                   292  buffers.
       6          -267.967914191903560              0.7622792755D+00
   current occupation vector 
     6  2  2  0
     6  1  2  0
  processed                  59209  ao basis integrals from 
                    99  buffers.
  processed                  97347  ao basis integrals from 
                   163  buffers.
  processed                 174627  ao basis integrals from 
                   292  buffers.
       7          -273.300684491743652              0.7927722866D+00
   current occupation vector 
     6  2  2  0
     5  2  2  0
  processed                  59209  ao basis integrals from 
                    99  buffers.
  processed                  97347  ao basis integrals from 
                   163  buffers.
  processed                 174627  ao basis integrals from 
                   292  buffers.
       8          -273.774675477305323              0.7859465255D-01
   current occupation vector 
     6  2  2  0
     5  2  2  0
  processed                  59209  ao basis integrals from 
                    99  buffers.
  processed                  97347  ao basis integrals from 
                   163  buffers.
  processed                 174627  ao basis integrals from 
                   292  buffers.
       9          -274.063411042377879              0.6525438629D-01
   current occupation vector 
     6  2  2  0
     5  2  2  0
 
 sum over diagonal and offdiagdiagonal of C(T)*S*C for irrep
                     1
  1.398881011027697E-013  2.211956493329534E-015
 reorthoganalization of MOs is carried out
 sum over diagonal and offdiagdiagonal of C(T)*S*C for irrep
                     1
 -4.662936703425657E-015 -3.666763244593169E-016
 
 sum over diagonal and offdiagdiagonal of C(T)*S*C for irrep
                     2
  4.563016631209393E-014  8.581032449728356E-015
 reorthoganalization of MOs is carried out
 sum over diagonal and offdiagdiagonal of C(T)*S*C for irrep
                     2
 -6.661338147750939E-016  1.764914478958977E-016
 
 sum over diagonal and offdiagdiagonal of C(T)*S*C for irrep
                     3
  1.154631945610163E-014 -6.174588199946497E-015
 reorthoganalization of MOs is carried out
 sum over diagonal and offdiagdiagonal of C(T)*S*C for irrep
                     3
 -1.554312234475219E-015  9.089922707458958E-016
 
 sum over diagonal and offdiagdiagonal of C(T)*S*C for irrep
                     4
 -2.220446049250313E-016  2.347951533457059E-015
 reorthoganalization of MOs is carried out
 sum over diagonal and offdiagdiagonal of C(T)*S*C for irrep
                     4
 -2.220446049250313E-016  1.525690435322125E-016
  processed                  59209  ao basis integrals from 
                    99  buffers.
  processed                  97347  ao basis integrals from 
                   163  buffers.
  processed                 174627  ao basis integrals from 
                   292  buffers.
      10          -274.151771771584094              0.3415277125D-01
   current occupation vector 
     6  2  2  0
     5  2  2  0
  processed                  59209  ao basis integrals from 
                    99  buffers.
  processed                  97347  ao basis integrals from 
                   163  buffers.
  processed                 174627  ao basis integrals from 
                   292  buffers.
      11          -274.154271236928139              0.2935927662D-01
   current occupation vector 
     6  2  2  0
     5  2  2  0
  processed                  59209  ao basis integrals from 
                    99  buffers.
  processed                  97347  ao basis integrals from 
                   163  buffers.
  processed                 174627  ao basis integrals from 
                   292  buffers.
      12          -274.155344844583908              0.2018836018D-01
   current occupation vector 
     6  2  2  0
     5  2  2  0
  processed                  59209  ao basis integrals from 
                    99  buffers.
  processed                  97347  ao basis integrals from 
                   163  buffers.
  processed                 174627  ao basis integrals from 
                   292  buffers.
      13          -274.155690246632048              0.1098561252D-01
   current occupation vector 
     6  2  2  0
     5  2  2  0
  processed                  59209  ao basis integrals from 
                    99  buffers.
  processed                  97347  ao basis integrals from 
                   163  buffers.
  processed                 174627  ao basis integrals from 
                   292  buffers.
      14          -274.155711838822697              0.2176387416D-02
   current occupation vector 
     6  2  2  0
     5  2  2  0
 
 sum over diagonal and offdiagdiagonal of C(T)*S*C for irrep
                     1
  1.415534356397075E-013 -1.713054025428230E-014
 reorthoganalization of MOs is carried out
 sum over diagonal and offdiagdiagonal of C(T)*S*C for irrep
                     1
  6.106226635438361E-015  2.404374609070010E-015
 
 sum over diagonal and offdiagdiagonal of C(T)*S*C for irrep
                     2
  2.631228568361621E-014  1.021872319821385E-014
 reorthoganalization of MOs is carried out
 sum over diagonal and offdiagdiagonal of C(T)*S*C for irrep
                     2
 -1.554312234475219E-015  1.111300712220446E-015
 
 sum over diagonal and offdiagdiagonal of C(T)*S*C for irrep
                     3
  5.073719222536965E-014 -2.376014738933373E-014
 reorthoganalization of MOs is carried out
 sum over diagonal and offdiagdiagonal of C(T)*S*C for irrep
                     3
 -2.220446049250313E-015  1.049074253712439E-015
 
 sum over diagonal and offdiagdiagonal of C(T)*S*C for irrep
                     4
 -7.105427357601002E-015 -1.737584329756158E-016
 reorthoganalization of MOs is carried out
 sum over diagonal and offdiagdiagonal of C(T)*S*C for irrep
                     4
 -5.551115123125783E-016  2.206273070460381E-016
  processed                  59209  ao basis integrals from 
                    99  buffers.
  processed                  97347  ao basis integrals from 
                   163  buffers.
  processed                 174627  ao basis integrals from 
                   292  buffers.
      15          -274.155712978686836              0.3041376974D-03
   current occupation vector 
     6  2  2  0
     5  2  2  0
  processed                  59209  ao basis integrals from 
                    99  buffers.
  processed                  97347  ao basis integrals from 
                   163  buffers.
  processed                 174627  ao basis integrals from 
                   292  buffers.
      16          -274.155713229079936              0.2434210818D-03
   current occupation vector 
     6  2  2  0
     5  2  2  0
  processed                  59209  ao basis integrals from 
                    99  buffers.
  processed                  97347  ao basis integrals from 
                   163  buffers.
  processed                 174627  ao basis integrals from 
                   292  buffers.
      17          -274.155713239891611              0.6179131274D-04
   current occupation vector 
     6  2  2  0
     5  2  2  0
  processed                  59209  ao basis integrals from 
                    99  buffers.
  processed                  97347  ao basis integrals from 
                   163  buffers.
  processed                 174627  ao basis integrals from 
                   292  buffers.
      18          -274.155713240290140              0.1855984503D-04
   current occupation vector 
     6  2  2  0
     5  2  2  0
  processed                  59209  ao basis integrals from 
                    99  buffers.
  processed                  97347  ao basis integrals from 
                   163  buffers.
  processed                 174627  ao basis integrals from 
                   292  buffers.
      19          -274.155713240344937              0.5869180258D-05
   current occupation vector 
     6  2  2  0
     5  2  2  0
 
 sum over diagonal and offdiagdiagonal of C(T)*S*C for irrep
                     1
  8.215650382226158E-015  1.061760412201842E-014
 reorthoganalization of MOs is carried out
 sum over diagonal and offdiagdiagonal of C(T)*S*C for irrep
                     1
  1.021405182655144E-014 -6.450685722832862E-015
 
 sum over diagonal and offdiagdiagonal of C(T)*S*C for irrep
                     2
 -1.021405182655144E-014  5.309988115856846E-015
 reorthoganalization of MOs is carried out
 sum over diagonal and offdiagdiagonal of C(T)*S*C for irrep
                     2
  4.440892098500626E-016 -3.836974427274333E-016
 
 sum over diagonal and offdiagdiagonal of C(T)*S*C for irrep
                     3
  1.498801083243961E-014  3.856536800746339E-015
 reorthoganalization of MOs is carried out
 sum over diagonal and offdiagdiagonal of C(T)*S*C for irrep
                     3
 -9.992007221626409E-016  1.154601203365702E-015
 
 sum over diagonal and offdiagdiagonal of C(T)*S*C for irrep
                     4
 -2.220446049250313E-015  9.897505873283615E-016
 reorthoganalization of MOs is carried out
 sum over diagonal and offdiagdiagonal of C(T)*S*C for irrep
                     4
 -6.661338147750939E-016  1.080960153879889E-016
  processed                  59209  ao basis integrals from 
                    99  buffers.
  processed                  97347  ao basis integrals from 
                   163  buffers.
  processed                 174627  ao basis integrals from 
                   292  buffers.
      20          -274.155713240361194              0.2910015285D-05
   current occupation vector 
     6  2  2  0
     5  2  2  0
  processed                  59209  ao basis integrals from 
                    99  buffers.
  processed                  97347  ao basis integrals from 
                   163  buffers.
  processed                 174627  ao basis integrals from 
                   292  buffers.
      21          -274.155713240365174              0.1379663275D-05
   current occupation vector 
     6  2  2  0
     5  2  2  0
  processed                  59209  ao basis integrals from 
                    99  buffers.
  processed                  97347  ao basis integrals from 
                   163  buffers.
  processed                 174627  ao basis integrals from 
                   292  buffers.
      22          -274.155713240365515              0.4737538132D-06
   current occupation vector 
     6  2  2  0
     5  2  2  0
  processed                  59209  ao basis integrals from 
                    99  buffers.
  processed                  97347  ao basis integrals from 
                   163  buffers.
  processed                 174627  ao basis integrals from 
                   292  buffers.
      23          -274.155713240366026              0.1219984976D-06
   current occupation vector 
     6  2  2  0
     5  2  2  0
  processed                  59209  ao basis integrals from 
                    99  buffers.
  processed                  97347  ao basis integrals from 
                   163  buffers.
  processed                 174627  ao basis integrals from 
                   292  buffers.
      24          -274.155713240365969              0.4183815951D-07
   current occupation vector 
     6  2  2  0
     5  2  2  0
 
 sum over diagonal and offdiagdiagonal of C(T)*S*C for irrep
                     1
  5.728750807065808E-014  2.677857932333592E-014
 reorthoganalization of MOs is carried out
 sum over diagonal and offdiagdiagonal of C(T)*S*C for irrep
                     1
 -1.998401444325282E-015 -1.996373810394927E-014
 
 sum over diagonal and offdiagdiagonal of C(T)*S*C for irrep
                     2
  3.108624468950438E-014 -5.809358181348311E-015
 reorthoganalization of MOs is carried out
 sum over diagonal and offdiagdiagonal of C(T)*S*C for irrep
                     2
 -1.332267629550188E-015  9.146927745123496E-016
 
 sum over diagonal and offdiagdiagonal of C(T)*S*C for irrep
                     3
 -4.884981308350689E-015 -2.712916273133481E-015
 reorthoganalization of MOs is carried out
 sum over diagonal and offdiagdiagonal of C(T)*S*C for irrep
                     3
  7.771561172376096E-016  6.380144849901926E-017
 
 sum over diagonal and offdiagdiagonal of C(T)*S*C for irrep
                     4
 -1.088018564132653E-014 -3.698464120342206E-015
 reorthoganalization of MOs is carried out
 sum over diagonal and offdiagdiagonal of C(T)*S*C for irrep
                     4
 -4.440892098500626E-016  1.389263206021509E-016
  processed                  59209  ao basis integrals from 
                    99  buffers.
  processed                  97347  ao basis integrals from 
                   163  buffers.
  processed                 174627  ao basis integrals from 
                   292  buffers.
      25          -274.155713240365571              0.3268535859D-07
   current occupation vector 
     6  2  2  0
     5  2  2  0
  processed                  59209  ao basis integrals from 
                    99  buffers.
  processed                  97347  ao basis integrals from 
                   163  buffers.
  processed                 174627  ao basis integrals from 
                   292  buffers.
      26          -274.155713240365174              0.1788849523D-07
   current occupation vector 
     6  2  2  0
     5  2  2  0
  processed                  59209  ao basis integrals from 
                    99  buffers.
  processed                  97347  ao basis integrals from 
                   163  buffers.
  processed                 174627  ao basis integrals from 
                   292  buffers.
      27          -274.155713240365571              0.5051243528D-08
   current occupation vector 
     6  2  2  0
     5  2  2  0
  processed                  59209  ao basis integrals from 
                    99  buffers.
  processed                  97347  ao basis integrals from 
                   163  buffers.
  processed                 174627  ao basis integrals from 
                   292  buffers.
      28          -274.155713240366140              0.2381239129D-08
   current occupation vector 
     6  2  2  0
     5  2  2  0
  processed                  59209  ao basis integrals from 
                    99  buffers.
  processed                  97347  ao basis integrals from 
                   163  buffers.
  processed                 174627  ao basis integrals from 
                   292  buffers.
      29          -274.155713240366083              0.9485979745D-09
   current occupation vector 
     6  2  2  0
     5  2  2  0
 
 sum over diagonal and offdiagdiagonal of C(T)*S*C for irrep
                     1
  1.041389197098397E-013  2.492729602555112E-014
 reorthoganalization of MOs is carried out
 sum over diagonal and offdiagdiagonal of C(T)*S*C for irrep
                     1
 -1.054711873393899E-014  4.283676284320747E-015
 
 sum over diagonal and offdiagdiagonal of C(T)*S*C for irrep
                     2
  9.547918011776346E-015  6.893768019678025E-015
 reorthoganalization of MOs is carried out
 sum over diagonal and offdiagdiagonal of C(T)*S*C for irrep
                     2
 -4.440892098500626E-016  1.061662382059287E-016
 
 sum over diagonal and offdiagdiagonal of C(T)*S*C for irrep
                     3
  2.042810365310288E-014  7.325141399983632E-015
 reorthoganalization of MOs is carried out
 sum over diagonal and offdiagdiagonal of C(T)*S*C for irrep
                     3
  3.330669073875470E-016 -9.087289281090675E-016
 
 sum over diagonal and offdiagdiagonal of C(T)*S*C for irrep
                     4
 -6.328271240363392E-015  3.018909068517868E-015
 reorthoganalization of MOs is carried out
 sum over diagonal and offdiagdiagonal of C(T)*S*C for irrep
                     4
 -3.330669073875470E-016 -2.518919284039047E-016
  processed                  59209  ao basis integrals from 
                    99  buffers.
  processed                  97347  ao basis integrals from 
                   163  buffers.
  processed                 174627  ao basis integrals from 
                   292  buffers.
      30          -274.155713240365287              0.2632459999D-09
   current occupation vector 
     6  2  2  0
     5  2  2  0

  SCF has converged.

 Density matrix saved to file den.dat
 total alpha spin electron number:   10.0000000000000     
 total  beta spin electron number:   9.00000000000000     
  processed                  59209  ao basis integrals from 
                    99  buffers.
  processed                  97347  ao basis integrals from 
                   163  buffers.
  processed                 174627  ao basis integrals from 
                   292  buffers.
     E(ROHF)=      -274.155713240365344              0.7956564964D-10


       The average multiplicity is    2.0000000
  The expectation value of S**2 is    0.7500000

 @PUTMOS-I, Writing converged MOs to NEWMOS. 
 @PUTMOS-I, Symmetry   1 Full Blocks  7 Partial Blocksize   1
 @PUTMOS-I, Symmetry   2 Full Blocks  3 Partial Blocksize   2
 @PUTMOS-I, Symmetry   3 Full Blocks  3 Partial Blocksize   2
 @PUTMOS-I, Symmetry   4 Full Blocks  1 Partial Blocksize   2
  @DMPJOB-I, Rotating orbitals to semicanonical basis.
             *** Eigenvalues correspond to new basis. ***

--------------------------------------------------------------------------------
Eigenvalue    -49.413042    -20.748129     -4.143305     -2.667135     -2.664170
 Symmetry         SG+           SG+           SG+           SG+            PI    
--------------------------------------------------------------------------------
   1 S         0.9963403     0.0000053     0.2616017     0.0035716     0.0000000
   1 S        -0.0211908     0.0000454     0.3804950     0.0094042     0.0000000
   1 S        -0.0045086    -0.0000205    -0.6869930    -0.0066618     0.0000000
   1 S         0.0013115    -0.0006491    -0.0019216     0.0131681     0.0000000
   1 S        -0.0005181    -0.0003518     0.0004346    -0.0031933     0.0000000
   1 PX        0.0000000     0.0000000     0.0000000     0.0000000     0.8679461
   1 PY        0.0000000     0.0000000     0.0000000     0.0000000     0.0000000
   1 PZ        0.0000948     0.0000759    -0.0099471     0.8664049     0.0000000
   1 PX        0.0000000     0.0000000     0.0000000     0.0000000     0.2167380
   1 PY        0.0000000     0.0000000     0.0000000     0.0000000     0.0000000
   1 PZ        0.0000549    -0.0001367    -0.0072145     0.2170536     0.0000000
   1 PX        0.0000000     0.0000000     0.0000000     0.0000000    -0.0007011
   1 PY        0.0000000     0.0000000     0.0000000     0.0000000     0.0000000
   1 PZ       -0.0001222     0.0003967    -0.0000972    -0.0070703     0.0000000
   1 PX        0.0000000     0.0000000     0.0000000     0.0000000     0.0019642
   1 PY        0.0000000     0.0000000     0.0000000     0.0000000     0.0000000
   1 PZ       -0.0001286     0.0006079    -0.0000619     0.0009142     0.0000000
   1 DX2       0.0000010    -0.0000019    -0.0000641    -0.0007652     0.0000000
   1 DXY       0.0000000     0.0000000     0.0000000     0.0000000     0.0000000
   1 DXZ       0.0000000     0.0000000     0.0000000     0.0000000     0.0023587
   1 DY2       0.0000010    -0.0000019    -0.0000641    -0.0007652     0.0000000
   1 DYZ       0.0000000     0.0000000     0.0000000     0.0000000     0.0000000
   1 DZZ      -0.0000020     0.0000038     0.0001283     0.0015304     0.0000000
   1 DX2      -0.0000089    -0.0000243    -0.0002840    -0.0019910     0.0000000
   1 DXY       0.0000000     0.0000000     0.0000000     0.0000000     0.0000000
   1 DXZ       0.0000000     0.0000000     0.0000000     0.0000000     0.0049112
   1 DY2      -0.0000089    -0.0000243    -0.0002840    -0.0019910     0.0000000
   1 DYZ       0.0000000     0.0000000     0.0000000     0.0000000     0.0000000
   1 DZZ       0.0000178     0.0000486     0.0005679     0.0039820     0.0000000
   1 DX2      -0.0000379     0.0001189     0.0000682    -0.0001680     0.0000000
   1 DXY       0.0000000     0.0000000     0.0000000     0.0000000     0.0000000
   1 DXZ       0.0000000     0.0000000     0.0000000     0.0000000    -0.0006683
   1 DY2      -0.0000379     0.0001189     0.0000682    -0.0001680     0.0000000
   1 DYZ       0.0000000     0.0000000     0.0000000     0.0000000     0.0000000
   1 DZZ       0.0000757    -0.0002377    -0.0001364     0.0003359     0.0000000
   2 S        -0.0000033     0.4355941     0.0003773     0.0025063     0.0000000
   2 S         0.0000167     0.6423355     0.0008278     0.0060623     0.0000000
   2 S        -0.0000578     0.0214525    -0.0005000    -0.0088793     0.0000000
   2 S         0.0000632    -0.0074332    -0.0023555    -0.0090948     0.0000000
   2 S        -0.0003532     0.0045232    -0.0007346    -0.0130443     0.0000000
   2 PX        0.0000000     0.0000000     0.0000000     0.0000000     0.0012246
   2 PY        0.0000000     0.0000000     0.0000000     0.0000000     0.0000000
   2 PZ       -0.0000310    -0.0000092    -0.0010160    -0.0077102     0.0000000
   2 PX        0.0000000     0.0000000     0.0000000     0.0000000     0.0016528
   2 PY        0.0000000     0.0000000     0.0000000     0.0000000     0.0000000
   2 PZ       -0.0000305    -0.0000532    -0.0020800    -0.0071744     0.0000000
   2 PX        0.0000000     0.0000000     0.0000000     0.0000000     0.0010600
   2 PY        0.0000000     0.0000000     0.0000000     0.0000000     0.0000000
   2 PZ        0.0000002     0.0004259    -0.0005875    -0.0067644     0.0000000
   2 DX2       0.0000220     0.0000324     0.0000107     0.0002086     0.0000000
   2 DXY       0.0000000     0.0000000     0.0000000     0.0000000     0.0000000
   2 DXZ       0.0000000     0.0000000     0.0000000     0.0000000     0.0001019
   2 DY2       0.0000220     0.0000324     0.0000107     0.0002086     0.0000000
   2 DYZ       0.0000000     0.0000000     0.0000000     0.0000000     0.0000000
   2 DZZ      -0.0000440    -0.0000649    -0.0000214    -0.0004171     0.0000000
   2 DX2      -0.0000477     0.0000359     0.0002762     0.0001187     0.0000000
   2 DXY       0.0000000     0.0000000     0.0000000     0.0000000     0.0000000
   2 DXZ       0.0000000     0.0000000     0.0000000     0.0000000     0.0010349
   2 DY2      -0.0000477     0.0000359     0.0002762     0.0001187     0.0000000
   2 DYZ       0.0000000     0.0000000     0.0000000     0.0000000     0.0000000
   2 DZZ       0.0000954    -0.0000719    -0.0005524    -0.0002374     0.0000000
   2 FX3       0.0000000     0.0000000     0.0000000     0.0000000    -0.0000147
   2 FX2Y      0.0000000     0.0000000     0.0000000     0.0000000     0.0000000
   2 FX2Z     -0.0000195     0.0000052     0.0001127    -0.0000528     0.0000000
   2 FXY2      0.0000000     0.0000000     0.0000000     0.0000000    -0.0000147
   2 FXYZ      0.0000000     0.0000000     0.0000000     0.0000000     0.0000000
   2 FXZ2      0.0000000     0.0000000     0.0000000     0.0000000     0.0000586
   2 FY3       0.0000000     0.0000000     0.0000000     0.0000000     0.0000000
   2 FY2Z     -0.0000195     0.0000052     0.0001127    -0.0000528     0.0000000
   2 FYZ2      0.0000000     0.0000000     0.0000000     0.0000000     0.0000000
   2 FZ3       0.0000130    -0.0000035    -0.0000751     0.0000352     0.0000000
--------------------------------------------------------------------------------
Eigenvalue     -2.664170     -1.451834     -0.799859     -0.678164     -0.678164
 Symmetry          PI           SG+           SG+            PI            PI    
--------------------------------------------------------------------------------
   1 S         0.0000000     0.0107097     0.0228586     0.0000000     0.0000000
   1 S         0.0000000     0.0199684     0.0440661     0.0000000     0.0000000
   1 S         0.0000000    -0.0449397    -0.1133676     0.0000000     0.0000000
   1 S         0.0000000     0.0475570     0.2371834     0.0000000     0.0000000
   1 S         0.0000000    -0.0080808    -0.0458150     0.0000000     0.0000000
   1 PX        0.0000000     0.0000000     0.0000000     0.0000000     0.0505357
   1 PY        0.8679461     0.0000000     0.0000000     0.0505357     0.0000000
   1 PZ        0.0000000     0.0700884     0.0983829     0.0000000     0.0000000
   1 PX        0.0000000     0.0000000     0.0000000     0.0000000     0.0127081
   1 PY        0.2167380     0.0000000     0.0000000     0.0127081     0.0000000
   1 PZ        0.0000000     0.0117576     0.0065772     0.0000000     0.0000000
   1 PX        0.0000000     0.0000000     0.0000000     0.0000000    -0.0905982
   1 PY       -0.0007011     0.0000000     0.0000000    -0.0905982     0.0000000
   1 PZ        0.0000000    -0.0297634    -0.1028691     0.0000000     0.0000000
   1 PX        0.0000000     0.0000000     0.0000000     0.0000000    -0.0357746
   1 PY        0.0019642     0.0000000     0.0000000    -0.0357746     0.0000000
   1 PZ        0.0000000    -0.0034924    -0.0029731     0.0000000     0.0000000
   1 DX2       0.0000000    -0.0007794    -0.0014781     0.0000000     0.0000000
   1 DXY       0.0000000     0.0000000     0.0000000     0.0000000     0.0000000
   1 DXZ       0.0000000     0.0000000     0.0000000     0.0000000     0.0035039
   1 DY2       0.0000000    -0.0007794    -0.0014781     0.0000000     0.0000000
   1 DYZ       0.0023587     0.0000000     0.0000000     0.0035039     0.0000000
   1 DZZ       0.0000000     0.0015589     0.0029561     0.0000000     0.0000000
   1 DX2       0.0000000    -0.0055171    -0.0148435     0.0000000     0.0000000
   1 DXY       0.0000000     0.0000000     0.0000000     0.0000000     0.0000000
   1 DXZ       0.0000000     0.0000000     0.0000000     0.0000000     0.0560666
   1 DY2       0.0000000    -0.0055171    -0.0148435     0.0000000     0.0000000
   1 DYZ       0.0049112     0.0000000     0.0000000     0.0560666     0.0000000
   1 DZZ       0.0000000     0.0110343     0.0296871     0.0000000     0.0000000
   1 DX2       0.0000000    -0.0005980    -0.0008023     0.0000000     0.0000000
   1 DXY       0.0000000     0.0000000     0.0000000     0.0000000     0.0000000
   1 DXZ       0.0000000     0.0000000     0.0000000     0.0000000     0.0196149
   1 DY2       0.0000000    -0.0005980    -0.0008023     0.0000000     0.0000000
   1 DYZ      -0.0006683     0.0000000     0.0000000     0.0196149     0.0000000
   1 DZZ       0.0000000     0.0011961     0.0016045     0.0000000     0.0000000
   2 S         0.0000000    -0.1038893     0.0121782     0.0000000     0.0000000
   2 S         0.0000000    -0.2516411     0.0312129     0.0000000     0.0000000
   2 S         0.0000000     0.3593321    -0.0668324     0.0000000     0.0000000
   2 S         0.0000000     0.5214983    -0.0499353     0.0000000     0.0000000
   2 S         0.0000000     0.2164082    -0.0869381     0.0000000     0.0000000
   2 PX        0.0000000     0.0000000     0.0000000     0.0000000    -0.4483848
   2 PY        0.0012246     0.0000000     0.0000000    -0.4483848     0.0000000
   2 PZ        0.0000000     0.0086487     0.4618943     0.0000000     0.0000000
   2 PX        0.0000000     0.0000000     0.0000000     0.0000000    -0.4127535
   2 PY        0.0016528     0.0000000     0.0000000    -0.4127535     0.0000000
   2 PZ        0.0000000     0.0254090     0.4344146     0.0000000     0.0000000
   2 PX        0.0000000     0.0000000     0.0000000     0.0000000    -0.2809139
   2 PY        0.0010600     0.0000000     0.0000000    -0.2809139     0.0000000
   2 PZ        0.0000000     0.0108929     0.1810174     0.0000000     0.0000000
   2 DX2       0.0000000     0.0000721     0.0007186     0.0000000     0.0000000
   2 DXY       0.0000000     0.0000000     0.0000000     0.0000000     0.0000000
   2 DXZ       0.0000000     0.0000000     0.0000000     0.0000000    -0.0004507
   2 DY2       0.0000000     0.0000721     0.0007186     0.0000000     0.0000000
   2 DYZ       0.0001019     0.0000000     0.0000000    -0.0004507     0.0000000
   2 DZZ       0.0000000    -0.0001443    -0.0014371     0.0000000     0.0000000
   2 DX2       0.0000000    -0.0029231    -0.0048285     0.0000000     0.0000000
   2 DXY       0.0000000     0.0000000     0.0000000     0.0000000     0.0000000
   2 DXZ       0.0000000     0.0000000     0.0000000     0.0000000    -0.0241613
   2 DY2       0.0000000    -0.0029231    -0.0048285     0.0000000     0.0000000
   2 DYZ       0.0010349     0.0000000     0.0000000    -0.0241613     0.0000000
   2 DZZ       0.0000000     0.0058461     0.0096569     0.0000000     0.0000000
   2 FX3       0.0000000     0.0000000     0.0000000     0.0000000     0.0009129
   2 FX2Y     -0.0000147     0.0000000     0.0000000     0.0009129     0.0000000
   2 FX2Z      0.0000000    -0.0005415    -0.0043972     0.0000000     0.0000000
   2 FXY2      0.0000000     0.0000000     0.0000000     0.0000000     0.0009129
   2 FXYZ      0.0000000     0.0000000     0.0000000     0.0000000     0.0000000
   2 FXZ2      0.0000000     0.0000000     0.0000000     0.0000000    -0.0036516
   2 FY3      -0.0000147     0.0000000     0.0000000     0.0009129     0.0000000
   2 FY2Z      0.0000000    -0.0005415    -0.0043972     0.0000000     0.0000000
   2 FYZ2      0.0000586     0.0000000     0.0000000    -0.0036516     0.0000000
   2 FZ3       0.0000000     0.0003610     0.0029315     0.0000000     0.0000000
--------------------------------------------------------------------------------
Eigenvalue     -0.277441     -0.150316     -0.150316     -0.093670     -0.034085
 Symmetry         SG+            PI            PI           SG+           SG+    
--------------------------------------------------------------------------------
   1 S         0.0422450     0.0000000     0.0000000     0.0131009     0.0465227
   1 S         0.0622590     0.0000000     0.0000000     0.0213908     0.0543074
   1 S        -0.2525576     0.0000000     0.0000000    -0.0790436    -0.3236709
   1 S         0.6294323     0.0000000     0.0000000     0.2201322     2.0167761
   1 S         0.3994689     0.0000000     0.0000000     0.2367130    -1.8033805
   1 PX        0.0000000     0.0000000     0.1234002     0.0000000     0.0000000
   1 PY        0.0000000     0.1234002     0.0000000     0.0000000     0.0000000
   1 PZ       -0.0988949     0.0000000     0.0000000     0.0479370    -0.0718584
[...]
 Spatial symmetry: 1
 Convergence criterion:  1.0E-05
 Construction of occupation graphs...
 Number of 0-fold excitations: 1
 Number of 1-fold excitations: 213
 Number of 2-fold excitations: 43589
 Number of 3-fold excitations: 4660273
 Number of 4-fold excitations: 271370334
 Total number of determinants: 276074410
 Calculation of coupling coefficients...
 Initial cluster amplitudes are read from unit 16.
 Length of intermediate file (Mbytes):    5206.1
 Reading integral list from unit 55...
 Sorting integrals...
 Sorting integrals...
 Sorting integrals...
 Sorting integrals...
 Energy of reference determinant [au]:    -274.155713240365
 Calculation of MP denominators...
 
 Starting CC iteration...
 ======================================================================
 Norm of residual vector:     0.05906555
 CPU time [min]:   335.188                   Wall time [min]:    78.741
 
 Iteration  1  CC energy:  -274.51347611  Energy decrease:   0.00000001
 ======================================================================
 Norm of residual vector:     0.01987528
 CPU time [min]:   673.957                   Wall time [min]:   156.700
 
 Iteration  2  CC energy:  -274.51335887  Energy decrease:   0.00011724
 ======================================================================
 Norm of residual vector:     0.00852967
 CPU time [min]:  1011.821                   Wall time [min]:   235.693
 
 Iteration  3  CC energy:  -274.51358031  Energy decrease:   0.00022144
 ======================================================================
 Norm of residual vector:     0.00389056
 CPU time [min]:  1360.458                   Wall time [min]:   316.790
 
 Iteration  4  CC energy:  -274.51374467  Energy decrease:   0.00016436
 ======================================================================
 Norm of residual vector:     0.00206694
 CPU time [min]:  1692.711                   Wall time [min]:   395.060
 
 Iteration  5  CC energy:  -274.51375403  Energy decrease:   0.00000936
 ======================================================================
 Norm of residual vector:     0.00076683
 CPU time [min]:  2041.940                   Wall time [min]:   477.483
 
 Iteration  6  CC energy:  -274.51375653  Energy decrease:   0.00000251
 ======================================================================
 Norm of residual vector:     0.00042990
 CPU time [min]:  2380.557                   Wall time [min]:   558.000
 
 Iteration  7  CC energy:  -274.51375827  Energy decrease:   0.00000174
 ======================================================================
 Norm of residual vector:     0.00023482
 CPU time [min]:  2720.240                   Wall time [min]:   638.895
 
 Iteration  8  CC energy:  -274.51375745  Energy decrease:   0.00000082
 ======================================================================
 Norm of residual vector:     0.00015342
 CPU time [min]:  3076.904                   Wall time [min]:   724.033
 
 Iteration  9  CC energy:  -274.51375775  Energy decrease:   0.00000030
 ======================================================================
 Norm of residual vector:     0.00010447
 CPU time [min]:  3415.295                   Wall time [min]:   805.806
 
 Iteration 10  CC energy:  -274.51375965  Energy decrease:   0.00000191
 ======================================================================
 Norm of residual vector:     0.00007094
 CPU time [min]:  3766.311                   Wall time [min]:   891.023
 
 Iteration 11  CC energy:  -274.51376147  Energy decrease:   0.00000182
 ======================================================================
 Norm of residual vector:     0.00004655
 CPU time [min]:  4119.532                   Wall time [min]:   976.843
 
 Iteration 12  CC energy:  -274.51376223  Energy decrease:   0.00000076
 ======================================================================
 Norm of residual vector:     0.00002717
 CPU time [min]:  4467.410                   Wall time [min]:  1061.720
 
 Iteration 13  CC energy:  -274.51376235  Energy decrease:   0.00000012
 ======================================================================
 Norm of residual vector:     0.00001481
 CPU time [min]:  4835.537                   Wall time [min]:  1152.005
 
 Iteration 14  CC energy:  -274.51376238  Energy decrease:   0.00000002
 ======================================================================
 Norm of residual vector:     0.00000777
 CPU time [min]:  5167.434                   Wall time [min]:  1227.079
 
 Iteration 15  CC energy:  -274.51376238  Energy decrease:   3.2640E-09
 ======================================================================
 
 Iteration has converged in 15 steps.
 
 Final results:
 Total CCSDTQ energy [au]:          -274.513762379072
 
 Perturbative corrections are calculated...
 ======================================================================
 Spin case  1   Alpha:  0   Beta:  5
 Number of excitations:        4739808
 CPU time [min]:  5332.624                   Wall time [min]:  1260.176
 ======================================================================
 Spin case  2   Alpha:  1   Beta:  4
 Number of excitations:        439972413
 CPU time [min]: 15932.302                   Wall time [min]:  3120.185
 ======================================================================
 Spin case  3   Alpha:  2   Beta:  3
 Number of excitations:        3588769440
 CPU time [min]: 98085.198                   Wall time [min]: 17739.502
 ======================================================================
 Spin case  4   Alpha:  3   Beta:  2
 Number of excitations:        4399967520
 CPU time [min]:191179.349                   Wall time [min]: 33703.216
 ======================================================================
 Spin case  5   Alpha:  4   Beta:  1
 Number of excitations:        830150856
 CPU time [min]:207408.824                   Wall time [min]: 36498.431
 ======================================================================
 Spin case  6   Alpha:  5   Beta:  0
 Number of excitations:        15063265
 CPU time [min]:207612.017                   Wall time [min]: 36537.795
 ======================================================================
 Number of 5-fold excitations: 9278663302
 
 T_3^+ contribution:               0.000018635498
 T_1^+ * T_2^+ contribution:      -0.000006150046
 T_1^+ * <ab||ij> contribution:   -0.000003029002
 T_2^+ * f_ai contribution:        0.000000038451
 T_2^+ contribution:               0.000042882618
 
 CPU time [min]:207621.189                   Wall time [min]: 36542.809
 
 Total CCSDTQ[P] energy [au]:       -274.513707011002
 Total CCSDTQ(P)/A energy [au]:     -274.513707011002
 Total CCSDTQ(P)/B energy [au]:     -274.513703851507
 
 Dominant cluster amplitudes
 Printing threshold:  1.00E-02
 
    1.000000  Reference determinant                                     
   -0.010149  3b -> 29b                                                 
    0.033800  4b -> 10b                                                 
    0.022970  4b -> 16b                                                 
    0.011394  4b -> 19b                                                 
    0.033800  6b -> 9b                                                  
    0.022970  6b -> 15b                                                 
    0.011394  6b -> 18b                                                 
    0.014117  3a -> 29a                                                 
   -0.010921  3a -> 37a                                                 
    0.036351  7a -> 8a                                                  
    0.010329  7a -> 11a                                                 
    0.012068  7a -> 12a                                                 
    0.011374  4a -> 10a                                                 
    0.011374  6a -> 9a                                                  
    0.010769  2b 5b -> 54b 55b                                          
    0.011195  4b 6b -> 9b 10b                                           
   -0.011106  4b 6b -> 10b 15b                                          
    0.011106  4b 6b -> 9b 16b                                           
    0.011907  4b 6b -> 15b 16b                                          
    0.010157  4b 6b -> 10b 26b                                          
    0.012562  4b 6b -> 16b 26b                                          
   -0.010157  4b 6b -> 9b 27b                                           
   -0.012562  4b 6b -> 15b 27b                                          
    0.017973  4b 6b -> 26b 27b                                          
    0.020162  4b 6b -> 30b 31b                                          
   -0.011355  1a 1b -> 32a 32b                                          
   -0.012873  1a 1b -> 56a 56b                                          
   -0.011837  3a 3b -> 28a 28b                                          
   -0.016273  7a 3b -> 29a 8b                                           
   -0.010182  7a 3b -> 37a 11b                                          
   -0.010578  7a 3b -> 37a 13b                                          
   -0.010036  7a 3b -> 29a 17b                                          
   -0.012047  7a 3b -> 25a 28b                                          
   -0.010858  4a 4b -> 8a 11b                                           
   -0.010574  4a 4b -> 8a 13b                                           
   -0.010037  4a 4b -> 28a 28b                                          
   -0.018628  4a 4b -> 31a 31b                                          
   -0.010209  5a 5b -> 54a 54b                                          
   -0.010209  2a 2b -> 54a 54b                                          
   -0.010858  6a 6b -> 8a 11b                                           
   -0.010574  6a 6b -> 8a 13b                                           
   -0.010037  6a 6b -> 28a 28b                                          
   -0.018628  6a 6b -> 31a 31b                                          
   -0.014272  4a 4b -> 10a 10b                                          
   -0.015893  4a 4b -> 16a 10b                                          
    0.017339  4a 4b -> 27a 10b                                          
   -0.015685  4a 4b -> 10a 16b                                          
   -0.018581  4a 4b -> 16a 16b                                          
    0.022715  4a 4b -> 27a 16b                                          
    0.016798  4a 4b -> 10a 27b                                          
    0.022250  4a 4b -> 16a 27b                                          
   -0.035639  4a 4b -> 27a 27b                                          
   -0.015480  4a 4b -> 39a 27b                                          
    0.014273  4a 4b -> 34a 36b                                          
   -0.015087  4a 4b -> 27a 39b                                          
   -0.017083  4a 4b -> 39a 39b                                          
   -0.016656  5a 5b -> 36a 34b                                          
   -0.016656  2a 2b -> 35a 33b                                          
   -0.014272  6a 6b -> 9a 9b                                            
   -0.015893  6a 6b -> 15a 9b                                           
    0.017339  6a 6b -> 26a 9b                                           
   -0.015685  6a 6b -> 9a 15b                                           
   -0.018581  6a 6b -> 15a 15b                                          
    0.022715  6a 6b -> 26a 15b                                          
    0.016798  6a 6b -> 9a 26b                                           
    0.022250  6a 6b -> 15a 26b                                          
   -0.035639  6a 6b -> 26a 26b                                          
   -0.015480  6a 6b -> 38a 26b                                          
    0.014273  6a 6b -> 33a 35b                                          
   -0.015087  6a 6b -> 26a 38b                                          
   -0.017083  6a 6b -> 38a 38b                                          
   -0.018628  4a 4b -> 30a 30b                                          
   -0.010209  5a 5b -> 55a 55b                                          
   -0.010209  2a 2b -> 55a 55b                                          
   -0.018628  6a 6b -> 30a 30b                                          
    0.016410  3a 4b -> 28a 27b                                          
   -0.010863  3a 4b -> 41a 39b                                          
   -0.014120  7a 4b -> 8a 10b                                           
   -0.014394  7a 4b -> 8a 16b                                           
   -0.011508  7a 4b -> 25a 16b                                          
    0.014142  7a 4b -> 8a 27b                                           
    0.010015  7a 4b -> 20a 27b                                          
    0.019108  7a 4b -> 25a 27b                                          
    0.012160  7a 4b -> 29a 27b                                          
   -0.010191  7a 4b -> 40a 27b                                          
   -0.011432  7a 4b -> 40a 39b                                          
    0.011536  7a 4b -> 10a 8b                                           
    0.010762  7a 4b -> 16a 8b                                           
   -0.011677  7a 4b -> 10a 11b                                          
   -0.010657  7a 4b -> 16a 11b                                          
   -0.011754  7a 4b -> 10a 13b                                          
   -0.010789  7a 4b -> 16a 13b                                          
    0.011710  7a 4b -> 34a 31b                                          
    0.011161  5a 1b -> 36a 32b                                          
   -0.011885  4a 3b -> 24a 8b                                           
   -0.014844  4a 3b -> 34a 8b                                           
    0.012973  4a 3b -> 34a 11b                                          
    0.013790  4a 3b -> 34a 13b                                          
    0.016963  4a 3b -> 27a 28b                                          
   -0.011075  4a 3b -> 39a 41b                                          
    0.011710  7a 4b -> 33a 30b                                          
    0.016410  3a 6b -> 28a 26b                                          
   -0.010863  3a 6b -> 41a 38b                                          
   -0.014120  7a 6b -> 8a 9b                                            
   -0.014394  7a 6b -> 8a 15b                                           
   -0.011508  7a 6b -> 25a 15b                                          
    0.014142  7a 6b -> 8a 26b                                           
    0.010015  7a 6b -> 20a 26b                                          
    0.019108  7a 6b -> 25a 26b                                          
    0.012160  7a 6b -> 29a 26b                                          
   -0.010191  7a 6b -> 40a 26b                                          
   -0.011432  7a 6b -> 40a 38b                                          
    0.011710  7a 6b -> 34a 30b                                          
    0.011536  7a 6b -> 9a 8b                                            
    0.010762  7a 6b -> 15a 8b                                           
   -0.011677  7a 6b -> 9a 11b                                           
   -0.010657  7a 6b -> 15a 11b                                          
   -0.011754  7a 6b -> 9a 13b                                           
   -0.010789  7a 6b -> 15a 13b                                          
   -0.011710  7a 6b -> 33a 31b                                          
    0.011161  2a 1b -> 35a 32b                                          
   -0.011885  6a 3b -> 23a 8b                                           
   -0.014844  6a 3b -> 33a 8b                                           
    0.012973  6a 3b -> 33a 11b                                          
    0.013790  6a 3b -> 33a 13b                                          
    0.016963  6a 3b -> 26a 28b                                          
   -0.011075  6a 3b -> 38a 41b                                          
   -0.010170  4a 6b -> 31a 30b                                          
    0.010170  6a 4b -> 31a 30b                                          
   -0.012559  5a 2b -> 36a 33b                                          
   -0.011576  4a 6b -> 10a 9b                                           
   -0.012387  4a 6b -> 16a 9b                                           
    0.012773  4a 6b -> 27a 9b                                           
   -0.012117  4a 6b -> 10a 15b                                          
   -0.013955  4a 6b -> 16a 15b                                          
    0.016381  4a 6b -> 27a 15b                                          
    0.012144  4a 6b -> 10a 26b                                          
    0.015871  4a 6b -> 16a 26b                                          
   -0.024801  4a 6b -> 27a 26b                                          
   -0.011364  4a 6b -> 39a 26b                                          
   -0.010997  4a 6b -> 27a 38b                                          
   -0.012132  4a 6b -> 39a 38b                                          
   -0.011576  6a 4b -> 9a 10b                                           
   -0.012387  6a 4b -> 15a 10b                                          
    0.012773  6a 4b -> 26a 10b                                          
   -0.012117  6a 4b -> 9a 16b                                           
   -0.013955  6a 4b -> 15a 16b                                          
    0.016381  6a 4b -> 26a 16b                                          
    0.012144  6a 4b -> 9a 27b                                           
    0.015871  6a 4b -> 15a 27b                                          
   -0.024801  6a 4b -> 26a 27b                                          
   -0.011364  6a 4b -> 38a 27b                                          
   -0.010997  6a 4b -> 26a 39b                                          
   -0.012132  6a 4b -> 38a 39b                                          
   -0.012559  2a 5b -> 35a 34b                                          
    0.010170  4a 6b -> 30a 31b                                          
   -0.010170  6a 4b -> 30a 31b                                          
    0.010190  4a 7a -> 8a 10a                                           
    0.010750  4a 7a -> 8a 16a                                           
   -0.010923  4a 7a -> 8a 27a                                           
   -0.014199  4a 7a -> 25a 27a                                          
    0.010190  6a 7a -> 8a 9a                                            
    0.010750  6a 7a -> 8a 15a                                           
   -0.010923  6a 7a -> 8a 26a                                           
   -0.014199  6a 7a -> 25a 26a                                          
   -0.011527  2a 5a -> 35a 36a                                          
    0.011284  2a 5a -> 54a 55a                                          
    0.010198  4a 6a -> 15a 16a                                          
    0.011669  4a 6a -> 16a 26a                                          
   -0.011669  4a 6a -> 15a 27a                                          
    0.017800  4a 6a -> 26a 27a                                          
    0.020516  4a 6a -> 30a 31a                                          
 
 ************************ 2019-08-14 23:52:56 *************************
                      Normal termination of mrcc.
 **********************************************************************
--- SharcNET Job Epilogue ---
Job completed successfully.
               jobid: 1772544
               resid: 3250090
         exit status: 0
      allocated time: 2205650
           user time: 12526500
         system time: 6371.98
peak rss=16106127360; peak vsz=16864878592 (bytes)
atime=2205650; utime=12526500; stime=6371.98; exit=0
