 --invoking executable--
/project1/nike/cfour_v2.00beta_May2019xnmol_noLABBASIS/bin/xjoda


   *************************************************************************
         <<<     CCCCCC     CCCCCC   |||     CCCCCC     CCCCCC   >>>
       <<<      CCC        CCC       |||    CCC        CCC         >>>
      <<<      CCC        CCC        |||   CCC        CCC            >>>
    <<<        CCC        CCC        |||   CCC        CCC              >>>
      <<<      CCC        CCC        |||   CCC        CCC            >>>
       <<<      CCC        CCC       |||    CCC        CCC         >>>
         <<<     CCCCCC     CCCCCC   |||     CCCCCC     CCCCCC   >>>
   *************************************************************************

     ****************************************************************
     * CFOUR Coupled-Cluster techniques for Computational Chemistry *
     ****************************************************************
 

   Department of Chemistry                Institut fuer Physikalische Chemie
   University of Texas at Austin          Universitaet Mainz
   Austin, TX  78712, USA                 D-55099 Mainz, Germany
 
                       Version 2.00beta
 
                     wob103                                            
                     Sat Jul 20 11:22:58 EDT 2019                      
                     integer*8 version is running
 
********************************************************************************
*                          Input from ZMAT file                                *
********************************************************************************
TITLE                                                                           
Mg 0.0000 0.0000 0.0000                                                         
O  0.0000 0.0000 1.749                                                          
                                                                                
*ACES2(CALC=CCSD(T)                                                             
COORD=CARTESIAN                                                                 
PRINT=4                                                                         
JODA_PRINT=4                                                                    
#INPUT_MRCC=OFF                                                                 
#CC_PROG=MRCC                                                                   
#FROZEN_CORE=ON                                                                 
DROPMO=1>3                                                                      
CONTRACTION=GENERAL                                                             
#CONTRACTION=SEGMENTED                                                          
RELATIVISTIC=OFF                                                                
#EXCITE=EOMEE                                                                   
#ESTATE_CONV=5                                                                  
#ESTATE_SYM=2/2/2/2/2/2/2/2                                                     
XFORM_TOL=18                                                                    
SAVE_INTS=ON                                                                    
SCF_EXPORDER=6                                                                  
SCF_EXPSTART=5                                                                  
#SCF_DAMPING=1000                                                               
SCF_EXTRAPOLATION=ON                                                            
SCF_CONV=11                                                                     
SCF_MAXCYC=9999                                                                 
CC_CONV=5                                                                       
CC_MAXCYC=999                                                                   
T3_EXTRAPOL=ON                                                                  
REFERENCE=ROHF                                                                  
CHARGE=+0                                                                       
MULT=1                                                                          
ABCDTYPE=STANDARD                                                               
#OCCUPATION=3-2-2-0-1-0-0-0/3-1-1-0-1-0-0-0                                     
MEM=20                                                                          
MEM_UNIT=GB                                                                     
BASIS=SPECIAL)                                                                  
                                                                                
MG:def2-TZVPP                                                                   
O:def2-TZVPP                                                                    
                                                                                
********************************************************************************
  @GTFLGS-W, Keyword #INPUT_MRCC not known and is ignored.
  @GTFLGS-W, Keyword #CC_PROG not known and is ignored.
  @GTFLGS-W, Keyword #FROZEN_CORE not known and is ignored.
  @GTFLGS-W, Keyword #CONTRACTION not known and is ignored.
  @GTFLGS-W, Keyword #EXCITE not known and is ignored.
  @GTFLGS-W, Keyword #ESTATE_CONV not known and is ignored.
  @GTFLGS-W, Keyword #ESTATE_SYM not known and is ignored.
  @GTFLGS-W, Keyword #SCF_DAMPING not known and is ignored.
  @GTFLGS-W, Keyword #OCCUPATION not known and is ignored.
    -------------------------------------------------------------------
                    CFOUR Control Parameters 
    -------------------------------------------------------------------
        External           Internal           Value            Units
          Name               Name
    -------------------------------------------------------------------
       ABCDTYPE             IABCDT         STANDARD     [  0]   ***   
       ANHARMONIC           IANHAR         OFF          [  0]   ***   
       ANH_ALGORIT          IANALG         STANDARD     [  0]   ***   
       ANH_DERIVAT          IANDER         SECOND       [  1]   ***   
       ANH_STEPSIZ          ICUBST             50000          x 10-6  
       ANH_SYMMETR          IANHSM         ABELIAN      [  0]   ***   
       AO_LADDERS           IAOLAD         SINGLEPASS   [  1]   ***   
       BASIS                IBASIS         SPECIAL      [  0]   ***   
       BREIT                IBREIT         OFF          [  0]   ***   
       BRUCK_CONV           IBRTOL          10D-  4             ***   
       BRUECKNER            IBRKNR             OFF      [  0]   ***   
       BUFFERSIZE           IBUFFS            600               ***   
       CACHE_RECS           ICHREC             10               ***   
       CALCLEVEL            ICLLVL           CCSD(T)    [ 22]   ***   
       CCORBOPT             ICCORB             OFF      [  0] x 0.01  
       CC_CONV              ICCCNV          10D-  5             ***   
       CC_EXPORDER          ICCEOR              5               ***   
       CC_EXTRAPOL          ICCEXT             DIIS     [  1]   ***   
       CC_MAXCYC            ICCCYC            999              cycles 
       CC_PROGRAM           ICCPRO         VCC          [  0]   ***   
       CHARGE               ICHRGE              0               ***   
       CHOLESKY             ICHOLE         OFF          [  0]   ***   
       CIS_CONV             ICISTL              5               ***   
       COMM_SIZE            IPSIZE            ***               ***   
       CONSTANT             ICONST         OLD          [  1]   ***   
       CONTINUUM            ICONTU         NONE         [  0]   ***   
       CONTRACTION          ICNTYP          GENERAL     [  1]   ***   
       COORDINATES          ICOORD         CARTESIAN    [  1]   ***   
       CPHF_CONVER          ICPHFT          10D- 16             ***   
       CPHF_MAXCYC          ICPHFC             64              cycles 
       CUBIC                ICUBIC         OFF          [  0]   ***   
       CURVILINEAR          ICURVY            OFF       [  0]   ***   
       DBOC                 IDBOC          OFF          [  0]   ***   
       DCT                  IDCT           OFF          [  0]   ***   
       DERIV_LEV            IDRLVL            ZERO      [  0]   ***   
       DIAG_MRCC            IEOMST          10D-  0             ***   
       DIFF_TYPE            IDIFTY         RELAXED      [  0]   ***   
       DIRECT               IDIRCT         OFF          [  0]   ***   
       DROPMO               IDRPMO A   1,  2,  3,
                                   B   1,  2,  3,
       ECP                  IECP           OFF          [  0]   ***   
       EIGENVECTOR          IVEC                1               ***   
       EL_ANHARM            IELANH         OFF          [  0]   ***   
       EOMFOLLOW            IEOMSR         ENERGY       [  0]   ***   
       EOM_MRCC             IMRCCE         NEW          [  1]   ***   
       EOM_NONIT            EOMNON         OFF          [  0]   ***   
       EOM_NSING            IEOMSI          10D-  0             ***   
       EOM_NSTATES          IMRCCD         DAVIDSON     [  0]   ***   
       EOM_NTRIP            IEOMTR          10D-  0             ***   
       EOM_ORDER            IEXORD         ENERGY       [  0]   ***   
       ESTATE_CONV          IEXTOL          10D-  5             ***   
       ESTATE_DIAG          IEXDIG         ITERATIVE    [  0]   ***   
       ESTATE_LOCK          IESLOC         ON           [  1]   ***   
       ESTATE_MAXC          IEXMXC             20               ***   
       ESTATE_PROP          IEXPRP         OFF          [  0]   ***   
       EVAL_HESS            IRECAL              0            # of cyc.
       EXCITATION           IEXCIT              0               ***   
       EXCITE               IEXCIT         NONE         [  0]   ***   
       FCGRADNEW            IFCGNW         OFF          [  0]   ***   
       FC_FIELD             IFINFC              0             x 10-6  
       FD_CALTYPE           IFDCAL         GRADONLY     [  0]   ***   
       FD_PROJECT           IFDPRJ         OFF          [  1]   ***   
       FD_STEPSIZE          IDISFD              0            10-4 bohr
       FD_USEGROUP          IFDGRP         FULL         [  0]   ***   
       FILE_RECSIZ          IFLREC              4096           words  
       FINITE_PERT          IFIPER              0             x 10-6  
       FIXGEOM              IFIXGM         OFF          [  0]   ***   
       FOCK                 IFOCK          AO           [  1]   ***   
       FREQ_ALGORI          IVIALG         STANDARD     [  0]   ***   
       FROZEN_CORE          IFROCO         OFF          [  0]   ***   
       FROZEN_VIRT          IFROVI         OFF          [  0]   ***   
       GAMMA_ABCD           IGABCD         STORE        [  0]   ***   
       GAMMA_ABCI           IGABCI         STORE        [  0]   ***   
       GENBAS_1             IGNBS1              0               ***   
       GENBAS_2             IGNBS2              0               ***   
       GENBAS_3             IGNBS3              0               ***   
       GENBAS_4             IGNBS4              0               ***   
       GEO_CONV             ICONTL              5              H/bohr 
       GEO_MAXCYC           IOPTCY             50               ***   
       GEO_MAXSTEP          IMXSTP            300            millibohr
       GEO_METHOD           INR            SINGLE_POINT [  5]   ***   
       GIAO                 IGIAO          OFF          [  1]   ***   
       GIMIC                IGIMIC         OFF          [  0]   ***   
       GRID                 IGRID          OFF          [  0]   ***   
       GRID_ALGO            IGALGO         SERIAL       [  0]   ***   
       GUESS                IGUESS            MOREAD    [  0]   ***   
       HBAR                 IHBAR              OFF      [  0]   ***   
       HESS_TYPE            IHESTP         SCF          [  0]   ***   
       HF2_FILE             IHF2Fl         USE          [  1]   ***   
       HFSTABILITY          ISTABL         OFF          [  0]   ***   
       INCORE               INCORE             OFF      [  0]   ***   
       INPUT_MRCC           IMRCC          ON           [  1]   ***   
       INTEGRALS            INTTYP             VMOL     [  1]   ***   
       JODA_PRINT           IJPRNT              4               ***   
       LINDEP_TOL           ILINDP              8               ***   
       LINEQ_CONV           IZTACN          10D-  7           cycles  
       LINEQ_EXPOR          ILMAXD              5               ***   
       LINEQ_MAXCY          ILMAXC             50               ***   
       LINEQ_TYPE           ILTYPE         DIIS         [  1]   ***   
       LOCK_ORBOCC          ILOCOC             OFF      [  0]   ***   
       MEMORY_SIZE          IMEMSZ         *********           words  
       MEM_UNIT             IMEMU          GB           [  3]   ***   
       MRCC                 IMRCCC         OFF          [  0]   ***   
       MULTIPLICTY          IMULTP              1               ***   
       NEGEVAL              IDIE             ABORT      [  0]   ***   
       NEWNORM              INEWNO         OFF          [  0]   ***   
       NON-HF               INONHF              ON      [  1]   ***   
       NTOP_TAMP            ITOPT2             15               ***   
       NUC_MODEL            INUCMO         POINT        [  0]   ***   
       OCCUPATION           IOCCU   ESTIMATED BY SCF 
       OPEN-SHELL           IOPEN          SPIN-ORBITAL [  0]   ***   
       ORBITALS             IORBTP         SEMICANONICAL[  1]   ***   
       PARALLEL             IPARAL         ON           [  1]   ***   
       PARA_INT             IPINTS         ON           [  1]   ***   
       PARA_PRINT           IPPRIN              0               ***   
       PERT_ORB             IPTORB         STANDARD     [  0]   ***   
       POINTS               IGRDFD              0               ***   
       PRINT                IPRNT               4               ***   
       PROPS                IPROPS             OFF      [  0]   ***   
       PROP_INTEGR          IINTYP         INTERNAL     [  0]   ***   
       PSI                  IPSI           OFF          [  0]   ***   
       QUARTIC              IQUART         OFF          [  0]   ***   
       RAMAN_INT            IRAMIN         OFF          [  0]   ***   
       RAMAN_ORB            IRAMRE         UNRELAXED    [  0]   ***   
       RDO                  IRDOFM             OFF      [  0]   ***   
       REFERENCE            IREFNC             ROHF     [  2]   ***   
       RELATIVIST           IRELAT         OFF          [  0]   ***   
       RELAX_DENS           IRDENS             OFF      [  0]   ***   
       RESET_FLAGS          IRESET             OFF      [  0]   ***   
       RESTART_CC           ICCRES         OFF          [  0]   ***   
       ROT_EVEC             ROTVEC              0               ***   
       SAVE_INTS            ISVINT              ON      [  1]   ***   
       SCALE_ON             ISTCRT              0               ***   
       SCF_CONV             ISCFCV          10D- 11             ***   
       SCF_DAMPING          IDAMP               0             x 10-3  
       SCF_EXPORDE          IRPPOR              6               ***   
       SCF_EXPSTAR          IRPPLS              5               ***   
       SCF_EXTRAPO          IRPP                ON      [  1]   ***   
       SCF_MAXCYC           ISCFCY            ***              cycles 
       SCF_NOSTOP           ISCFST         OFF          [  0]   ***   
       SCF_PRINT            ISCFPR              0               ***   
       SD_FIELD             IFINSD              0             x 10-6  
       SEQUENCE             ISEQUE         OFF          [  0]   ***   
       SOPERT               IPERSO         OFF          [  0]   ***   
       SPHERICAL            IDFGHI             ON       [  1]   ***   
       SPINORBIT            ISOCAL         OFF          [  0]   ***   
       SPINROTATIO          ISRCON         OFF          [  0]   ***   
       SPIN_FLIP            ISPFLP         OFF          [  0]   ***   
       SPIN_ORBIT           ISPORB         OFF          [  0]   ***   
       SPIN_SCAL            ISCSMP         OFF          [  0]   ***   
       SUBGROUP             ISUBGP         DEFAULT      [  0]   ***   
       SUBGRPAXIS           ISBXYZ         X            [  0]   ***   
       SYMMETRY             ISYM             ON         [  0]   ***   
       SYM_CHECK            ISYMCK         OVERRIDE     [  1]   ***   
       T3_EXTRAPOL          IT3EXT         ON           [  1]   ***   
       TAMP_SUM             IEVERY              5               ***   
       TESTSUITE            ITESTS         OFF          [  0]   ***   
       THERMOCH             ITHERM         OFF          [  0]   ***   
       TOL_CHOLESK          ITOLCH          10D-  4             ***   
       TRANGRAD             IRESRM         OFF          [  0]   ***   
       TRANS_INV            ITRAIN         USE          [  0]   ***   
       TREAT_PERT           ITREAT         SIMULTANEOUS [  0]   ***   
       UIJ_THRESHO          IUIJTH              1               ***   
       UNITS                IUNITS         ANGSTROM     [  0]   ***   
       UNOS                 IUNOS          OFF          [  0]   ***   
       UPDATE_HESS          IHUPDT         ON           [  1]   ***   
       VIBPHASE             ISETPH         STANDARD     [  0]   ***   
       VIBRATION            IVIB              NO        [  0]   ***   
       VIB_ALGORIT          IGEALG         STANDARD     [  0]   ***   
       VNATORB              IVNORB         OFF          [  0]   ***   
       VTRAN                IVTRAN         FULL/PARTIAL [  0]   ***   
       XFIELD               IXEFLD              0             x 10-6  
       XFORM_TOL            IXFTOL          10D- 18             ***   
       YFIELD               IYEFLD              0             x 10-6  
       ZFIELD               IZEFLD              0             x 10-6  
    -------------------------------------------------------------------
  @GETXYZ-I,     2 atoms read from ZMAT.
  1  MG        12    23.98504
  2  O          8    15.99491
  1  MG        12    23.98504
  2  O          8    15.99491
   23.9850423000
   15.9949146300
 After translation to center of mass coordinates 
        0.000000000000    0.000000000000   -1.322295049727
        0.000000000000    0.000000000000    1.982836634920
  Inertia tensor (amu*bohr**2)
  104.82325    0.00000    0.00000
    0.00000  104.82325    0.00000
    0.00000    0.00000    0.00000
    Inertia tensor:
      104.823251844572    0.000000000000    0.000000000000
        0.000000000000  104.823251844572    0.000000000000
        0.000000000000    0.000000000000    0.000000000000
    Principal axis orientation for molecular system: 
        0.000000000000    0.000000000000    1.322295049727
        0.000000000000    0.000000000000   -1.982836634920
    Diagonalized inertia tensor:
      104.823251844572    0.000000000000    0.000000000000
        0.000000000000  104.823251844572    0.000000000000
        0.000000000000    0.000000000000    0.000000000000
    Eigenvectors of inertia tensor: 
        1.000000000000    0.000000000000    0.000000000000
        0.000000000000    1.000000000000    0.000000000000
        0.000000000000    0.000000000000   -1.000000000000
 factor:   60.1997200000000     
   Rotational constants (in cm-1): 
          0.5742973905             0.5742973905
   Rotational constants (in MHz): 
      17217.0050447014         17217.0050447014
  @SYMMETRY-I, Handedness of inertial frame:-1.00000
  @SYMMETRY-I, Sense of inertial frame y-axis will be changed.
  @SYMMETRY-I, The symmetry group is 2-fold degenerate.
  @SYMMETRY-I, The molecule belongs to a point group with doubly degenerate representations.
  @SYMMETRY-I, The molecule is linear.
   Principal axis orientation for molecule:
        0.000000000000    0.000000000000    1.322295049727
        0.000000000000    0.000000000000   -1.982836634920
   Rotation about  3 is a valid symmetry operation 
   Reflection in plane  2 is a valid symmetry operation.
   Reflection in plane  1 is a valid symmetry operation.
  Symmetry bits:    3   4   0
********************************************************************************
   The full molecular point group is CXv .
   The largest Abelian subgroup of the full molecular point group is C2v .
   The computational point group is C2v .
********************************************************************************
 ----------------------------------------------------------------
 Z-matrix   Atomic            Coordinates (in bohr)
  Symbol    Number           X              Y              Z
 ----------------------------------------------------------------
     MG       12         0.00000000     0.00000000     1.32229505
     O         8         0.00000000     0.00000000    -1.98283663
 ----------------------------------------------------------------
   Interatomic distance matrix (Angstroms) 
 
                 MG            O    
                [ 1]        [ 2]
  MG   [ 1]     0.00000
  O    [ 2]     1.74900     0.00000
  Inertia tensor (amu*bohr**2)
  104.82325    0.00000    0.00000
    0.00000  104.82325    0.00000
    0.00000    0.00000    0.00000
   Rotational constants (in cm-1): 
          0.5742973905             0.0000000000
   Rotational constants (in MHz): 
      17217.0050447014             0.0000000000
  @GTFLGS-W, Keyword #INPUT_MRCC not known and is ignored.
  @GTFLGS-W, Keyword #CC_PROG not known and is ignored.
  @GTFLGS-W, Keyword #FROZEN_CORE not known and is ignored.
  @GTFLGS-W, Keyword #CONTRACTION not known and is ignored.
  @GTFLGS-W, Keyword #EXCITE not known and is ignored.
  @GTFLGS-W, Keyword #ESTATE_CONV not known and is ignored.
  @GTFLGS-W, Keyword #ESTATE_SYM not known and is ignored.
  @GTFLGS-W, Keyword #SCF_DAMPING not known and is ignored.
  @GTFLGS-W, Keyword #OCCUPATION not known and is ignored.
  There are   63 basis functions.
 @GEOPT-W, Archive file not created for single-point calculation.
  @CHECKOUT-I, Total execution time (CPU/WALL):        0.37/       0.40 seconds.
--executable xjoda finished with status     0 in        0.42 seconds (walltime).
 --invoking executable--
/project1/nike/cfour_v2.00beta_May2019xnmol_noLABBASIS/bin/xvmol
Running with 4 threads/proc

********************************************************************************
                   INPUT FROM MOL FILE                                          
********************************************************************************
INTGRL        1    0    1    0    0    0    0    0    0
         *** CFOUR Program System (Release V0.1) *** 
TITLE
    2    2 X  Y       0.10E-08              0    0
   9999.00      3.00
         12.00000000    1    3    1    1    1
MG#1   0.000000000000000   0.000000000000000   1.322295049727271
   14    5
   31438.3495550000       6.091231132599999E-004  0.000000000000000E+000
  0.000000000000000E+000  0.000000000000000E+000  0.000000000000000E+000
   4715.51533540000       4.706619646500000E-003  0.000000000000000E+000
  0.000000000000000E+000  0.000000000000000E+000  0.000000000000000E+000
   1073.16292470000       2.413582065700000E-002  0.000000000000000E+000
  0.000000000000000E+000  0.000000000000000E+000  0.000000000000000E+000
   303.572387680000       9.362895983400001E-002  0.000000000000000E+000
  0.000000000000000E+000  0.000000000000000E+000  0.000000000000000E+000
   98.6262510420000       0.266467420930000       0.000000000000000E+000
  0.000000000000000E+000  0.000000000000000E+000  0.000000000000000E+000
   34.9438084170000       0.478909299170000       0.000000000000000E+000
  0.000000000000000E+000  0.000000000000000E+000  0.000000000000000E+000
   12.8597851990000       0.336984902860000       0.000000000000000E+000
  0.000000000000000E+000  0.000000000000000E+000  0.000000000000000E+000
   64.8769130040000       0.000000000000000E+000  1.918088930700000E-002
  0.000000000000000E+000  0.000000000000000E+000  0.000000000000000E+000
   19.7255207770000       0.000000000000000E+000  9.091370439200000E-002
  0.000000000000000E+000  0.000000000000000E+000  0.000000000000000E+000
   2.89518043390000       0.000000000000000E+000 -0.395637561250000     
  0.000000000000000E+000  0.000000000000000E+000  0.000000000000000E+000
   1.19604547100000       0.000000000000000E+000  0.000000000000000E+000
   1.68276033730000       0.000000000000000E+000  0.000000000000000E+000
  0.543294511560000       0.000000000000000E+000  0.000000000000000E+000
  0.521410919540000       0.000000000000000E+000  0.000000000000000E+000
  0.100991040920000       0.000000000000000E+000  0.000000000000000E+000
  0.000000000000000E+000   1.00000000000000       0.000000000000000E+000
  3.686572808500000E-002  0.000000000000000E+000  0.000000000000000E+000
  0.000000000000000E+000  0.000000000000000E+000   1.00000000000000     
    8    4
   179.871896120000       5.379954901800000E-003  0.000000000000000E+000
  0.000000000000000E+000  0.000000000000000E+000
   42.1200693760000       3.931801409800000E-002  0.000000000000000E+000
  0.000000000000000E+000  0.000000000000000E+000
   13.1205030320000       0.157401294760000       0.000000000000000E+000
  0.000000000000000E+000  0.000000000000000E+000
   4.62575036090000       0.359190941280000       0.000000000000000E+000
  0.000000000000000E+000  0.000000000000000E+000
   1.66952110160000       0.455333793100000       0.000000000000000E+000
  0.000000000000000E+000  0.000000000000000E+000
  0.585510121050000       0.000000000000000E+000  0.219864329100000     
  0.000000000000000E+000  0.000000000000000E+000
  0.189147961950000       0.000000000000000E+000  0.000000000000000E+000
   1.00000000000000       0.000000000000000E+000
  5.376875518700000E-002  0.000000000000000E+000  0.000000000000000E+000
  0.000000000000000E+000   1.00000000000000     
    3    3
   3.44400000000000        1.00000000000000       0.000000000000000E+000
  0.000000000000000E+000
  0.290000000000000       0.000000000000000E+000   1.00000000000000     
  0.000000000000000E+000
  7.000000000000001E-002  0.000000000000000E+000  0.000000000000000E+000
   1.00000000000000     
          8.00000000    1    4    1    1    1    1
O #2   0.000000000000000   0.000000000000000  -1.982836634920458
   11    5
   27032.3826310000       2.172630246500000E-004  0.000000000000000E+000
  0.000000000000000E+000  0.000000000000000E+000  0.000000000000000E+000
   4052.38713920000       1.683866219900000E-003  0.000000000000000E+000
  0.000000000000000E+000  0.000000000000000E+000  0.000000000000000E+000
   922.327227100000       8.739561626499999E-003  0.000000000000000E+000
  0.000000000000000E+000  0.000000000000000E+000  0.000000000000000E+000
   261.240709890000       3.523996880800000E-002  0.000000000000000E+000
  0.000000000000000E+000  0.000000000000000E+000  0.000000000000000E+000
   85.3546413510000       0.111535191150000       0.000000000000000E+000
  0.000000000000000E+000  0.000000000000000E+000  0.000000000000000E+000
   31.0350352450000       0.255889539610000       0.000000000000000E+000
  0.000000000000000E+000  0.000000000000000E+000  0.000000000000000E+000
   12.2608607280000       0.000000000000000E+000  0.397687309010000     
  0.000000000000000E+000  0.000000000000000E+000  0.000000000000000E+000
   4.99870760050000       0.000000000000000E+000  0.246278494300000     
  0.000000000000000E+000  0.000000000000000E+000  0.000000000000000E+000
   1.17031081580000       0.000000000000000E+000  0.000000000000000E+000
   1.00000000000000       0.000000000000000E+000  0.000000000000000E+000
  0.464747409940000       0.000000000000000E+000  0.000000000000000E+000
  0.000000000000000E+000   1.00000000000000       0.000000000000000E+000
  0.185045363570000       0.000000000000000E+000  0.000000000000000E+000
  0.000000000000000E+000  0.000000000000000E+000   1.00000000000000     
    6    3
   63.2749548010000       6.068510341800000E-003  0.000000000000000E+000
  0.000000000000000E+000
   14.6270493790000       4.191257582400000E-002  0.000000000000000E+000
  0.000000000000000E+000
   4.45012234560000       0.161538410880000       0.000000000000000E+000
  0.000000000000000E+000
   1.52757996470000       0.357069513110000       0.000000000000000E+000
  0.000000000000000E+000
  0.529351179430000       0.000000000000000E+000  0.447942075020000     
  0.000000000000000E+000
  0.174784212700000       0.000000000000000E+000  0.000000000000000E+000
  0.244460696630000     
    2    2
   2.31400000000000        1.00000000000000       0.000000000000000E+000
  0.645000000000000       0.000000000000000E+000   1.00000000000000     
    1    1
   1.42800000000000        1.00000000000000     
FINISH
                                                                                
********************************************************************************

ONE- AND TWO-ELECTRON INTEGRALS OVER SYMMETRY-ADAPTED AOS ARE CALCULATED.


    BASIS FUNCTION NOT NORMALIZED:
    CENTER (AS ORDERED IN MOL FILE): ?
    ANGULAR MOMENTUM TYPE:           S
    OFFSET WITHIN ANGULAR MOMENTUM:  1
    <CHI|CHI>:                       1.1094291478

    BASIS FUNCTION NOT NORMALIZED:
    CENTER (AS ORDERED IN MOL FILE): ?
    ANGULAR MOMENTUM TYPE:           S
    OFFSET WITHIN ANGULAR MOMENTUM:  2
    <CHI|CHI>:                       0.1246817846

    BASIS FUNCTION NOT NORMALIZED:
    CENTER (AS ORDERED IN MOL FILE): ?
    ANGULAR MOMENTUM TYPE:           S
    OFFSET WITHIN ANGULAR MOMENTUM:  3
    <CHI|CHI>:                       4.6695378414

    BASIS FUNCTION NOT NORMALIZED:
    CENTER (AS ORDERED IN MOL FILE): ?
    ANGULAR MOMENTUM TYPE:           P
    OFFSET WITHIN ANGULAR MOMENTUM:  1
    <CHI|CHI>:                       0.7497556981

    BASIS FUNCTION NOT NORMALIZED:
    CENTER (AS ORDERED IN MOL FILE): ?
    ANGULAR MOMENTUM TYPE:           P
    OFFSET WITHIN ANGULAR MOMENTUM:  2
    <CHI|CHI>:                       0.0483403232

    BASIS FUNCTION NOT NORMALIZED:
    CENTER (AS ORDERED IN MOL FILE): ?
    ANGULAR MOMENTUM TYPE:           S
    OFFSET WITHIN ANGULAR MOMENTUM:  1
    <CHI|CHI>:                       0.1441333881

    BASIS FUNCTION NOT NORMALIZED:
    CENTER (AS ORDERED IN MOL FILE): ?
    ANGULAR MOMENTUM TYPE:           S
    OFFSET WITHIN ANGULAR MOMENTUM:  2
    <CHI|CHI>:                       0.3880597184

    BASIS FUNCTION NOT NORMALIZED:
    CENTER (AS ORDERED IN MOL FILE): ?
    ANGULAR MOMENTUM TYPE:           P
    OFFSET WITHIN ANGULAR MOMENTUM:  1
    <CHI|CHI>:                       0.2549621911

    BASIS FUNCTION NOT NORMALIZED:
    CENTER (AS ORDERED IN MOL FILE): ?
    ANGULAR MOMENTUM TYPE:           P
    OFFSET WITHIN ANGULAR MOMENTUM:  2
    <CHI|CHI>:                       0.2006521026

    BASIS FUNCTION NOT NORMALIZED:
    CENTER (AS ORDERED IN MOL FILE): ?
    ANGULAR MOMENTUM TYPE:           P
    OFFSET WITHIN ANGULAR MOMENTUM:  3
    <CHI|CHI>:                       0.0597610322
CARTESIAN GAUSSIANS ARE USED.

2 TYPES OF ATOMS
2 SYMMETRY OPERATIONS

REFLECTION IN THE YZ-PLANE
REFLECTION IN THE XZ-PLANE

INTEGRALS LESS THAN 1e-14 ARE NEGLECTED.

ATOMIC TYPE NUMBER 1:
---------------------

    NUCLEAR CHARGE:                       12
    NUMBER OF SYMMETRY INDEPENDENT ATOMS: 1
    HIGHEST ORBITAL TYPE:                 D

    1 GROUPS OF CGTOS OF S TYPE
    1 GROUPS OF CGTOS OF P TYPE
    1 GROUPS OF CGTOS OF D TYPE

    NUCLEAR COORDINATES (IN A.U.) ARE:

    MG#1   0.000000000000000   0.000000000000000   1.322295049727271

ATOMIC TYPE NUMBER 2:
---------------------

    NUCLEAR CHARGE:                       8
    NUMBER OF SYMMETRY INDEPENDENT ATOMS: 1
    HIGHEST ORBITAL TYPE:                 F

    1 GROUPS OF CGTOS OF S TYPE
    1 GROUPS OF CGTOS OF P TYPE
    1 GROUPS OF CGTOS OF D TYPE
    1 GROUPS OF CGTOS OF F TYPE

    NUCLEAR COORDINATES (IN A.U.) ARE:

    O #2   0.000000000000000   0.000000000000000  -1.982836634920458

INTERNUCLEAR DISTANCES (A):

    FOR ATOM MG#1 (COORDINATES:   0.00000   0.00000   1.32230)

    O #2 1 DISTANCE IS   1.74900

    FOR ATOM O #2 (COORDINATES:   0.00000   0.00000  -1.98284)


GROUP MULTIPLICATION TABLE:

    1 2 3 4
    2 1 4 3
    3 4 1 2
    4 3 2 1

GAUSSIAN BASIS INFORMATION:

ATOM                EXPONENT       COEFFICIENTS

MG#1  1  S   
                  1   31438.349555   0.9731061   0.0000000   0.0000000   0.0000000   0.0000000
                  2    4715.515335   1.8122424   0.0000000   0.0000000   0.0000000   0.0000000
                  3    1073.162925   3.0621159   0.0000000   0.0000000   0.0000000   0.0000000
                  4     303.572388   4.6075197   0.0000000   0.0000000   0.0000000   0.0000000
                  5      98.626251   5.6428541   0.0000000   0.0000000   0.0000000   0.0000000
                  6      34.943808   4.6573755   0.0000000   0.0000000   0.0000000   0.0000000
                  7      12.859785   1.5484459   0.0000000   0.0000000   0.0000000   0.0000000
                  8      64.876913   0.0000000   0.8850034   0.0000000   0.0000000   0.0000000
                  9      19.725521   0.0000000   1.7175496   0.0000000   0.0000000   0.0000000
                 10       2.895180   0.0000000  -1.7724044   0.0000000   0.0000000   0.0000000
                 11       1.196045   0.0000000   0.0000000   0.6347551   0.0000000   0.0000000
                 12       0.543295   0.0000000   0.0000000   0.1088253   0.0000000   0.0000000
                 13       0.100991   0.0000000   0.0000000   0.0000000   0.1276798   0.0000000
                 14       0.036866   0.0000000   0.0000000   0.0000000   0.0000000   0.0599622

MG#1  1  X   
                 15     179.871896   5.8339537   0.0000000   0.0000000   0.0000000
                 16      42.120069   6.9451739   0.0000000   0.0000000   0.0000000
                 17      13.120503   6.4703326   0.0000000   0.0000000   0.0000000
                 18       4.625750   4.0112831   0.0000000   0.0000000   0.0000000
                 19       1.669521   1.4224925   0.0000000   0.0000000   0.0000000
                 20       0.585510   0.0000000   0.7300592   0.0000000   0.0000000
                 21       0.189148   0.0000000   0.0000000   0.1778043   0.0000000
                 22       0.053769   0.0000000   0.0000000   0.0000000   0.0369065

MG#1  1  Y   
                 23     179.871896   5.8339537   0.0000000   0.0000000   0.0000000
                 24      42.120069   6.9451739   0.0000000   0.0000000   0.0000000
                 25      13.120503   6.4703326   0.0000000   0.0000000   0.0000000
                 26       4.625750   4.0112831   0.0000000   0.0000000   0.0000000
                 27       1.669521   1.4224925   0.0000000   0.0000000   0.0000000
                 28       0.585510   0.0000000   0.7300592   0.0000000   0.0000000
                 29       0.189148   0.0000000   0.0000000   0.1778043   0.0000000
                 30       0.053769   0.0000000   0.0000000   0.0000000   0.0369065

MG#1  1  Z   
                 31     179.871896   5.8339537   0.0000000   0.0000000   0.0000000
                 32      42.120069   6.9451739   0.0000000   0.0000000   0.0000000
                 33      13.120503   6.4703326   0.0000000   0.0000000   0.0000000
                 34       4.625750   4.0112831   0.0000000   0.0000000   0.0000000
                 35       1.669521   1.4224925   0.0000000   0.0000000   0.0000000
                 36       0.585510   0.0000000   0.7300592   0.0000000   0.0000000
                 37       0.189148   0.0000000   0.0000000   0.1778043   0.0000000
                 38       0.053769   0.0000000   0.0000000   0.0000000   0.0369065

MG#1  1  XX  
                 39       3.444000  24.8216463   0.0000000   0.0000000
                 40       0.290000   0.0000000   0.3267131   0.0000000
                 41       0.070000   0.0000000   0.0000000   0.0271576

MG#1  1  XY  
                 42       3.444000  24.8216463   0.0000000   0.0000000
                 43       0.290000   0.0000000   0.3267131   0.0000000
                 44       0.070000   0.0000000   0.0000000   0.0271576

MG#1  1  XZ  
                 45       3.444000  24.8216463   0.0000000   0.0000000
                 46       0.290000   0.0000000   0.3267131   0.0000000
                 47       0.070000   0.0000000   0.0000000   0.0271576

MG#1  1  YY  
                 48       3.444000  24.8216463   0.0000000   0.0000000
                 49       0.290000   0.0000000   0.3267131   0.0000000
                 50       0.070000   0.0000000   0.0000000   0.0271576

MG#1  1  YZ  
                 51       3.444000  24.8216463   0.0000000   0.0000000
                 52       0.290000   0.0000000   0.3267131   0.0000000
                 53       0.070000   0.0000000   0.0000000   0.0271576

MG#1  1  ZZ  
                 54       3.444000  24.8216463   0.0000000   0.0000000
                 55       0.290000   0.0000000   0.3267131   0.0000000
                 56       0.070000   0.0000000   0.0000000   0.0271576

O #2  1  S   
                 57   27032.382631   0.8598582   0.0000000   0.0000000   0.0000000   0.0000000
                 58    4052.387139   1.6055306   0.0000000   0.0000000   0.0000000   0.0000000
                 59     922.327227   2.7458779   0.0000000   0.0000000   0.0000000   0.0000000
                 60     261.240710   4.2987674   0.0000000   0.0000000   0.0000000   0.0000000
                 61      85.354641   5.8797663   0.0000000   0.0000000   0.0000000   0.0000000
                 62      31.035035   6.3163983   0.0000000   0.0000000   0.0000000   0.0000000
                 63      12.260861   0.0000000   2.9812148   0.0000000   0.0000000   0.0000000
                 64       4.998708   0.0000000   0.9419560   0.0000000   0.0000000   0.0000000
                 65       1.170311   0.0000000   0.0000000   0.8019292   0.0000000   0.0000000
                 66       0.464747   0.0000000   0.0000000   0.0000000   0.4011648   0.0000000
                 67       0.185045   0.0000000   0.0000000   0.0000000   0.0000000   0.2010799

O #2  1  X   
                 68      63.274955   3.0572017   0.0000000   0.0000000
                 69      14.627049   3.3844839   0.0000000   0.0000000
                 70       4.450122   2.9474262   0.0000000   0.0000000
                 71       1.527580   1.7118271   0.0000000   0.0000000
                 72       0.529351   0.0000000   0.6436058   0.0000000
                 73       0.174784   0.0000000   0.0000000   0.1610897

O #2  1  Y   
                 74      63.274955   3.0572017   0.0000000   0.0000000
                 75      14.627049   3.3844839   0.0000000   0.0000000
                 76       4.450122   2.9474262   0.0000000   0.0000000
                 77       1.527580   1.7118271   0.0000000   0.0000000
                 78       0.529351   0.0000000   0.6436058   0.0000000
                 79       0.174784   0.0000000   0.0000000   0.1610897

O #2  1  Z   
                 80      63.274955   3.0572017   0.0000000   0.0000000
                 81      14.627049   3.3844839   0.0000000   0.0000000
                 82       4.450122   2.9474262   0.0000000   0.0000000
                 83       1.527580   1.7118271   0.0000000   0.0000000
                 84       0.529351   0.0000000   0.6436058   0.0000000
                 85       0.174784   0.0000000   0.0000000   0.1610897

O #2  1  XX  
                 86       2.314000  12.3767311   0.0000000
                 87       0.645000   0.0000000   1.3234258

O #2  1  XY  
                 88       2.314000  12.3767311   0.0000000
                 89       0.645000   0.0000000   1.3234258

O #2  1  XZ  
                 90       2.314000  12.3767311   0.0000000
                 91       0.645000   0.0000000   1.3234258

O #2  1  YY  
                 92       2.314000  12.3767311   0.0000000
                 93       0.645000   0.0000000   1.3234258

O #2  1  YZ  
                 94       2.314000  12.3767311   0.0000000
                 95       0.645000   0.0000000   1.3234258

O #2  1  ZZ  
                 96       2.314000  12.3767311   0.0000000
                 97       0.645000   0.0000000   1.3234258

O #2  1  F300
                 98       1.428000  12.7097950

O #2  1  F210
                 99       1.428000  12.7097950

O #2  1  F201
                100       1.428000  12.7097950

O #2  1  F120
                101       1.428000  12.7097950

O #2  1  F111
                102       1.428000  12.7097950

O #2  1  F102
                103       1.428000  12.7097950

O #2  1  F030
                104       1.428000  12.7097950

O #2  1  F021
                105       1.428000  12.7097950

O #2  1  F012
                106       1.428000  12.7097950

O #2  1  F003
                107       1.428000  12.7097950

SYMMETRY TRANSFORMATION INTO 63 SYMMETRY-ADAPTED BASIS FUNCTIONS

    IRREDUCIBLE REPRESENTATION NUMBER 1

    1    1 MG#1 S      1   1.0
    2    2 MG#1 S      2   1.0
    3    3 MG#1 S      3   1.0
    4    4 MG#1 S      4   1.0
    5    5 MG#1 S      5   1.0
    6    6 MG#1 Z     14   1.0
    7    7 MG#1 Z     15   1.0
    8    8 MG#1 Z     16   1.0
    9    9 MG#1 Z     17   1.0
   10   10 MG#1 XX    18  -1.0  27  -1.0  33   2.0
   11   11 MG#1 XX    19  -1.0  28  -1.0  34   2.0
   12   12 MG#1 XX    20  -1.0  29  -1.0  35   2.0
   13   13 MG#1 YY    18   1.0  27  -1.0
   14   14 MG#1 YY    19   1.0  28  -1.0
   15   15 MG#1 YY    20   1.0  29  -1.0
   16   16 MG#1 ZZ    36   1.0
   17   17 MG#1 ZZ    37   1.0
   18   18 MG#1 ZZ    38   1.0
   19   19 O #2 S     39   1.0
   20   20 O #2 S     40   1.0
   21   21 O #2 S     47   1.0
   22   22 O #2 S     48   1.0
   23   23 O #2 S     49   1.0
   24   24 O #2 Z     50  -1.0  56  -1.0  60   2.0
   25   25 O #2 Z     51  -1.0  57  -1.0  61   2.0
   26   26 O #2 Z     50   1.0  56  -1.0
   27   27 O #2 XX    51   1.0  57  -1.0
   28   28 O #2 XX    64  -3.0  69  -3.0  71   2.0
   29   29 O #2 YY    64   1.0  69  -1.0
   30   30 O #2 YY     6   1.0
   31   31 O #2 ZZ     7   1.0
   32   32 O #2 ZZ     8   1.0
   33   33 O #2 F201   9   1.0
   34   34 O #2 F021  24   1.0
   35   35 O #2 F003  25   1.0

    IRREDUCIBLE REPRESENTATION NUMBER 2

   36    1 MG#1 X     26   1.0
   37    2 MG#1 X     41   1.0
   38    3 MG#1 X     42   1.0
   39    4 MG#1 X     43   1.0
   40    5 MG#1 XZ    54   1.0
   41    6 MG#1 XZ    55   1.0
   42    7 MG#1 XZ    62  -1.0  65  -1.0  67   4.0
   43    8 O #2 X     62   1.0  65  -3.0
   44    9 O #2 X     10   1.0
   45   10 O #2 X     11   1.0
   46   11 O #2 XZ    12   1.0
   47   12 O #2 XZ    13   1.0
   48   13 O #2 F300  30   1.0
   49   14 O #2 F120  31   1.0
   50   15 O #2 F102  32   1.0

    IRREDUCIBLE REPRESENTATION NUMBER 3

   51    1 MG#1 Y     44   1.0
   52    2 MG#1 Y     45   1.0
   53    3 MG#1 Y     46   1.0
   54    4 MG#1 Y     58   1.0
   55    5 MG#1 YZ    59   1.0
   56    6 MG#1 YZ    63  -1.0  68  -1.0  70   4.0
   57    7 MG#1 YZ    63   3.0  68  -1.0
   58    8 O #2 Y     21   1.0
   59    9 O #2 Y     22   1.0
   60   10 O #2 Y     23   1.0
   61   11 O #2 YZ    52   1.0
   62   12 O #2 YZ    53   1.0
   63   13 O #2 F210  66   1.0
   64   14 O #2 F030
   65   15 O #2 F012

    IRREDUCIBLE REPRESENTATION NUMBER 4

   66    1 MG#1 XY  
   67    2 MG#1 XY  
   68    3 MG#1 XY  
   69    4 O #2 XY  
   70    5 O #2 XY  
   71    6 O #2 F111

NUCLEAR REPULSION ENERGY:   29.0457413379 A.U.

One-electron integrals took 0.012284 seconds

  @TWOEL-I,      59209 INTEGRALS OF SYMMETRY TYPE  I I I I
  @TWOEL-I,     174627 INTEGRALS OF SYMMETRY TYPE  I J I J
  @TWOEL-I,      97347 INTEGRALS OF SYMMETRY TYPE  I I J J
  @TWOEL-I,      89294 INTEGRALS OF SYMMETRY TYPE  I J K L
  @TWOEL-I, TOTAL NUMBER OF 2-E INTEGRALS     420477

Two-electron integrals took 1.310736 seconds

Nuclear repulsion energy: 29.045741337907
--executable xvmol finished with status     0 in        1.47 seconds (walltime).
 --invoking executable--
/project1/nike/cfour_v2.00beta_May2019xnmol_noLABBASIS/bin/xvmol2ja
--executable xvmol2ja finished with status     0 in        0.01 seconds (walltime).
 --invoking executable--
/project1/nike/cfour_v2.00beta_May2019xnmol_noLABBASIS/bin/xvscf
  There are   63 functions in the AO basis.

  There are 4 irreducible representations.

       Irrep        # of functions
         1                 29
         2                 14
         3                 14
         4                  6


  Parameters for SCF calculation: 
        SCF reference function: ROHF  
  Maximum number of iterations: 9999
     Full symmetry point group: CXv 
     Computational point group: C2v 
        Initial density matrix: CORE                   
     SCF convergence tolerance: 10**(-11)
  DIIS convergence acceleration:  ON
          Latest start for DIIS:   5
                     DIIS order:   6

  Memory information:     215453 words required.
  Fock matrices are constructed from AO integral file.
 @GETMEM-I,  Allocated       1 MB of main memory.
  Initialization and symmetry analysis required      0.002 seconds.

  @INITGES-I, Occupancies from core Hamiltonian:

          Alpha population by irrep:   6    2    2    0
           Beta population by irrep:   6    2    2    0


 total no. of electrons in initial guess :  0.000000000000000E+000
 total no. of electrons in initial guess :  0.000000000000000E+000
  --------------------------------------------------------------------
  Iteration         Total Energy            Largest Density Difference
  --------------------------------------------------------------------
       0            29.045741337907380              0.0000000000D+00
   current occupation vector 
     6  2  2  0
     6  2  2  0
  processed                  59209  ao basis integrals from 
                    99  buffers.
  processed                  97347  ao basis integrals from 
                   163  buffers.
  processed                 174627  ao basis integrals from 
                   292  buffers.
       1          -257.072966612656899              0.1590936585D+01
   current occupation vector 
     6  2  2  0
     6  2  2  0
  processed                  59209  ao basis integrals from 
                    99  buffers.
  processed                  97347  ao basis integrals from 
                   163  buffers.
  processed                 174627  ao basis integrals from 
                   292  buffers.
       2          -259.016002488783556              0.1584915476D+01
   current occupation vector 
     6  2  2  0
     6  2  2  0
  processed                  59209  ao basis integrals from 
                    99  buffers.
  processed                  97347  ao basis integrals from 
                   163  buffers.
  processed                 174627  ao basis integrals from 
                   292  buffers.
       3          -268.078877906608511              0.7310983246D+00
   current occupation vector 
     6  2  2  0
     6  2  2  0
  processed                  59209  ao basis integrals from 
                    99  buffers.
  processed                  97347  ao basis integrals from 
                   163  buffers.
  processed                 174627  ao basis integrals from 
                   292  buffers.
       4          -259.595452554331359              0.7387259956D+00
   current occupation vector 
     6  2  2  0
     6  2  2  0
 
 sum over diagonal and offdiagdiagonal of C(T)*S*C for irrep
                     1
  1.344480082821065E-013  1.987459975711589E-013
 reorthoganalization of MOs is carried out
 sum over diagonal and offdiagdiagonal of C(T)*S*C for irrep
                     1
 -9.769962616701378E-015  4.256371568575561E-015
 
 sum over diagonal and offdiagdiagonal of C(T)*S*C for irrep
                     2
  6.117328865684613E-014 -5.570543561602720E-014
 reorthoganalization of MOs is carried out
 sum over diagonal and offdiagdiagonal of C(T)*S*C for irrep
                     2
 -8.881784197001252E-016  7.869442182180397E-016
 
 sum over diagonal and offdiagdiagonal of C(T)*S*C for irrep
                     3
  6.861178292183467E-014 -4.656460347945078E-014
 reorthoganalization of MOs is carried out
 sum over diagonal and offdiagdiagonal of C(T)*S*C for irrep
                     3
  1.443289932012704E-015  4.974095103634427E-016
 
 sum over diagonal and offdiagdiagonal of C(T)*S*C for irrep
                     4
  1.754152378907747E-014 -4.100845639627704E-015
 reorthoganalization of MOs is carried out
 sum over diagonal and offdiagdiagonal of C(T)*S*C for irrep
                     4
  0.000000000000000E+000 -2.434406571726749E-016
  processed                  59209  ao basis integrals from 
                    99  buffers.
  processed                  97347  ao basis integrals from 
                   163  buffers.
  processed                 174627  ao basis integrals from 
                   292  buffers.
       5          -268.067876998404699              0.7353639985D+00
   current occupation vector 
     6  2  2  0
     6  2  2  0
  processed                  59209  ao basis integrals from 
                    99  buffers.
  processed                  97347  ao basis integrals from 
                   163  buffers.
  processed                 174627  ao basis integrals from 
                   292  buffers.
       6          -270.453703905294503              0.2777731799D+00
   current occupation vector 
     6  2  2  0
     6  2  2  0
  processed                  59209  ao basis integrals from 
                    99  buffers.
  processed                  97347  ao basis integrals from 
                   163  buffers.
  processed                 174627  ao basis integrals from 
                   292  buffers.
       7          -272.889045844398652              0.2279396972D+00
   current occupation vector 
     6  2  2  0
     6  2  2  0
  processed                  59209  ao basis integrals from 
                    99  buffers.
  processed                  97347  ao basis integrals from 
                   163  buffers.
  processed                 174627  ao basis integrals from 
                   292  buffers.
       8          -274.022373922514873              0.1111728853D+00
   current occupation vector 
     6  2  2  0
     6  2  2  0
  processed                  59209  ao basis integrals from 
                    99  buffers.
  processed                  97347  ao basis integrals from 
                   163  buffers.
  processed                 174627  ao basis integrals from 
                   292  buffers.
       9          -274.360116151771479              0.1370650394D+00
   current occupation vector 
     6  2  2  0
     6  2  2  0
 
 sum over diagonal and offdiagdiagonal of C(T)*S*C for irrep
                     1
  2.653433028854124E-014  2.533670325391775E-014
 reorthoganalization of MOs is carried out
 sum over diagonal and offdiagdiagonal of C(T)*S*C for irrep
                     1
 -5.995204332975845E-015 -6.323719744835978E-015
 
 sum over diagonal and offdiagdiagonal of C(T)*S*C for irrep
                     2
  3.719247132494274E-014  1.077905912179224E-014
 reorthoganalization of MOs is carried out
 sum over diagonal and offdiagdiagonal of C(T)*S*C for irrep
                     2
 -8.881784197001252E-016 -8.119396774152340E-016
 
 sum over diagonal and offdiagdiagonal of C(T)*S*C for irrep
                     3
  4.962696920074450E-014  4.187435369128479E-015
 reorthoganalization of MOs is carried out
 sum over diagonal and offdiagdiagonal of C(T)*S*C for irrep
                     3
  4.440892098500626E-016  1.358990909975093E-017
 
 sum over diagonal and offdiagdiagonal of C(T)*S*C for irrep
                     4
 -7.549516567451064E-015  1.068236236704471E-015
 reorthoganalization of MOs is carried out
 sum over diagonal and offdiagdiagonal of C(T)*S*C for irrep
                     4
  0.000000000000000E+000  1.955943070811213E-016
  processed                  59209  ao basis integrals from 
                    99  buffers.
  processed                  97347  ao basis integrals from 
                   163  buffers.
  processed                 174627  ao basis integrals from 
                   292  buffers.
      10          -274.369649448911559              0.4228686538D-01
   current occupation vector 
     6  2  2  0
     6  2  2  0
  processed                  59209  ao basis integrals from 
                    99  buffers.
  processed                  97347  ao basis integrals from 
                   163  buffers.
  processed                 174627  ao basis integrals from 
                   292  buffers.
      11          -274.372004721119197              0.2419414704D-01
   current occupation vector 
     6  2  2  0
     6  2  2  0
  processed                  59209  ao basis integrals from 
                    99  buffers.
  processed                  97347  ao basis integrals from 
                   163  buffers.
  processed                 174627  ao basis integrals from 
                   292  buffers.
      12          -274.373175968508349              0.1292681933D-01
   current occupation vector 
     6  2  2  0
     6  2  2  0
  processed                  59209  ao basis integrals from 
                    99  buffers.
  processed                  97347  ao basis integrals from 
                   163  buffers.
  processed                 174627  ao basis integrals from 
                   292  buffers.
      13          -274.374528593363834              0.3610491712D-01
   current occupation vector 
     6  2  2  0
     6  2  2  0
  processed                  59209  ao basis integrals from 
                    99  buffers.
  processed                  97347  ao basis integrals from 
                   163  buffers.
  processed                 174627  ao basis integrals from 
                   292  buffers.
      14          -274.374644091547225              0.9989824441D-02
   current occupation vector 
     6  2  2  0
     6  2  2  0
 
 sum over diagonal and offdiagdiagonal of C(T)*S*C for irrep
                     1
 -7.660538869913580E-015 -1.469958138324063E-014
 reorthoganalization of MOs is carried out
 sum over diagonal and offdiagdiagonal of C(T)*S*C for irrep
                     1
  1.110223024625157E-015 -6.358625340274624E-015
 
 sum over diagonal and offdiagdiagonal of C(T)*S*C for irrep
                     2
  3.319566843629218E-014  4.575882493613407E-015
 reorthoganalization of MOs is carried out
 sum over diagonal and offdiagdiagonal of C(T)*S*C for irrep
                     2
  3.330669073875470E-016 -2.741949769141128E-015
 
 sum over diagonal and offdiagdiagonal of C(T)*S*C for irrep
                     3
  1.176836406102666E-014 -1.588571001129775E-014
 reorthoganalization of MOs is carried out
 sum over diagonal and offdiagdiagonal of C(T)*S*C for irrep
                     3
  0.000000000000000E+000 -8.580775951322879E-017
 
 sum over diagonal and offdiagdiagonal of C(T)*S*C for irrep
                     4
  1.221245327087672E-014  5.591524947456917E-016
 reorthoganalization of MOs is carried out
 sum over diagonal and offdiagdiagonal of C(T)*S*C for irrep
                     4
  0.000000000000000E+000  2.033891277782290E-016
  processed                  59209  ao basis integrals from 
                    99  buffers.
  processed                  97347  ao basis integrals from 
                   163  buffers.
  processed                 174627  ao basis integrals from 
                   292  buffers.
      15          -274.374646865881289              0.6654419113D-03
   current occupation vector 
     6  2  2  0
     6  2  2  0
  processed                  59209  ao basis integrals from 
                    99  buffers.
  processed                  97347  ao basis integrals from 
                   163  buffers.
  processed                 174627  ao basis integrals from 
                   292  buffers.
      16          -274.374647082416971              0.2270277335D-03
   current occupation vector 
     6  2  2  0
     6  2  2  0
  processed                  59209  ao basis integrals from 
                    99  buffers.
  processed                  97347  ao basis integrals from 
                   163  buffers.
  processed                 174627  ao basis integrals from 
                   292  buffers.
      17          -274.374647101490893              0.5850404231D-04
   current occupation vector 
     6  2  2  0
     6  2  2  0
  processed                  59209  ao basis integrals from 
                    99  buffers.
  processed                  97347  ao basis integrals from 
                   163  buffers.
  processed                 174627  ao basis integrals from 
                   292  buffers.
      18          -274.374647102835809              0.2015266626D-04
   current occupation vector 
     6  2  2  0
     6  2  2  0
  processed                  59209  ao basis integrals from 
                    99  buffers.
  processed                  97347  ao basis integrals from 
                   163  buffers.
  processed                 174627  ao basis integrals from 
                   292  buffers.
      19          -274.374647102852748              0.3486336715D-05
   current occupation vector 
     6  2  2  0
     6  2  2  0
 
 sum over diagonal and offdiagdiagonal of C(T)*S*C for irrep
                     1
  1.465494392505207E-014 -6.932300564903829E-014
 reorthoganalization of MOs is carried out
 sum over diagonal and offdiagdiagonal of C(T)*S*C for irrep
                     1
  1.054711873393899E-014 -1.568666131207837E-014
 
 sum over diagonal and offdiagdiagonal of C(T)*S*C for irrep
                     2
  1.598721155460225E-014 -1.977955913476269E-014
 reorthoganalization of MOs is carried out
 sum over diagonal and offdiagdiagonal of C(T)*S*C for irrep
                     2
 -4.440892098500626E-016 -6.395831964576517E-017
 
 sum over diagonal and offdiagdiagonal of C(T)*S*C for irrep
                     3
  3.586020369539256E-014  2.283594332215194E-014
 reorthoganalization of MOs is carried out
 sum over diagonal and offdiagdiagonal of C(T)*S*C for irrep
                     3
  2.220446049250313E-016 -7.045233067084052E-016
 
 sum over diagonal and offdiagdiagonal of C(T)*S*C for irrep
                     4
  4.773959005888173E-015 -4.247870230480316E-019
 reorthoganalization of MOs is carried out
 sum over diagonal and offdiagdiagonal of C(T)*S*C for irrep
                     4
  2.220446049250313E-016 -1.084850152690154E-016
  processed                  59209  ao basis integrals from 
                    99  buffers.
  processed                  97347  ao basis integrals from 
                   163  buffers.
  processed                 174627  ao basis integrals from 
                   292  buffers.
      20          -274.374647102852009              0.5562745947D-06
   current occupation vector 
     6  2  2  0
     6  2  2  0
  processed                  59209  ao basis integrals from 
                    99  buffers.
  processed                  97347  ao basis integrals from 
                   163  buffers.
  processed                 174627  ao basis integrals from 
                   292  buffers.
      21          -274.374647102852123              0.8317922175D-07
   current occupation vector 
     6  2  2  0
     6  2  2  0
  processed                  59209  ao basis integrals from 
                    99  buffers.
  processed                  97347  ao basis integrals from 
                   163  buffers.
  processed                 174627  ao basis integrals from 
                   292  buffers.
      22          -274.374647102852691              0.1176868027D-06
   current occupation vector 
     6  2  2  0
     6  2  2  0
  processed                  59209  ao basis integrals from 
                    99  buffers.
  processed                  97347  ao basis integrals from 
                   163  buffers.
  processed                 174627  ao basis integrals from 
                   292  buffers.
      23          -274.374647102852407              0.5757010857D-07
   current occupation vector 
     6  2  2  0
     6  2  2  0
  processed                  59209  ao basis integrals from 
                    99  buffers.
  processed                  97347  ao basis integrals from 
                   163  buffers.
  processed                 174627  ao basis integrals from 
                   292  buffers.
      24          -274.374647102852634              0.4314599233D-08
   current occupation vector 
     6  2  2  0
     6  2  2  0
 
 sum over diagonal and offdiagdiagonal of C(T)*S*C for irrep
                     1
  6.850076061937216E-014  1.819014807714996E-014
 reorthoganalization of MOs is carried out
 sum over diagonal and offdiagdiagonal of C(T)*S*C for irrep
                     1
  2.775557561562891E-015  2.087036028058042E-016
 
 sum over diagonal and offdiagdiagonal of C(T)*S*C for irrep
                     2
  1.187938636348917E-014  1.337292956584174E-014
 reorthoganalization of MOs is carried out
 sum over diagonal and offdiagdiagonal of C(T)*S*C for irrep
                     2
  0.000000000000000E+000  2.449200319787805E-015
 
 sum over diagonal and offdiagdiagonal of C(T)*S*C for irrep
                     3
  1.021405182655144E-014 -1.669278742344169E-014
 reorthoganalization of MOs is carried out
 sum over diagonal and offdiagdiagonal of C(T)*S*C for irrep
                     3
 -2.442490654175344E-015 -8.933899222570674E-016
 
 sum over diagonal and offdiagdiagonal of C(T)*S*C for irrep
                     4
  1.043609643147647E-014 -4.174788439549452E-015
 reorthoganalization of MOs is carried out
 sum over diagonal and offdiagdiagonal of C(T)*S*C for irrep
                     4
 -3.330669073875470E-016 -5.636623099151104E-017
  processed                  59209  ao basis integrals from 
                    99  buffers.
  processed                  97347  ao basis integrals from 
                   163  buffers.
  processed                 174627  ao basis integrals from 
                   292  buffers.
      25          -274.374647102852066              0.1587040332D-08
   current occupation vector 
     6  2  2  0
     6  2  2  0
  processed                  59209  ao basis integrals from 
                    99  buffers.
  processed                  97347  ao basis integrals from 
                   163  buffers.
  processed                 174627  ao basis integrals from 
                   292  buffers.
      26          -274.374647102852805              0.2284045418D-09
   current occupation vector 
     6  2  2  0
     6  2  2  0
  processed                  59209  ao basis integrals from 
                    99  buffers.
  processed                  97347  ao basis integrals from 
                   163  buffers.
  processed                 174627  ao basis integrals from 
                   292  buffers.
      27          -274.374647102852293              0.2143760100D-09
   current occupation vector 
     6  2  2  0
     6  2  2  0
  processed                  59209  ao basis integrals from 
                    99  buffers.
  processed                  97347  ao basis integrals from 
                   163  buffers.
  processed                 174627  ao basis integrals from 
                   292  buffers.
      28          -274.374647102852862              0.2579692016D-10
   current occupation vector 
     6  2  2  0
     6  2  2  0
  processed                  59209  ao basis integrals from 
                    99  buffers.
  processed                  97347  ao basis integrals from 
                   163  buffers.
  processed                 174627  ao basis integrals from 
                   292  buffers.
      29          -274.374647102852236              0.1409355965D-10
   current occupation vector 
     6  2  2  0
     6  2  2  0
 
 sum over diagonal and offdiagdiagonal of C(T)*S*C for irrep
                     1
  2.553512956637860E-015 -2.658820977094586E-014
 reorthoganalization of MOs is carried out
 sum over diagonal and offdiagdiagonal of C(T)*S*C for irrep
                     1
 -4.440892098500626E-016 -3.462483158068837E-015
 
 sum over diagonal and offdiagdiagonal of C(T)*S*C for irrep
                     2
 -7.549516567451064E-015 -2.364274070451444E-016
 reorthoganalization of MOs is carried out
 sum over diagonal and offdiagdiagonal of C(T)*S*C for irrep
                     2
  0.000000000000000E+000  3.057277278754698E-016
 
 sum over diagonal and offdiagdiagonal of C(T)*S*C for irrep
                     3
 -1.620925615952729E-014  1.457604821493160E-014
 reorthoganalization of MOs is carried out
 sum over diagonal and offdiagdiagonal of C(T)*S*C for irrep
                     3
 -2.109423746787797E-015  8.932052823095221E-016
 
 sum over diagonal and offdiagdiagonal of C(T)*S*C for irrep
                     4
 -4.773959005888173E-015 -2.862774638317535E-015
 reorthoganalization of MOs is carried out
 sum over diagonal and offdiagdiagonal of C(T)*S*C for irrep
                     4
  4.440892098500626E-016 -2.952568389297727E-016

  SCF has converged.

 Density matrix saved to file den.dat
 total alpha spin electron number:   10.0000000000000     
 total  beta spin electron number:   10.0000000000000     
  processed                  59209  ao basis integrals from 
                    99  buffers.
  processed                  97347  ao basis integrals from 
                   163  buffers.
  processed                 174627  ao basis integrals from 
                   292  buffers.
     E(ROHF)=      -274.374647102852066              0.3569478046D-11


       The average multiplicity is    1.0000000
  The expectation value of S**2 is    0.0000000

 @PUTMOS-I, Writing converged MOs to NEWMOS. 
 @PUTMOS-I, Symmetry   1 Full Blocks  7 Partial Blocksize   1
 @PUTMOS-I, Symmetry   2 Full Blocks  3 Partial Blocksize   2
 @PUTMOS-I, Symmetry   3 Full Blocks  3 Partial Blocksize   2
 @PUTMOS-I, Symmetry   4 Full Blocks  1 Partial Blocksize   2
  @DMPJOB-I, Rotating orbitals to semicanonical basis.
             *** Eigenvalues correspond to new basis. ***

--------------------------------------------------------------------------------
Eigenvalue    -49.052751    -20.442564     -3.794264     -2.311531     -2.311531
 Symmetry         SG+           SG+           SG+            PI            PI    
--------------------------------------------------------------------------------
   1 S         0.9963442     0.0000070     0.2615304     0.0000000     0.0000000
   1 S        -0.0211624     0.0000491     0.3809981     0.0000000     0.0000000
   1 S        -0.0044978    -0.0000509    -0.6862248     0.0000000     0.0000000
   1 S         0.0013040    -0.0004686    -0.0025119     0.0000000     0.0000000
   1 S        -0.0005186    -0.0003399     0.0006086     0.0000000     0.0000000
   1 PX        0.0000000     0.0000000     0.0000000     0.0000000     0.8660794
   1 PY        0.0000000     0.0000000     0.0000000     0.8660794     0.0000000
   1 PZ        0.0001567     0.0000771    -0.0144604     0.0000000     0.0000000
   1 PX        0.0000000     0.0000000     0.0000000     0.0000000     0.2180604
   1 PY        0.0000000     0.0000000     0.0000000     0.2180604     0.0000000
   1 PZ        0.0000164    -0.0001522    -0.0100135     0.0000000     0.0000000
   1 PX        0.0000000     0.0000000     0.0000000     0.0000000     0.0022225
   1 PY        0.0000000     0.0000000     0.0000000     0.0022225     0.0000000
   1 PZ       -0.0000932     0.0002504     0.0001810     0.0000000     0.0000000
   1 PX        0.0000000     0.0000000     0.0000000     0.0000000     0.0018421
   1 PY        0.0000000     0.0000000     0.0000000     0.0018421     0.0000000
   1 PZ       -0.0001328     0.0005525    -0.0000843     0.0000000     0.0000000
   1 DX2       0.0000015    -0.0000006    -0.0000923     0.0000000     0.0000000
   1 DXY       0.0000000     0.0000000     0.0000000     0.0000000     0.0000000
   1 DXZ       0.0000000     0.0000000     0.0000000     0.0000000     0.0031840
   1 DY2       0.0000015    -0.0000006    -0.0000923     0.0000000     0.0000000
   1 DYZ       0.0000000     0.0000000     0.0000000     0.0031840     0.0000000
   1 DZZ      -0.0000030     0.0000013     0.0001846     0.0000000     0.0000000
   1 DX2      -0.0000088    -0.0000564    -0.0003360     0.0000000     0.0000000
   1 DXY       0.0000000     0.0000000     0.0000000     0.0000000     0.0000000
   1 DXZ       0.0000000     0.0000000     0.0000000     0.0000000     0.0063758
   1 DY2      -0.0000088    -0.0000564    -0.0003360     0.0000000     0.0000000
   1 DYZ       0.0000000     0.0000000     0.0000000     0.0063758     0.0000000
   1 DZZ       0.0000177     0.0001128     0.0006721     0.0000000     0.0000000
   1 DX2      -0.0000371     0.0001042     0.0001007     0.0000000     0.0000000
   1 DXY       0.0000000     0.0000000     0.0000000     0.0000000     0.0000000
   1 DXZ       0.0000000     0.0000000     0.0000000     0.0000000    -0.0009673
   1 DY2      -0.0000371     0.0001042     0.0001007     0.0000000     0.0000000
   1 DYZ       0.0000000     0.0000000     0.0000000    -0.0009673     0.0000000
   1 DZZ       0.0000743    -0.0002084    -0.0002015     0.0000000     0.0000000
   2 S        -0.0000032     0.4357512     0.0003495     0.0000000     0.0000000
   2 S         0.0000157     0.6425905     0.0007548     0.0000000     0.0000000
   2 S        -0.0000531     0.0208106    -0.0003329     0.0000000     0.0000000
   2 S         0.0000575    -0.0076202    -0.0023523     0.0000000     0.0000000
   2 S        -0.0003389     0.0040227    -0.0005899     0.0000000     0.0000000
   2 PX        0.0000000     0.0000000     0.0000000     0.0000000     0.0011177
   2 PY        0.0000000     0.0000000     0.0000000     0.0011177     0.0000000
   2 PZ       -0.0000268     0.0008405    -0.0007194     0.0000000     0.0000000
   2 PX        0.0000000     0.0000000     0.0000000     0.0000000     0.0016893
   2 PY        0.0000000     0.0000000     0.0000000     0.0016893     0.0000000
   2 PZ       -0.0000310    -0.0006025    -0.0019501     0.0000000     0.0000000
   2 PX        0.0000000     0.0000000     0.0000000     0.0000000     0.0010090
   2 PY        0.0000000     0.0000000     0.0000000     0.0010090     0.0000000
   2 PZ        0.0000078     0.0005744    -0.0005173     0.0000000     0.0000000
   2 DX2       0.0000215     0.0000211     0.0000047     0.0000000     0.0000000
   2 DXY       0.0000000     0.0000000     0.0000000     0.0000000     0.0000000
   2 DXZ       0.0000000     0.0000000     0.0000000     0.0000000     0.0000944
   2 DY2       0.0000215     0.0000211     0.0000047     0.0000000     0.0000000
   2 DYZ       0.0000000     0.0000000     0.0000000     0.0000944     0.0000000
   2 DZZ      -0.0000431    -0.0000421    -0.0000093     0.0000000     0.0000000
   2 DX2      -0.0000466     0.0000276     0.0003116     0.0000000     0.0000000
   2 DXY       0.0000000     0.0000000     0.0000000     0.0000000     0.0000000
   2 DXZ       0.0000000     0.0000000     0.0000000     0.0000000     0.0013007
   2 DY2      -0.0000466     0.0000276     0.0003116     0.0000000     0.0000000
   2 DYZ       0.0000000     0.0000000     0.0000000     0.0013007     0.0000000
   2 DZZ       0.0000932    -0.0000552    -0.0006231     0.0000000     0.0000000
   2 FX3       0.0000000     0.0000000     0.0000000     0.0000000    -0.0000244
   2 FX2Y      0.0000000     0.0000000     0.0000000    -0.0000244     0.0000000
   2 FX2Z     -0.0000188     0.0000031     0.0001216     0.0000000     0.0000000
   2 FXY2      0.0000000     0.0000000     0.0000000     0.0000000    -0.0000244
   2 FXYZ      0.0000000     0.0000000     0.0000000     0.0000000     0.0000000
   2 FXZ2      0.0000000     0.0000000     0.0000000     0.0000000     0.0000975
   2 FY3       0.0000000     0.0000000     0.0000000    -0.0000244     0.0000000
   2 FY2Z     -0.0000188     0.0000031     0.0001216     0.0000000     0.0000000
   2 FYZ2      0.0000000     0.0000000     0.0000000     0.0000975     0.0000000
   2 FZ3       0.0000125    -0.0000021    -0.0000811     0.0000000     0.0000000
--------------------------------------------------------------------------------
Eigenvalue     -2.309710     -1.082273     -0.353941     -0.353941     -0.319872
 Symmetry         SG+           SG+            PI            PI           SG+    
--------------------------------------------------------------------------------
   1 S         0.0053483     0.0121908     0.0000000     0.0000000     0.0413612
   1 S         0.0136171     0.0228595     0.0000000     0.0000000     0.0690511
   1 S        -0.0106825    -0.0533663     0.0000000     0.0000000    -0.2306647
   1 S         0.0179272     0.0770188     0.0000000     0.0000000     0.5308571
   1 S        -0.0046001    -0.0070854     0.0000000     0.0000000     0.0538179
   1 PX        0.0000000     0.0000000     0.0550580     0.0000000     0.0000000
   1 PY        0.0000000     0.0000000     0.0000000     0.0550580     0.0000000
   1 PZ        0.8643773     0.0707382     0.0000000     0.0000000     0.0601076
   1 PX        0.0000000     0.0000000     0.0146216     0.0000000     0.0000000
   1 PY        0.0000000     0.0000000     0.0000000     0.0146216     0.0000000
   1 PZ        0.2186150     0.0123731     0.0000000     0.0000000     0.0006655
   1 PX        0.0000000     0.0000000    -0.0891073     0.0000000     0.0000000
   1 PY        0.0000000     0.0000000     0.0000000    -0.0891073     0.0000000
   1 PZ       -0.0049238    -0.0341090     0.0000000     0.0000000    -0.0440430
   1 PX        0.0000000     0.0000000    -0.0889373     0.0000000     0.0000000
   1 PY        0.0000000     0.0000000     0.0000000    -0.0889373     0.0000000
   1 PZ        0.0006823    -0.0077819     0.0000000     0.0000000     0.0816380
   1 DX2      -0.0010400    -0.0007992     0.0000000     0.0000000    -0.0011371
   1 DXY       0.0000000     0.0000000     0.0000000     0.0000000     0.0000000
   1 DXZ       0.0000000     0.0000000     0.0033409     0.0000000     0.0000000
   1 DY2      -0.0010400    -0.0007992     0.0000000     0.0000000    -0.0011371
   1 DYZ       0.0000000     0.0000000     0.0000000     0.0033409     0.0000000
   1 DZZ       0.0020800     0.0015984     0.0000000     0.0000000     0.0022743
   1 DX2      -0.0026606    -0.0056533     0.0000000     0.0000000    -0.0102140
   1 DXY       0.0000000     0.0000000     0.0000000     0.0000000     0.0000000
   1 DXZ       0.0000000     0.0000000     0.0470258     0.0000000     0.0000000
   1 DY2      -0.0026606    -0.0056533     0.0000000     0.0000000    -0.0102140
   1 DYZ       0.0000000     0.0000000     0.0000000     0.0470258     0.0000000
   1 DZZ       0.0053212     0.0113066     0.0000000     0.0000000     0.0204281
   1 DX2      -0.0001407    -0.0010505     0.0000000     0.0000000     0.0099043
   1 DXY       0.0000000     0.0000000     0.0000000     0.0000000     0.0000000
   1 DXZ       0.0000000     0.0000000     0.0405464     0.0000000     0.0000000
   1 DY2      -0.0001407    -0.0010505     0.0000000     0.0000000     0.0099043
   1 DYZ       0.0000000     0.0000000     0.0000000     0.0405464     0.0000000
   1 DZZ       0.0002814     0.0021009     0.0000000     0.0000000    -0.0198085
   2 S         0.0024417    -0.1024059     0.0000000     0.0000000     0.0161555
   2 S         0.0059110    -0.2482530     0.0000000     0.0000000     0.0403991
   2 S        -0.0085497     0.3570522     0.0000000     0.0000000    -0.0722864
   2 S        -0.0087860     0.5022907     0.0000000     0.0000000    -0.0809071
   2 S        -0.0143612     0.2228572     0.0000000     0.0000000    -0.1141728
   2 PX        0.0000000     0.0000000    -0.4316754     0.0000000     0.0000000
   2 PY        0.0000000     0.0000000     0.0000000    -0.4316754     0.0000000
   2 PZ       -0.0069758     0.0178416     0.0000000     0.0000000     0.3449392
   2 PX        0.0000000     0.0000000    -0.3888481     0.0000000     0.0000000
   2 PY        0.0000000     0.0000000     0.0000000    -0.3888481     0.0000000
   2 PZ       -0.0069768     0.0326249     0.0000000     0.0000000     0.3184233
   2 PX        0.0000000     0.0000000    -0.2994260     0.0000000     0.0000000
   2 PY        0.0000000     0.0000000     0.0000000    -0.2994260     0.0000000
   2 PZ       -0.0071286     0.0047336     0.0000000     0.0000000     0.2235930
   2 DX2       0.0002485     0.0000649     0.0000000     0.0000000    -0.0006582
   2 DXY       0.0000000     0.0000000     0.0000000     0.0000000     0.0000000
   2 DXZ       0.0000000     0.0000000    -0.0020777     0.0000000     0.0000000
   2 DY2       0.0002485     0.0000649     0.0000000     0.0000000    -0.0006582
   2 DYZ       0.0000000     0.0000000     0.0000000    -0.0020777     0.0000000
   2 DZZ      -0.0004969    -0.0001298     0.0000000     0.0000000     0.0013163
   2 DX2       0.0002136    -0.0029044     0.0000000     0.0000000    -0.0057903
   2 DXY       0.0000000     0.0000000     0.0000000     0.0000000     0.0000000
   2 DXZ       0.0000000     0.0000000    -0.0223693     0.0000000     0.0000000
   2 DY2       0.0002136    -0.0029044     0.0000000     0.0000000    -0.0057903
   2 DYZ       0.0000000     0.0000000     0.0000000    -0.0223693     0.0000000
   2 DZZ      -0.0004272     0.0058089     0.0000000     0.0000000     0.0115806
   2 FX3       0.0000000     0.0000000     0.0006745     0.0000000     0.0000000
   2 FX2Y      0.0000000     0.0000000     0.0000000     0.0006745     0.0000000
   2 FX2Z     -0.0000571    -0.0007063     0.0000000     0.0000000    -0.0016300
   2 FXY2      0.0000000     0.0000000     0.0006745     0.0000000     0.0000000
   2 FXYZ      0.0000000     0.0000000     0.0000000     0.0000000     0.0000000
   2 FXZ2      0.0000000     0.0000000    -0.0026979     0.0000000     0.0000000
   2 FY3       0.0000000     0.0000000     0.0000000     0.0006745     0.0000000
   2 FY2Z     -0.0000571    -0.0007063     0.0000000     0.0000000    -0.0016300
   2 FYZ2      0.0000000     0.0000000     0.0000000    -0.0026979     0.0000000
   2 FZ3       0.0000381     0.0004708     0.0000000     0.0000000     0.0010867
--------------------------------------------------------------------------------
Eigenvalue     -0.047980      0.052613      0.052613      0.112226      0.167141
 Symmetry         SG+            PI            PI           SG+           SG+    
--------------------------------------------------------------------------------
   1 S         0.0173392     0.0000000     0.0000000     0.0015152     0.0509661
   1 S         0.0248240     0.0000000     0.0000000     0.0091028     0.0507183
   1 S        -0.1013720     0.0000000     0.0000000     0.0027032    -0.3597271
   1 S         0.0643362     0.0000000     0.0000000    -0.2500565     2.1040354
   1 S         0.7128379     0.0000000     0.0000000     0.6509255    -1.6022577
   1 PX        0.0000000     0.0914362     0.0000000     0.0000000     0.0000000
   1 PY        0.0000000     0.0000000     0.0914362     0.0000000     0.0000000
   1 PZ       -0.1192044     0.0000000     0.0000000     0.0247911    -0.1000476
   1 PX        0.0000000     0.0059159     0.0000000     0.0000000     0.0000000
   1 PY        0.0000000     0.0000000     0.0059159     0.0000000     0.0000000
[...]
   The total correlation energy is -0.437320973607 a.u.
  Current DIIS expansion coefficients : 
 [   1] 0.9661454188 [   2] 0.0857272488 [   3]-0.1638949425 [   4]-0.2414142281
 [   5] 0.3534365031
  Convergence information after    11 iterations: 
  Largest element of residual vector : -0.14598150E-03.
  Largest element of DIIS residual   : -0.41059405E-04.
  W(mnij) AA contribution =  0.0055784235 a.u.
  W(mnij) BB contribution =  0.0055784235 a.u.
  W(mnij) AB contribution =  0.0841131713 a.u.
  W(abef) AA contribution =  0.0057787157 a.u.
  W(abef) BB contribution =  0.0057787157 a.u.
  W(abef) AB contribution =  0.0837797298 a.u.
  W(mbej) AA contribution =  -0.0055013855 a.u.
  W(mbej) BB contribution =  -0.0055013855 a.u.
  W(mbej) AB contribution = -0.2241113479 a.u.
   After  12 iterations, amplitude changes are:
    -------------------------------------------------------------------
                 Spin      RMS          Max.      Max. change for
     Amplitude   Case     Change       Change       i    j    a    b
    -------------------------------------------------------------------
        T1        AA    0.0000007166-0.0000493490    5        31
        T1        BB    0.0000007166-0.0000493490    7        43
        T2        AA    0.0000000017-0.0000054780    5    3   31    8
        T2        BB    0.0000000017-0.0000054780    7    3   43    8
        T2        AB    0.0000000021-0.0000351701    3    3    8    8
    -------------------------------------------------------------------
   The AA contribution to the correlation energy is:   -0.0499913 a.u.
   The BB contribution to the correlation energy is:   -0.0499913 a.u.
   The AB contribution to the correlation energy is:   -0.3373262 a.u.
   The total correlation energy is -0.437308798660 a.u.
   The total correlation energy is -0.437308798660 a.u.
  Current DIIS expansion coefficients : 
 [   1]-0.1499098109 [   2] 1.3248875628 [   3]-0.0099296501 [   4]-0.0359155534
 [   5]-0.1291325483
  Convergence information after    12 iterations: 
  Largest element of residual vector : -0.49348984E-04.
  Largest element of DIIS residual   :  0.20415883E-04.
  W(mnij) AA contribution =  0.0055782010 a.u.
  W(mnij) BB contribution =  0.0055782010 a.u.
  W(mnij) AB contribution =  0.0841346069 a.u.
  W(abef) AA contribution =  0.0057786306 a.u.
  W(abef) BB contribution =  0.0057786306 a.u.
  W(abef) AB contribution =  0.0838016294 a.u.
  W(mbej) AA contribution =  -0.0055008663 a.u.
  W(mbej) BB contribution =  -0.0055008663 a.u.
  W(mbej) AB contribution = -0.2242033544 a.u.
   After  13 iterations, amplitude changes are:
    -------------------------------------------------------------------
                 Spin      RMS          Max.      Max. change for
     Amplitude   Case     Change       Change       i    j    a    b
    -------------------------------------------------------------------
        T1        AA    0.0000002764 0.0000186734    5        31
        T1        BB    0.0000002764 0.0000186734    7        43
        T2        AA    0.0000000027 0.0000111015    5    3   31    8
        T2        BB    0.0000000027 0.0000111015    5    3   31    8
        T2        AB    0.0000000015 0.0000219575    3    3    8    8
    -------------------------------------------------------------------
   The AA contribution to the correlation energy is:   -0.0499884 a.u.
   The BB contribution to the correlation energy is:   -0.0499884 a.u.
   The AB contribution to the correlation energy is:   -0.3373269 a.u.
   The total correlation energy is -0.437303706871 a.u.
   The total correlation energy is -0.437303706871 a.u.
  Current DIIS expansion coefficients : 
 [   1]-0.0558650112 [   2] 0.4774360461 [   3] 0.6204778088 [   4] 0.0058137413
 [   5]-0.0478625850
  Convergence information after    13 iterations: 
  Largest element of residual vector :  0.21957510E-04.
  Largest element of DIIS residual   :  0.10118813E-04.
  W(mnij) AA contribution =  0.0055778460 a.u.
  W(mnij) BB contribution =  0.0055778460 a.u.
  W(mnij) AB contribution =  0.0841312940 a.u.
  W(abef) AA contribution =  0.0057783710 a.u.
  W(abef) BB contribution =  0.0057783710 a.u.
  W(abef) AB contribution =  0.0837985359 a.u.
  W(mbej) AA contribution =  -0.0055004909 a.u.
  W(mbej) BB contribution =  -0.0055004909 a.u.
  W(mbej) AB contribution = -0.2241900407 a.u.
   After  14 iterations, amplitude changes are:
    -------------------------------------------------------------------
                 Spin      RMS          Max.      Max. change for
     Amplitude   Case     Change       Change       i    j    a    b
    -------------------------------------------------------------------
        T1        AA    0.0000001277-0.0000094851    3         8
        T1        BB    0.0000001277-0.0000094851    3         8
        T2        AA    0.0000000006 0.0000014297    5    3   35    8
        T2        BB    0.0000000006 0.0000014297    5    3   35    8
        T2        AB    0.0000000004-0.0000030769    5    5   31   31
    -------------------------------------------------------------------
   The AA contribution to the correlation energy is:   -0.0499888 a.u.
   The BB contribution to the correlation energy is:   -0.0499888 a.u.
   The AB contribution to the correlation energy is:   -0.3373293 a.u.
   The total correlation energy is -0.437306907585 a.u.
   The total correlation energy is -0.437306907585 a.u.
  Current DIIS expansion coefficients : 
 [   1]-0.0107726046 [   2]-0.1034371533 [   3]-0.0211832993 [   4] 1.1256702202
 [   5] 0.0097228369
  Convergence information after    14 iterations: 
  Largest element of residual vector : -0.94850636E-05.
  Largest element of DIIS residual   : -0.84680257E-05.
  Amplitude equations converged in    14iterations.
   The AA contribution to the correlation energy is:   -0.0499885 a.u.
   The BB contribution to the correlation energy is:   -0.0499885 a.u.
   The AB contribution to the correlation energy is:   -0.3373292 a.u.
   The total correlation energy is -0.437306269547 a.u.
   The total correlation energy is -0.437306269547 a.u.
   The CC iterations have converged.

            ----------------------------------------------
                     Projected spin multiplicities: 
            ----------------------------------------------
             <0|S^2|0>                  =    0.0000000000.
             <0|S^2 (T2+T1**2) |0>      =    0.0000000000.
             <0|S^2 T1|0>               =    0.0000000000.
             Projected <0|S^2 exp(T)|0> =    0.0000000000.
             Approximate spin mult.     =    1.0000000000.
            ----------------------------------------------
   Largest T1 amplitudes for spin case AA:
   i       a                 i       a                 i       a    
-----------------------------------------------------------------------------
[  3       8    ] 0.11399 [  7      43    ] 0.05336 [  5      31    ] 0.05336
[  3      10    ] 0.02578 [  3      15    ]-0.02217 [  3      17    ]-0.02204
[  7      44    ] 0.01915 [  5      32    ] 0.01915 [  3      13    ]-0.01793
[  5      33    ] 0.01445 [  7      45    ] 0.01445 [  2       8    ]-0.01331
[  3      21    ] 0.01163 [  3      16    ]-0.00968 [  7      50    ] 0.00954
-----------------------------------------------------------------------------
   Norm of T1AA vector (      117 symmetry allowed elements):  0.1509886390.
-----------------------------------------------------------------------------
   Largest T2 amplitudes for spin case AA:
   i   j   a   b             i   j   a   b             i   j   a   b
-----------------------------------------------------------------------------
[  7   3  43   8]-0.01910 [  5   3  31   8]-0.01910 [  7   5  57  18]-0.01862
[  7   3  44   8]-0.01639 [  5   3  32   8]-0.01639 [  7   5  47  35]-0.01600
[  7   3  47   8]-0.01384 [  5   3  35   8]-0.01384 [  6   4  60  27]-0.01187
[  6   4  49  37]-0.01063 [  5   3  35  15]-0.01049 [  7   3  47  15]-0.01049
[  7   5  44  35]-0.01048 [  7   5  47  32]-0.01048 [  7   5  44  32]-0.00892
-----------------------------------------------------------------------------
   Norm of T2AA vector (     7304 symmetry allowed elements):  0.0987857513.
-----------------------------------------------------------------------------
   Largest T1 amplitudes for spin case BB:
   i       a                 i       a                 i       a    
-----------------------------------------------------------------------------
[  3       8    ] 0.11399 [  7      43    ] 0.05336 [  5      31    ] 0.05336
[  3      10    ] 0.02578 [  3      15    ]-0.02217 [  3      17    ]-0.02204
[  7      44    ] 0.01915 [  5      32    ] 0.01915 [  3      13    ]-0.01793
[  5      33    ] 0.01445 [  7      45    ] 0.01445 [  2       8    ]-0.01331
[  3      21    ] 0.01163 [  3      16    ]-0.00968 [  7      50    ] 0.00954
-----------------------------------------------------------------------------
   Norm of T1BB vector (      117 symmetry allowed elements):  0.1509886390.
-----------------------------------------------------------------------------
   Largest T2 amplitudes for spin case BB:
   i   j   a   b             i   j   a   b             i   j   a   b
-----------------------------------------------------------------------------
[  7   3  43   8]-0.01910 [  5   3  31   8]-0.01910 [  7   5  57  18]-0.01862
[  7   3  44   8]-0.01639 [  5   3  32   8]-0.01639 [  7   5  47  35]-0.01600
[  7   3  47   8]-0.01384 [  5   3  35   8]-0.01384 [  6   4  60  27]-0.01187
[  6   4  49  37]-0.01063 [  5   3  35  15]-0.01049 [  7   3  47  15]-0.01049
[  7   5  44  35]-0.01048 [  7   5  47  32]-0.01048 [  7   5  44  32]-0.00892
-----------------------------------------------------------------------------
   Norm of T2BB vector (     7304 symmetry allowed elements):  0.0987857513.
-----------------------------------------------------------------------------
   Largest T2 amplitudes for spin case AB:
       _       _                 _       _                 _       _
   i   j   a   b             i   j   a   b             i   j   a   b
-----------------------------------------------------------------------------
[  3   3   8   8]-0.20787 [  3   3  10   8]-0.08223 [  3   3   8  10]-0.08223
[  3   3   8   9]-0.04129 [  3   3   9   8]-0.04129 [  3   3  10  10]-0.03797
[  3   3  15   8]-0.03692 [  3   3   8  15]-0.03692 [  5   5  35  35]-0.03611
[  7   7  47  47]-0.03611 [  7   3  43   8]-0.03556 [  3   7   8  43]-0.03556
[  5   3  31   8]-0.03556 [  3   5   8  31]-0.03556 [  7   3  44   8]-0.02797
-----------------------------------------------------------------------------
   Norm of T2AB vector (    35717 symmetry allowed elements):  0.3923654537.
-----------------------------------------------------------------------------
       Summary of iterative solution of CC equations 
      -----------------------------------------------------------
                       Correlation           Total
       Iteration         Energy              Energy
      -----------------------------------------------------------
            0        -0.454826441712    -274.829473544564  DIIS 
            1        -0.403721191441    -274.778368294293  DIIS 
            2        -0.450154996593    -274.824802099446  DIIS 
            3        -0.433174712115    -274.807821814967  DIIS 
            4        -0.433736015295    -274.808383118147  DIIS 
            5        -0.437132722884    -274.811779825736  DIIS 
            6        -0.437352759908    -274.811999862760  DIIS 
            7        -0.437295504902    -274.811942607754  DIIS 
            8        -0.437391429446    -274.812038532298  DIIS 
            9        -0.437307236266    -274.811954339118  DIIS 
           10        -0.437270014485    -274.811917117337  DIIS 
           11        -0.437320973607    -274.811968076459  DIIS 
           12        -0.437308798660    -274.811955901512  DIIS 
           13        -0.437303706871    -274.811950809723  DIIS 
           14        -0.437306269547    -274.811953372399  DIIS 
      -----------------------------------------------------------
      A miracle has come to pass. The CC iterations have converged.
 @DIMT3-I, Dimensions of T3 amplitudes : 
               # abc          # ijk       Symmetry    Spin 
                     6016              7     1          1
                     5884              8     2          1
                     5884              8     3          1
                     5642             12     4          1
                    19244             39     1          2
                    18276             36     2          2
                    18276             36     3          2
                    17238             36     4          2
                    19244             39     1          3
                    18276             36     2          3
                    18276             36     3          3
                    17238             36     4          3
                     6016              7     1          4
                     5884              8     2          4
                     5884              8     3          4
                     5642             12     4          4
 @DIMT3-I, Dimensions of T3 amplitudes : 
               # abc          # ijk       Symmetry    Spin 
                     6016              7     1          1
                     5884              8     2          1
                     5884              8     3          1
                     5642             12     4          1
                    19244             39     1          2
                    18276             36     2          2
                    18276             36     3          2
                    17238             36     4          2
                    19244             39     1          3
                    18276             36     2          3
                    18276             36     3          3
                    17238             36     4          3
                     6016              7     1          4
                     5884              8     2          4
                     5884              8     3          4
                     5642             12     4          4
 @TRPS-I, Welcome to TRPS. Watch your RUs ! 
 @TRPS-I, Method is CCSD(T) 
 @TRPS-I, Calculation type is energy 
 @TRPS-I, Reference function information : 
          Reference function is general non-HF 
 @TRPS-I, Reference function is ROHF 
 @TRPS-I, INT1 is true 
 @TRPS-I, INT2 is false 
 @TRPS-I, Lengths of ijka integrals. #1       1977
                                     #2       1977
                                     #3       4773
                                     #4       4773
                                    Max       4773
 @INITRP-I, Initializing W intermediate lists. 
 @TSPABCI-I, AbIc/AbcI record transposition. 
 @TSPABCI-I, (O,v) ---> (v,O) transposition. 
 @TSPABCI-I, In-core algorithm is being used. 
 @TSPABCI-I, In-core algorithm is being used. 
 @TSPABCI-I, In-core algorithm is being used. 
 @TSPABCI-I, In-core algorithm is being used. 
 @TRPS-I, Available memory in integer words   2499959040
          Number of pre-allocated words for TRPS14        14464
          Number of free words for TRPS14   2499944576
 @TRPS14-I, Spin case AAA 
 @TRPS14-I, Number of free integer words 2499944576
            Number of free double words  2499944576
            Ratio                                 1
 @TRPS14-I, E4TAAA      -0.000421647359
 @TRPS14-I, E5ST A    0.000152459862059
 @TRPS14-I, E4ST A    0.000000000000000
 @TRPS-I, Available memory in integer words   2499959040
          Number of pre-allocated words for TRPS14        14464
          Number of free words for TRPS14   2499944576
 @TRPS14-I, Spin case BBB 
 @TRPS14-I, Number of free integer words 2499944576
            Number of free double words  2499944576
            Ratio                                 1
 @TRPS14-I, E4TBBB      -0.000421647359
 @TRPS14-I, E5ST B    0.000152459862059
 @TRPS14-I, E4ST B    0.000000000000000
 @SETOOOV-I, Some OOOV lists are being transposed. 
 @TRPS-I, Available memory in integer words   2499959040
          Number of pre-allocated words for TRPS2        27261
          Number of free words for TRPS2   2499931779
 @TRPS2-I, Spin case AAB 
 @TRPS2-I, Number of free integer words 2499931779
           Number of free double  words 2499931779
           Ratio                                 1
 @TRPS2-I, E4TBAA      -0.015059545260
 @TRPS2-I, E5ST A    0.002253451348580
 @TRPS2-I, E5ST B    0.001224204364312
 @TRPS2-I, E4ST A   -0.000000000000001
 @TRPS2-I, E4ST B    0.000000000000000
 @SETOOOV-I, Some OOOV lists are being transposed. 
 @TSPABCI2-I, (Alpha,Beta) ---> (Beta,Alpha). 
 @TSPABCI2-I, In-core algorithm is being used. 
 @TSPABCI2-I, In-core algorithm is being used. 
 @TSPABCI2-I, In-core algorithm is being used. 
 @TSPABCI2-I, In-core algorithm is being used. 
 @TSPABCI2-I, In-core algorithm is being used. 
 @TSPABCI2-I, In-core algorithm is being used. 
 @TSPABCI2-I, In-core algorithm is being used. 
 @TSPABCI2-I, In-core algorithm is being used. 
 @AT2IAB-I, Some AbIj lists are being altered. 
 @TRPS-I, Available memory in integer words   2499959040
          Number of pre-allocated words for TRPS3        84533
          Number of free words for TRPS3   2499874507
 @TRPS3-I, Spin case BBA 
 @TRPS3-I, Number of free integer words 2499874507
           Number of free double  words 2499874507
           Ratio                                 1
 @TRPS3-I, E4TBBA      -0.015059545260
 @TRPS3-I, E5ST A    0.003325195850832
 @TRPS3-I, E5ST B    0.003325195850832
 @TRPS3-I, E4ST A    0.000000000000000
 @TRPS3-I, E4ST B    0.000000000000000
 @TSPABCI2-I, (Beta,Alpha) ---> (Alpha,Beta). 
 @TSPABCI2-I, In-core algorithm is being used. 
 @TSPABCI2-I, In-core algorithm is being used. 
 @TSPABCI2-I, In-core algorithm is being used. 
 @TSPABCI2-I, In-core algorithm is being used. 
 @TSPABCI2-I, In-core algorithm is being used. 
 @TSPABCI2-I, In-core algorithm is being used. 
 @TSPABCI2-I, In-core algorithm is being used. 
 @TSPABCI2-I, In-core algorithm is being used. 
 @AT2IAB-I, Some AbIj lists are being altered. 
 @TSPABCI-I, AbIc/AbcI record transposition. 
 @TSPABCI-I, (v,O) ---> (O,v) transposition. 
 @TSPABCI-I, In-core algorithm is being used. 
 @TSPABCI-I, In-core algorithm is being used. 
 @TSPABCI-I, In-core algorithm is being used. 
 @TSPABCI-I, In-core algorithm is being used. 
 @CCENRG-I, CCSD/QCISD energy will now be evaluated. 
 @CCENRG-I, Correlation energies. ECCAA       -0.049988533452
                                  ECCBB       -0.049988533452
                                  ECCAB       -0.337329202643
                                  Total       -0.437306269547
 @CCENRG-I, Reference   energy    -274.374647102852
            CCSD/QCISD energy     -274.811953372399
          E4T (T(CCSD)) = -0.030962385238
          E5ST          =  0.006650391702
          E4ST          =  0.000000000000
          In other words  
          <T3[2](Dagger) D3  T3[2]> = -0.030962385238
          <T1   (Dagger) Q1 WT3[2]> =  0.006650391702
          <T2   (Dagger) Q2 FT3[2]> =  0.000000000000
        E(CCSD)           =    -274.811953372399
        E(CCSD(T))        =    -274.836265365935
  @CHECKOUT-I, Total execution time (CPU/WALL):        7.05/       7.07 seconds.
--executable xvcc finished with status     0 in        7.19 seconds (walltime).
  The final electronic energy is      -274.836265365934821 a.u. 
  This computation required                           11.08 seconds (walltime).
--- SharcNET Job Epilogue ---
Job completed successfully.
               jobid: 1772546
               resid: 3250092
         exit status: 0
      allocated time: 12.1219
           user time: 13.48
         system time: 1.37
peak rss=204099584; peak vsz=204099584 (bytes)
atime=12.1219; utime=13.48; stime=1.37; exit=0
