 **********************************************************************
                          MRCC program system
 **********************************************************************
 
                              Written by
    Mihaly Kallay, Zoltan Rolik, Jozsef Csontos, Istvan Ladjanszki,
       Lorant Szegedy, Bence Ladoczki, Gyula Samu, Klara Petrov,
        Mate Farkas, Peter Nagy, David Mester, and Bence Hegely
 
        Department of Physical Chemistry and Materials Science
            Budapest University of Technology and Economics
                  Budapest P.O.Box 91, H-1521 Hungary
 
                              www.mrcc.hu

 ************************ 2017-03-03 14:53:48 *************************
 Executing minp...

 Reading input from MINP...
 
 Input file:
 
# TITLE
basis=aug-cc-pCV5Z-EMSL
uncontract=on
calc=CCSDTQ(P)
mem=450GB
core=corr
cctol=9
ccmaxit=999
scfmaxit=9999
scftype=RHF
scfiguess=ao
mult=1
geom
Ne

 
 
 Checking keyword combinations...
 
 Keywords:
 
 active=none
 agrid=ld0006-ld0590
 basis=aug-cc-pcv5z-emsl
 basopt=off
 bpcompo=0.985
 bpcompv=0.98
 bpdfo=0.985
 bpocc=0.985
 bppdo=0.985
 bppdv=0.98
 bpedo=0.985
 bpedv=0.98
 calc=ccsdtq(p)
 ccmaxit=999
 ccprog=mrcc
 cctol=9
 charge=0
 cialg=disk
 ciguess=off
 cmpgrp=auto
 core=corr
 corembed=off
 dboc=off
 dendec=cholesky
 dens=0
 dfalg=invsqrt
 dfbasis_cor=none
 dfbasis_scf=none
 dfintran=ovirt
 dft=off
 diag=david
 domrad=10.d0
 drpaalg=fit
 ecp=auto
 edisp=off
 embed=off
 epert=none
 eps=0.975
 excrad=0.d0
 excrad_fin=0.000000000D+00
 freq=off
 gauss=spher
 geom=zmat
 gopt=off
 ghost=none
 gtol=7
 grtol=10
 hamilton=dc
 iface=none
 intalg=auto
 itol=13
 lcorthr=loose
 lccrest=off
 lmp2dens=on
 lnoepso=3e-5
 lnoepsv=1e-6
 localcc=off
 locintrf=disk
 maxact=off
 maxex=0
 bfbasis=none
 mem=450gb
 molden=on
 mulmet=0
 mult=1
 nacto=0
 nactv=0
 naf_cor=off
 naf_scf=off
 nafalg=albe
 naftyp=
 nchol=auto
 ndeps=1e-3
 nstate=1
 nsing=0
 ntrip=0
 occ=
 optalg=
 optmaxit=50
 optetol=1e-6
 optgtol=1e-4
 optstol=1e-3
 orblocc=off
 orbloco=off
 orblocv=off
 osveps=1e-3
 ovirt=off
 ovosnorb=80.0
 ptfreq=0.0
 popul=off
 pressure=100000
 qmmm=off
 refdet=none
 rest=0
 rgrid=log3
 rohftype=semicanonical
 scspe=1.d0
 scsps=1.2d0
 scspt=0.33333333333333
 scfalg=auto
 scfdamp=off
 scfdiis=on
 scfdiis_end=9999
 scfdiis_start=1
 scfdiis_step=1
 scfdtol=13
 scfext=10
 scfiguess=ao
 scflshift=off
 scfmaxit=9999
 scftype=rhf
 scftol=9
 spairtol=1e-4
 symm=
 talg=occ
 temp=298.15
 test=off
 tprint=off
 uncontract=on
 unit=angs
 verbosity=2
 wpairtol=0.100000000E-05

 ************************ 2017-03-03 14:53:49 *************************
 Executing integ...

 Allocation of 450.0 Gbytes of memory...
 
 Number of atoms:            1
 Charge:                     0
 Number of electrons:       10
 Number of core electrons:   2
 Spin multiplicity:          1
 
                 Cartesian coordinates [bohr]      Atomic mass [AMU]  Z
   1  Ne    0.00000000    0.00000000    0.00000000    19.992436      10
 
 This molecule is a spherical top.
 
 Rotational constants [cm-1]: 

 
 Point group: Dxh 
 Computational point group: D2h 
 
 Cartesian coordinates in standard orientation [bohr]
   1  Ne    0.00000000    0.00000000    0.00000000
 
 Nuclear repulsion energy [au]:          0.000000000000
 
 
 Basis set information:
 
 Maximum angular momentum: h
 Maximum number of contracted Gaussians:   19
 Maximum number of primitive Gaussians:    19
 Spherical harmonic GTOs are used.
 
    1  Ne aug-cc-pcv5z-emsl [ 19s 13p 8d 6f 4g 2h | 19s 13p 8d 6f 4g 2h ]
 
 Total number of basis functions:   198
 
 
 Character table for point group D2h:
 
          E  C2z C2y C2x  i  Qxy Qxz Qyz 
    Ag    1   1   1   1   1   1   1   1
    B1g   1   1  -1  -1   1   1  -1  -1
    B2g   1  -1   1  -1   1  -1   1  -1
    B3g   1  -1  -1   1   1  -1  -1   1
    Au    1   1   1   1  -1  -1  -1  -1
    B1u   1   1  -1  -1  -1  -1   1   1
    B2u   1  -1   1  -1  -1   1  -1   1
    B3u   1  -1  -1   1  -1   1   1  -1
 
 Number of basis functions per irrep:
    Ag     47
    B1g    16
    B2g    16
    B3g    16
    Au     10
    B1u    31
    B2u    31
    B3u    31
 
 
 Calculation of overlap integrals...
 CPU time [min]:     0.020                   Wall time [min]:     0.023
 Calculation of kinetic energy integrals...
 CPU time [min]:     0.039                   Wall time [min]:     0.024
 Calculation of nuclear attraction integrals...
 CPU time [min]:     0.045                   Wall time [min]:     0.024
 
 Calculation of prescreening integrals...
 CPU time [min]:     1.093                   Wall time [min]:     0.062
 
 Calculation of two-electron integrals...
   1% done.
  25% done.
  63% done.
 100% done.
 CPU time [min]:    10.265                   Wall time [min]:     0.392

 ************************ 2017-03-03 14:54:13 *************************
 Executing scf...

 Allocation of 450.0 Gbytes of memory...
 ======================================================================
 ITERATION STEP   1
 CPU time [min]:     0.148                   Wall time [min]:     0.018
 
 ALPHA OCC:   1   0   0   0   0   2   1   1
 BETA  OCC:   1   0   0   0   0   2   1   1
 ***HARTREE-FOCK ENERGY IN STEP   1 IS  889210.3483042905572802 [AU]
 ======================================================================
 ITERATION STEP   2
 CPU time [min]:     0.335                   Wall time [min]:     0.027
 
 ALPHA OCC:   2   0   0   0   0   1   1   1
 BETA  OCC:   2   0   0   0   0   1   1   1
 ***HARTREE-FOCK ENERGY IN STEP   2 IS     -18.2496110057039900 [AU]
 ======================================================================
 ITERATION STEP   3
 CPU time [min]:     0.585                   Wall time [min]:     0.037
 
 ALPHA OCC:   2   0   0   0   0   1   1   1
 BETA  OCC:   2   0   0   0   0   1   1   1
 ***HARTREE-FOCK ENERGY IN STEP   3 IS    -112.5433649666378386 [AU]
 ======================================================================
 ITERATION STEP   4
 CPU time [min]:     0.811                   Wall time [min]:     0.047
 
 ALPHA OCC:   2   0   0   0   0   1   1   1
 BETA  OCC:   2   0   0   0   0   1   1   1
 ***HARTREE-FOCK ENERGY IN STEP   4 IS    -115.8702251551322462 [AU]
 ======================================================================
 ITERATION STEP   5
 CPU time [min]:     1.014                   Wall time [min]:     0.054
 
 ALPHA OCC:   2   0   0   0   0   1   1   1
 BETA  OCC:   2   0   0   0   0   1   1   1
 ***HARTREE-FOCK ENERGY IN STEP   5 IS    -122.2000265694507988 [AU]
 ======================================================================
 ITERATION STEP   6
 CPU time [min]:     1.216                   Wall time [min]:     0.062
 
 ALPHA OCC:   2   0   0   0   0   1   1   1
 BETA  OCC:   2   0   0   0   0   1   1   1
 ***HARTREE-FOCK ENERGY IN STEP   6 IS    -127.3530379598268354 [AU]
 ======================================================================
 ITERATION STEP   7
 CPU time [min]:     1.367                   Wall time [min]:     0.070
 
 ALPHA OCC:   2   0   0   0   0   1   1   1
 BETA  OCC:   2   0   0   0   0   1   1   1
 ***HARTREE-FOCK ENERGY IN STEP   7 IS    -128.5216195338385319 [AU]
 ======================================================================
 ITERATION STEP   8
 CPU time [min]:     1.590                   Wall time [min]:     0.078
 
 ALPHA OCC:   2   0   0   0   0   1   1   1
 BETA  OCC:   2   0   0   0   0   1   1   1
 ***HARTREE-FOCK ENERGY IN STEP   8 IS    -128.5465612201975887 [AU]
 ======================================================================
 ITERATION STEP   9
 CPU time [min]:     1.771                   Wall time [min]:     0.085
 
 ALPHA OCC:   2   0   0   0   0   1   1   1
 BETA  OCC:   2   0   0   0   0   1   1   1
 ***HARTREE-FOCK ENERGY IN STEP   9 IS    -128.5468688440591905 [AU]
 ======================================================================
 ITERATION STEP  10
 CPU time [min]:     1.938                   Wall time [min]:     0.093
 
 ALPHA OCC:   2   0   0   0   0   1   1   1
 BETA  OCC:   2   0   0   0   0   1   1   1
 ***HARTREE-FOCK ENERGY IN STEP  10 IS    -128.5468697306354215 [AU]
 ======================================================================
 ITERATION STEP  11
 CPU time [min]:     2.144                   Wall time [min]:     0.101
 
 ALPHA OCC:   2   0   0   0   0   1   1   1
 BETA  OCC:   2   0   0   0   0   1   1   1
 ***HARTREE-FOCK ENERGY IN STEP  11 IS    -128.5468697781760739 [AU]
 ======================================================================
 ITERATION STEP  12
 CPU time [min]:     2.370                   Wall time [min]:     0.110
 
 ALPHA OCC:   2   0   0   0   0   1   1   1
 BETA  OCC:   2   0   0   0   0   1   1   1
 ***HARTREE-FOCK ENERGY IN STEP  12 IS    -128.5468697794741217 [AU]
 ======================================================================
 ITERATION STEP  13
 CPU time [min]:     2.581                   Wall time [min]:     0.120
 
 ALPHA OCC:   2   0   0   0   0   1   1   1
 BETA  OCC:   2   0   0   0   0   1   1   1
 ***HARTREE-FOCK ENERGY IN STEP  13 IS    -128.5468697794698869 [AU]
 ======================================================================
 ITERATION STEP  14
 CPU time [min]:     2.776                   Wall time [min]:     0.127
 
 ALPHA OCC:   2   0   0   0   0   1   1   1
 BETA  OCC:   2   0   0   0   0   1   1   1
 ***HARTREE-FOCK ENERGY IN STEP  14 IS    -128.5468697794690911 [AU]
 ======================================================================
 ITERATION STEP  15
 CPU time [min]:     2.990                   Wall time [min]:     0.134
 
 ALPHA OCC:   2   0   0   0   0   1   1   1
 BETA  OCC:   2   0   0   0   0   1   1   1
 ***HARTREE-FOCK ENERGY IN STEP  15 IS    -128.5468697794792092 [AU]
 ======================================================================
 
 SUCCESS...
 THE SCF ITERATION HAS CONVERGED!
 
                   Ag  B1g B2g B3g Au  B1u B2u B3u 
 FINAL ALPHA OCC:   2   0   0   0   0   1   1   1
 FINAL BETA  OCC:   2   0   0   0   0   1   1   1
 
 ***FINAL HARTREE-FOCK ENERGY:   -128.5468697794792092 [AU]
 
 RETURNING FROM SCF ALGORITHM
 ======================================================================

 ************************ 2017-03-03 14:54:23 *************************
 Executing ovirt...

 ovirt, the routine of orbital optimization and integral transformation 
Fri Mar  3 14:54:24 EST 2017
 Allocated memory:                  460800  Mb
 RHF calculation! 
 integral transforamtion: AOs ------ MOs
 # of basis functions, # of int. blocks   198     1
100 % 
 second part
100 %
 integral transformation is completed! 
CPU and WC time        1565.82        1207.84     AOs -> MOs 
Integrals are written to fort.55
Fri Mar  3 15:18:15 EST 2017
  ovirt terminated normally 

 ************************ 2017-03-03 15:18:20 *************************
 Executing goldstone...

 Generation of CC equations in terms of H and T...
 Generation of antisymmetrized Goldstone diagrams...
 Number of diagrams in T^1 equations:    15
 Number of diagrams in T^2 equations:    38
 Number of diagrams in T^3 equations:    54
 Number of diagrams in T^4 equations:    76
 Number of diagrams in T^5 equations:     8
 Translation of diagrams to factorized equations...
 Optimizing intermediate calculation...
 Number of floating-point operations per iteration step:   1.3866E+16
 Probable CPU time per iteration step (hours): 138659.17
 Required memory (Mbytes): *********
 Number of intermediates:                                 118
 Number of intermediates to be stored:                     51
 Length of intermediate file (Mbytes):  117957.6

 ************************ 2017-03-03 15:18:24 *************************
 Executing xmrcc...

 **********************************************************************
 CC(4)(5) calculation 
 
 
 Allocation of****** Mbytes of memory...
 Number of spinorbitals:                   396
 Number of alpha electrons:                        5
 Number of beta electrons:                         5
 Spin multiplicity:                     1
 z-component of spin:  0.0
 Spatial symmetry:                      1
 Convergence criterion:  1.0E-09
 Construction of occupation graphs...
 Number of                     0 -fold excitations:                      1
 Number of                     1 -fold excitations:                    360
 Number of                     2 -fold excitations:                 172639
 Number of                     3 -fold excitations:               47871360
 Number of                     4 -fold excitations:             7205220632
 Total number of configurations:             7253264992
 Calculation of coupling coefficients...
 Length of intermediate file (Mbytes):   75000.3
 
 ======================================================================
 
 Spin case  1   Alpha:  0   Beta:  5
 Number of excitations:              264500082
 Spin case  2   Alpha:  1   Beta:  4
 Number of excitations:            33772701630
 Spin case  3   Alpha:  2   Beta:  3
 Number of excitations:           273174482496
 Number of                     5 -fold excitations:           614423368416
 
 Memory requirements /Mbyte/: 
               Minimal        Optimal
 Real*8:    1646703.2771   1646703.2771
 Integer:     20963.4491
 Total:     1667666.7262   1667666.7262
 

 ************************ 2017-03-03 17:20:53 *************************
 Executing goldstone...

 Generation of CC equations in terms of H and T...
 Generation of antisymmetrized Goldstone diagrams...
 Number of diagrams in T^1 equations:    15
 Number of diagrams in T^2 equations:    38
 Number of diagrams in T^3 equations:    54
 Number of diagrams in T^4 equations:    76
 Number of diagrams in T^5 equations:     8
 Translation of diagrams to factorized equations...
 Optimizing intermediate calculation...
 Number of floating-point operations per iteration step:   1.3866E+16
 Probable CPU time per iteration step (hours): 138659.17
 Required memory (Mbytes): *********
 Number of intermediates:                                 118
 Number of intermediates to be stored:                     51
 Length of intermediate file (Mbytes):  117957.6

 ************************ 2017-03-03 17:20:57 *************************
 Executing xmrcc...

 **********************************************************************
 CC(4)(5) calculation 
 
 
 Allocation of****** Mbytes of memory...
 Number of spinorbitals:                   396
 Number of alpha electrons:                        5
 Number of beta electrons:                         5
 Spin multiplicity:                     1
 z-component of spin:  0.0
 Spatial symmetry:                      1
 Convergence criterion:  1.0E-09
 Construction of occupation graphs...
 Number of                     0 -fold excitations:                      1
 Number of                     1 -fold excitations:                    360
 Number of                     2 -fold excitations:                 172639
 Number of                     3 -fold excitations:               47871360
 Number of                     4 -fold excitations:             7205220632
 Total number of configurations:             7253264992
 Calculation of coupling coefficients...
 Length of intermediate file (Mbytes):   75000.3
 
 ======================================================================
 
 Spin case  1   Alpha:  0   Beta:  5
 Number of excitations:              264500082
 Spin case  2   Alpha:  1   Beta:  4
 Number of excitations:            33772701630
 Spin case  3   Alpha:  2   Beta:  3
 Number of excitations:           273174482496
 Number of                     5 -fold excitations:           614423368416
 
 Memory requirements /Mbyte/: 
               Minimal        Optimal
 Real*8:    1582383.0129   1582383.0129
 Integer:     20963.4491
 Total:     1603346.4619   1603346.4619
 

 ************************ 2017-03-03 20:33:26 *************************
 Executing goldstone...

 Generation of MRCC equations in terms of H and T...
 Generation of antisymmetrized Goldstone diagrams...
 Number of diagrams in T^1 equations:    15
 Number of diagrams in T^2 equations:    38
 Number of diagrams in T^3 equations:    54
 Number of diagrams in T^4 equations:    76
 Number of diagrams in T^5 equations:     8
 Translation of diagrams to factorized equations...
 Number of restricted diagrams in T^1 equations:     78
 Number of restricted diagrams in T^2 equations:    344
 Number of restricted diagrams in T^3 equations:    892
 Number of restricted diagrams in T^4 equations:   1946
 Number of restricted diagrams in T^5 equations:    270
 Optimizing intermediate calculation...
 Number of floating-point operations per iteration step:   1.3867E+16
 Probable CPU time per iteration step (hours): 138670.23
 Required memory (Mbytes): 5279760.8
 Number of intermediates:                                 949
 Number of intermediates to be stored:                    408
 Length of intermediate file (Mbytes):  646622.6

 ************************ 2017-03-03 20:33:54 *************************
 Executing xmrcc...

 **********************************************************************
 MRCC(                     5 ) calculation 
 
 
 Allocation of****** Mbytes of memory...
 Number of spinorbitals:                   396
 Number of alpha electrons:                        5
 Number of beta electrons:                         5
 Number of active particles:                   194
 Number of active holes:                         0
 Spin multiplicity:                     1
 z-component of spin:  0.0
 Spatial symmetry:                      1
 Convergence criterion:  1.0E-09
 Construction of occupation graphs...
 Number of                     0 -fold excitations:                      1
 Number of                     1 -fold excitations:                    360
 Number of                     2 -fold excitations:                 172639
 Number of                     3 -fold excitations:               47871360
 Number of                     4 -fold excitations:             7205220632
 Total number of configurations:             7253264992
 Calculation of coupling coefficients...
 Request for               64959176  words of memory failed.
 
 Fatal error in xmrcc.
 Program will stop.
 
 ************************ 2017-03-05 01:46:11 *************************
                   Error at the termination of mrcc.
 **********************************************************************
--- SharcNET Job Epilogue ---
Job returned with status 1.
               jobid: 1362472
               resid: 2852268
         exit status: 1
      allocated time: 125544
           user time: 27063.2
         system time: 6726.91
peak rss=536527155200; peak vsz=862132539392 (bytes)
atime=125544; utime=27063.2; stime=6726.91; exit=1
