 --invoking executable--
/home/nike/cfour_v2.00beta/bin/xjoda


   *************************************************************************
         <<<     CCCCCC     CCCCCC   |||     CCCCCC     CCCCCC   >>>
       <<<      CCC        CCC       |||    CCC        CCC         >>>
      <<<      CCC        CCC        |||   CCC        CCC            >>>
    <<<        CCC        CCC        |||   CCC        CCC              >>>
      <<<      CCC        CCC        |||   CCC        CCC            >>>
       <<<      CCC        CCC       |||    CCC        CCC         >>>
         <<<     CCCCCC     CCCCCC   |||     CCCCCC     CCCCCC   >>>
   *************************************************************************

     ****************************************************************
     * CFOUR Coupled-Cluster techniques for Computational Chemistry *
     ****************************************************************
 

   Department of Chemistry                Institut fuer Physikalische Chemie
   University of Texas at Austin          Universitaet Mainz
   Austin, TX  78712, USA                 D-55099 Mainz, Germany
 
                       Version 2.00beta
 
                     wob106                                            
                     Tue Jan  1 20:45:09 EST 2019                      
                     integer*8 version is running
 
********************************************************************************
*                          Input from ZMAT file                                *
********************************************************************************
TITLE                                                                           
F                                                                               
                                                                                
*ACES2(CALC=CCSD                                                                
FROZEN_CORE=ON                                                                  
#DROPMO=1                                                                       
INPUT_MRCC=OFF                                                                  
CC_PROG=MRCC                                                                    
XFORM_TOL=18                                                                    
SAVE_INTS=ON                                                                    
SCF_EXPORDER=6                                                                  
SCF_EXPSTART=5                                                                  
#SCF_DAMPING=1000                                                               
SCF_EXTRAPOLATION=ON                                                            
SCF_CONV=10                                                                     
SCF_MAXCYC=9999                                                                 
CC_CONV=10                                                                      
CC_MAXCYC=999                                                                   
T3_EXTRAPOL=ON                                                                  
REFERENCE=ROHF                                                                  
CHARGE=+0                                                                       
MULT=2                                                                          
ABCDTYPE=STANDARD                                                               
OCCUPATION=2-1-1-0-1-0-0-0/2-1-1-0-0-0-0-0                                      
MEM=14                                                                          
MEM_UNIT=GB                                                                     
BASIS=SPECIAL)                                                                  
                                                                                
F:aVTZ-EMSL                                                                     
                                                                                
********************************************************************************
  @GTFLGS-W, Keyword #DROPMO not known and is ignored.
  @GTFLGS-W, Keyword #SCF_DAMPING not known and is ignored.
    -------------------------------------------------------------------
                    CFOUR Control Parameters 
    -------------------------------------------------------------------
        External           Internal           Value            Units
          Name               Name
    -------------------------------------------------------------------
       ABCDTYPE             IABCDT         STANDARD     [  0]   ***   
       ANHARMONIC           IANHAR         OFF          [  0]   ***   
       ANH_ALGORIT          IANALG         STANDARD     [  0]   ***   
       ANH_DERIVAT          IANDER         SECOND       [  1]   ***   
       ANH_STEPSIZ          ICUBST             50000          x 10-6  
       ANH_SYMMETR          IANHSM         ABELIAN      [  0]   ***   
       AO_LADDERS           IAOLAD         SINGLEPASS   [  1]   ***   
       BASIS                IBASIS         SPECIAL      [  0]   ***   
       BREIT                IBREIT         OFF          [  0]   ***   
       BRUCK_CONV           IBRTOL          10D-  4             ***   
       BRUECKNER            IBRKNR             OFF      [  0]   ***   
       BUFFERSIZE           IBUFFS            600               ***   
       CACHE_RECS           ICHREC             10               ***   
       CALCLEVEL            ICLLVL           CCSD       [ 10]   ***   
       CCORBOPT             ICCORB             OFF      [  0] x 0.01  
       CC_CONV              ICCCNV          10D- 10             ***   
       CC_EXPORDER          ICCEOR              5               ***   
       CC_EXTRAPOL          ICCEXT             DIIS     [  1]   ***   
       CC_MAXCYC            ICCCYC            999              cycles 
       CC_PROGRAM           ICCPRO         MRCC         [  2]   ***   
       CHARGE               ICHRGE              0               ***   
       CHOLESKY             ICHOLE         OFF          [  0]   ***   
       CIS_CONV             ICISTL              5               ***   
       COMM_SIZE            IPSIZE            ***               ***   
       CONSTANT             ICONST         OLD          [  1]   ***   
       CONTINUUM            ICONTU         NONE         [  0]   ***   
       CONTRACTION          ICNTYP          GENERAL     [  1]   ***   
       COORDINATES          ICOORD         INTERNAL     [  0]   ***   
       CPHF_CONVER          ICPHFT          10D- 16             ***   
       CPHF_MAXCYC          ICPHFC             64              cycles 
       CUBIC                ICUBIC         OFF          [  0]   ***   
       CURVILINEAR          ICURVY            OFF       [  0]   ***   
       DBOC                 IDBOC          OFF          [  0]   ***   
       DCT                  IDCT           OFF          [  0]   ***   
       DERIV_LEV            IDRLVL            ZERO      [  0]   ***   
       DIAG_MRCC            IEOMST          10D-  0             ***   
       DIFF_TYPE            IDIFTY         RELAXED      [  0]   ***   
       DIRECT               IDIRCT         OFF          [  0]   ***   
       DROPMO               IDRPMO      NONE         
       ECP                  IECP           OFF          [  0]   ***   
       EIGENVECTOR          IVEC                1               ***   
       EL_ANHARM            IELANH         OFF          [  0]   ***   
       EOMFOLLOW            IEOMSR         ENERGY       [  0]   ***   
       EOM_MRCC             IMRCCE         NEW          [  1]   ***   
       EOM_NONIT            EOMNON         OFF          [  0]   ***   
       EOM_NSING            IEOMSI          10D-  0             ***   
       EOM_NSTATES          IMRCCD         DAVIDSON     [  0]   ***   
       EOM_NTRIP            IEOMTR          10D-  0             ***   
       EOM_ORDER            IEXORD         ENERGY       [  0]   ***   
       ESTATE_CONV          IEXTOL          10D-  5             ***   
       ESTATE_DIAG          IEXDIG         ITERATIVE    [  0]   ***   
       ESTATE_LOCK          IESLOC         ON           [  1]   ***   
       ESTATE_MAXC          IEXMXC             20               ***   
       ESTATE_PROP          IEXPRP         OFF          [  0]   ***   
       EVAL_HESS            IRECAL              0            # of cyc.
       EXCITATION           IEXCIT              0               ***   
       EXCITE               IEXCIT         NONE         [  0]   ***   
       FCGRADNEW            IFCGNW         OFF          [  0]   ***   
       FC_FIELD             IFINFC              0             x 10-6  
       FD_CALTYPE           IFDCAL         GRADONLY     [  0]   ***   
       FD_PROJECT           IFDPRJ         OFF          [  1]   ***   
       FD_STEPSIZE          IDISFD              0            10-4 bohr
       FD_USEGROUP          IFDGRP         FULL         [  0]   ***   
       FILE_RECSIZ          IFLREC              4096           words  
       FINITE_PERT          IFIPER              0             x 10-6  
       FIXGEOM              IFIXGM         OFF          [  0]   ***   
       FOCK                 IFOCK          AO           [  1]   ***   
       FREQ_ALGORI          IVIALG         STANDARD     [  0]   ***   
       FROZEN_CORE          IFROCO         ON           [  1]   ***   
       FROZEN_VIRT          IFROVI         OFF          [  0]   ***   
       GAMMA_ABCD           IGABCD         STORE        [  0]   ***   
       GAMMA_ABCI           IGABCI         STORE        [  0]   ***   
       GENBAS_1             IGNBS1              0               ***   
       GENBAS_2             IGNBS2              0               ***   
       GENBAS_3             IGNBS3              0               ***   
       GENBAS_4             IGNBS4              0               ***   
       GEO_CONV             ICONTL              5              H/bohr 
       GEO_MAXCYC           IOPTCY             50               ***   
       GEO_MAXSTEP          IMXSTP            300            millibohr
       GEO_METHOD           INR            SINGLE_POINT [  5]   ***   
       GIAO                 IGIAO          OFF          [  1]   ***   
       GIMIC                IGIMIC         OFF          [  0]   ***   
       GRID                 IGRID          OFF          [  0]   ***   
       GRID_ALGO            IGALGO         SERIAL       [  0]   ***   
       GUESS                IGUESS            MOREAD    [  0]   ***   
       HBAR                 IHBAR              OFF      [  0]   ***   
       HESS_TYPE            IHESTP         SCF          [  0]   ***   
       HF2_FILE             IHF2Fl         USE          [  1]   ***   
       HFSTABILITY          ISTABL         OFF          [  0]   ***   
       INCORE               INCORE             OFF      [  0]   ***   
       INPUT_MRCC           IMRCC          OFF          [  0]   ***   
       INTEGRALS            INTTYP             VMOL     [  1]   ***   
       JODA_PRINT           IJPRNT              0               ***   
       LINDEP_TOL           ILINDP              8               ***   
       LINEQ_CONV           IZTACN          10D-  7           cycles  
       LINEQ_EXPOR          ILMAXD              5               ***   
       LINEQ_MAXCY          ILMAXC             50               ***   
       LINEQ_TYPE           ILTYPE         DIIS         [  1]   ***   
       LOCK_ORBOCC          ILOCOC             OFF      [  0]   ***   
       MEMORY_SIZE          IMEMSZ         *********           words  
       MEM_UNIT             IMEMU          GB           [  3]   ***   
       MRCC                 IMRCCC         OFF          [  0]   ***   
       MULTIPLICTY          IMULTP              2               ***   
       NEGEVAL              IDIE             ABORT      [  0]   ***   
       NEWNORM              INEWNO         OFF          [  0]   ***   
       NON-HF               INONHF              ON      [  1]   ***   
       NTOP_TAMP            ITOPT2             15               ***   
       NUC_MODEL            INUCMO         POINT        [  0]   ***   
       OCCUPATION           IOCCU  A   2,  1,  1,  0,  1,  0,  0,  0,
                                   B   2,  1,  1,  0,  0,  0,  0,  0,
       OPEN-SHELL           IOPEN          SPIN-ORBITAL [  0]   ***   
       ORBITALS             IORBTP         SEMICANONICAL[  1]   ***   
       PARALLEL             IPARAL         ON           [  1]   ***   
       PARA_INT             IPINTS         ON           [  1]   ***   
       PARA_PRINT           IPPRIN              0               ***   
       PERT_ORB             IPTORB         STANDARD     [  0]   ***   
       POINTS               IGRDFD              0               ***   
       PRINT                IPRNT               0               ***   
       PROPS                IPROPS             OFF      [  0]   ***   
       PROP_INTEGR          IINTYP         INTERNAL     [  0]   ***   
       PSI                  IPSI           OFF          [  0]   ***   
       QUARTIC              IQUART         OFF          [  0]   ***   
       RAMAN_INT            IRAMIN         OFF          [  0]   ***   
       RAMAN_ORB            IRAMRE         UNRELAXED    [  0]   ***   
       RDO                  IRDOFM             OFF      [  0]   ***   
       REFERENCE            IREFNC             ROHF     [  2]   ***   
       RELATIVIST           IRELAT         OFF          [  0]   ***   
       RELAX_DENS           IRDENS             OFF      [  0]   ***   
       RESET_FLAGS          IRESET             OFF      [  0]   ***   
       RESTART_CC           ICCRES         OFF          [  0]   ***   
       ROT_EVEC             ROTVEC              0               ***   
       SAVE_INTS            ISVINT              ON      [  1]   ***   
       SCALE_ON             ISTCRT              0               ***   
       SCF_CONV             ISCFCV          10D- 10             ***   
       SCF_DAMPING          IDAMP               0             x 10-3  
       SCF_EXPORDE          IRPPOR              6               ***   
       SCF_EXPSTAR          IRPPLS              5               ***   
       SCF_EXTRAPO          IRPP                ON      [  1]   ***   
       SCF_MAXCYC           ISCFCY            ***              cycles 
       SCF_NOSTOP           ISCFST         OFF          [  0]   ***   
       SCF_PRINT            ISCFPR              0               ***   
       SD_FIELD             IFINSD              0             x 10-6  
       SEQUENCE             ISEQUE         OFF          [  0]   ***   
       SOPERT               IPERSO         OFF          [  0]   ***   
       SPHERICAL            IDFGHI             ON       [  1]   ***   
       SPINORBIT            ISOCAL         OFF          [  0]   ***   
       SPINROTATIO          ISRCON         OFF          [  0]   ***   
       SPIN_FLIP            ISPFLP         OFF          [  0]   ***   
       SPIN_ORBIT           ISPORB         OFF          [  0]   ***   
       SPIN_SCAL            ISCSMP         OFF          [  0]   ***   
       SUBGROUP             ISUBGP         DEFAULT      [  0]   ***   
       SUBGRPAXIS           ISBXYZ         X            [  0]   ***   
       SYMMETRY             ISYM             ON         [  0]   ***   
       SYM_CHECK            ISYMCK         OVERRIDE     [  1]   ***   
       T3_EXTRAPOL          IT3EXT         ON           [  1]   ***   
       TAMP_SUM             IEVERY              5               ***   
       TESTSUITE            ITESTS         OFF          [  0]   ***   
       THERMOCH             ITHERM         OFF          [  0]   ***   
       TOL_CHOLESK          ITOLCH          10D-  4             ***   
       TRANGRAD             IRESRM         OFF          [  0]   ***   
       TRANS_INV            ITRAIN         USE          [  0]   ***   
       TREAT_PERT           ITREAT         SIMULTANEOUS [  0]   ***   
       UIJ_THRESHO          IUIJTH              1               ***   
       UNITS                IUNITS         ANGSTROM     [  0]   ***   
       UNOS                 IUNOS          OFF          [  0]   ***   
       UPDATE_HESS          IHUPDT         ON           [  1]   ***   
       VIBPHASE             ISETPH         STANDARD     [  0]   ***   
       VIBRATION            IVIB              NO        [  0]   ***   
       VIB_ALGORIT          IGEALG         STANDARD     [  0]   ***   
       VNATORB              IVNORB         OFF          [  0]   ***   
       VTRAN                IVTRAN         FULL/PARTIAL [  0]   ***   
       XFIELD               IXEFLD              0             x 10-6  
       XFORM_TOL            IXFTOL          10D- 18             ***   
       YFIELD               IYEFLD              0             x 10-6  
       ZFIELD               IZEFLD              0             x 10-6  
    -------------------------------------------------------------------
   1 entries found in Z-matrix 
   Job Title : TITLE                                                                           
  1  F          9    18.99840
 factor:   60.1997200000000     
   Rotational constants (in cm-1): 

   Rotational constants (in MHz): 

********************************************************************************
   The full molecular point group is I h .
   The largest Abelian subgroup of the full molecular point group is D2h .
   The computational point group is D2h .
********************************************************************************
  @GTFLGS-W, Keyword #DROPMO not known and is ignored.
  @GTFLGS-W, Keyword #SCF_DAMPING not known and is ignored.
  There is   1 frozen-core orbital.
  There is   1 frozen-core orbital.
  There are   46 basis functions.
 @GEOPT-W, Archive file not created for single-point calculation.
  @CHECKOUT-I, Total execution time (CPU/WALL):        0.45/       2.27 seconds.
--executable xjoda finished with status     0 in        2.81 seconds (walltime).
 --invoking executable--
/home/nike/cfour_v2.00beta/bin/xvmol
 Serial version of molecule started
********************************************************************************
                    Input from MOL file
********************************************************************************
INTGRL        1    0    1    0    0    0    0    0    0                         
         *** CFOUR Program System (Release V0.1) ***                            
TITLE                                                                           
    1    3 X  Y   Z   0.10E-08              0    0                              
   9999.00      3.00                                                            
          9.00000000    1    4    1    1    1    1                              
F #1   0.000000000000000   0.000000000000000   0.000000000000000                
   11    5                                                                      
   19500.0000000000       5.070000000000000E-004 -1.170000000000000E-004        
  0.000000000000000E+000  0.000000000000000E+000  0.000000000000000E+000        
   2923.00000000000       3.923000000000000E-003 -9.120000000000001E-004        
  0.000000000000000E+000  0.000000000000000E+000  0.000000000000000E+000        
   664.500000000000       2.020000000000000E-002 -4.717000000000000E-003        
  0.000000000000000E+000  0.000000000000000E+000  0.000000000000000E+000        
   187.500000000000       7.901000000000000E-002 -1.908600000000000E-002        
  0.000000000000000E+000  0.000000000000000E+000  0.000000000000000E+000        
   60.6200000000000       0.230439000000000      -5.965500000000000E-002        
  0.000000000000000E+000  0.000000000000000E+000  0.000000000000000E+000        
   21.4200000000000       0.432872000000000      -0.140010000000000             
  0.000000000000000E+000  0.000000000000000E+000  0.000000000000000E+000        
   7.95000000000000       0.349964000000000      -0.176782000000000             
  0.000000000000000E+000  0.000000000000000E+000  0.000000000000000E+000        
   2.25700000000000       4.323300000000000E-002  0.171625000000000             
   1.00000000000000       0.000000000000000E+000  0.000000000000000E+000        
  0.881500000000000      -7.892000000000000E-003  0.605043000000000             
  0.000000000000000E+000  0.000000000000000E+000  0.000000000000000E+000        
  0.304100000000000       2.384000000000000E-003  0.369512000000000             
  0.000000000000000E+000   1.00000000000000       0.000000000000000E+000        
  9.157999999999999E-002  0.000000000000000E+000  0.000000000000000E+000        
  0.000000000000000E+000  0.000000000000000E+000   1.00000000000000             
    6    4                                                                      
   43.8800000000000       1.666500000000000E-002  0.000000000000000E+000        
  0.000000000000000E+000  0.000000000000000E+000                                
   9.92600000000000       0.104472000000000       0.000000000000000E+000        
  0.000000000000000E+000  0.000000000000000E+000                                
   2.93000000000000       0.317260000000000       0.000000000000000E+000        
  0.000000000000000E+000  0.000000000000000E+000                                
  0.913200000000000       0.487343000000000        1.00000000000000             
  0.000000000000000E+000  0.000000000000000E+000                                
  0.267200000000000       0.334604000000000       0.000000000000000E+000        
   1.00000000000000       0.000000000000000E+000                                
  7.360999999999999E-002  0.000000000000000E+000  0.000000000000000E+000        
  0.000000000000000E+000   1.00000000000000                                     
    3    3                                                                      
   3.10700000000000        1.00000000000000       0.000000000000000E+000        
  0.000000000000000E+000                                                        
  0.855000000000000       0.000000000000000E+000   1.00000000000000             
  0.000000000000000E+000                                                        
  0.292000000000000       0.000000000000000E+000  0.000000000000000E+000        
   1.00000000000000                                                             
    2    2                                                                      
   1.91700000000000        1.00000000000000       0.000000000000000E+000        
  0.724000000000000       0.000000000000000E+000   1.00000000000000             
FINISH                                                                          
 
********************************************************************************
 One- and two-electron integrals over symmetry-adapted AOs are calculated.

  Spherical harmonics are used.
  
  Integrals less than  0.10E-13 are neglected.

  Nuclear repulsion energy :    0.0000000000 a.u.
  required memory for a1 array                5088344  words 
  required memory for a2 array                2321804  words 
 @GETMEM-I,  Allocated      71 MB of main memory.
  @MOLECU-I, One electron integrals (CPU/WALL):        0.03/       0.04 seconds.
  @TWOEL-I,       2746 integrals of symmetry type  I I I I
  @TWOEL-I,      17282 integrals of symmetry type  I J I J
  @TWOEL-I,      11560 integrals of symmetry type  I I J J
  @TWOEL-I,      29967 integrals of symmetry type  I J K L
  @TWOEL-I, Total number of 2-e integrals      61555.
  @MOLECU-I, Two electron integrals (CPU/WALL):        0.11/       0.22 seconds.
  @CHECKOUT-I, Total execution time (CPU/WALL):        0.16/       0.31 seconds.
--executable xvmol finished with status     0 in        0.53 seconds (walltime).
 --invoking executable--
/home/nike/cfour_v2.00beta/bin/xvmol2ja
 @GETMEM-I,  Allocated   13351 MB of main memory.
  @CHECKOUT-I, Total execution time (CPU/WALL):        0.00/       0.02 seconds.
--executable xvmol2ja finished with status     0 in        0.19 seconds (walltime).
 --invoking executable--
/home/nike/cfour_v2.00beta/bin/xvscf
  There are   46 functions in the AO basis.

  There are 8 irreducible representations.

       Irrep        # of functions
         1                 11
         2                  8
         3                  8
         4                  3
         5                  8
         6                  3
         7                  3
         8                  2


  Parameters for SCF calculation: 
        SCF reference function: ROHF  
  Maximum number of iterations: 9999
     Full symmetry point group: I h 
     Computational point group: D2h 
        Initial density matrix: MOREAD                 
     SCF convergence tolerance: 10**(-10)
  DIIS convergence acceleration:  ON
          Latest start for DIIS:   5
                     DIIS order:   6

     Alpha population by irrep:   2    1    1    0    1    0    0    0
      Beta population by irrep:   2    1    1    0    0    0    0    0


  Memory information:     139288 words required.
  Fock matrices are constructed from AO integral file.
 @GETMEM-I,  Allocated       1 MB of main memory.
  Initialization and symmetry analysis required      0.002 seconds.

 total no. of electrons in initial guess :  0.000000000000000E+000
 total no. of electrons in initial guess :  0.000000000000000E+000
  --------------------------------------------------------------------
  Iteration         Total Energy            Largest Density Difference
  --------------------------------------------------------------------
       0             0.000000000000000              0.0000000000D+00
   current occupation vector 
     2  1  1  0  1  0  0  0
     2  1  1  0  0  0  0  0
       1           -88.968785604110565              0.5466825861D+01
   current occupation vector 
     2  1  1  0  1  0  0  0
     2  1  1  0  0  0  0  0
       2           -89.856899379840357              0.5466000567D+01
   current occupation vector 
     2  1  1  0  1  0  0  0
     2  1  1  0  0  0  0  0
       3           -96.943707059016859              0.2659648578D+01
   current occupation vector 
     2  1  1  0  1  0  0  0
     2  1  1  0  0  0  0  0
       4           -97.007737643932302              0.2640706523D+01
   current occupation vector 
     2  1  1  0  1  0  0  0
     2  1  1  0  0  0  0  0
       5           -98.802496236043368              0.1676691226D+01
   current occupation vector 
     2  1  1  0  1  0  0  0
     2  1  1  0  0  0  0  0
       6           -99.397136255597147              0.6451235143D+00
   current occupation vector 
     2  1  1  0  1  0  0  0
     2  1  1  0  0  0  0  0
       7           -99.402041483879856              0.4678649133D-01
   current occupation vector 
     2  1  1  0  1  0  0  0
     2  1  1  0  0  0  0  0
       8           -99.402082246892775              0.7091911428D-02
   current occupation vector 
     2  1  1  0  1  0  0  0
     2  1  1  0  0  0  0  0
       9           -99.402083062246575              0.1609724672D-02
   current occupation vector 
     2  1  1  0  1  0  0  0
     2  1  1  0  0  0  0  0
      10           -99.402083120636831              0.3339198448D-03
   current occupation vector 
     2  1  1  0  1  0  0  0
     2  1  1  0  0  0  0  0
      11           -99.402083121375327              0.1892626390D-04
   current occupation vector 
     2  1  1  0  1  0  0  0
     2  1  1  0  0  0  0  0
      12           -99.402083121383029              0.3893555260D-05
   current occupation vector 
     2  1  1  0  1  0  0  0
     2  1  1  0  0  0  0  0
      13           -99.402083121383100              0.5159041387D-06
   current occupation vector 
     2  1  1  0  1  0  0  0
     2  1  1  0  0  0  0  0
      14           -99.402083121383171              0.4270161891D-07
   current occupation vector 
     2  1  1  0  1  0  0  0
     2  1  1  0  0  0  0  0
      15           -99.402083121382958              0.2215977180D-08
   current occupation vector 
     2  1  1  0  1  0  0  0
     2  1  1  0  0  0  0  0
      16           -99.402083121382930              0.1725480939D-09
   current occupation vector 
     2  1  1  0  1  0  0  0
     2  1  1  0  0  0  0  0
      17           -99.402083121383001              0.1015917576D-09
   current occupation vector 
     2  1  1  0  1  0  0  0
     2  1  1  0  0  0  0  0

  SCF has converged.

 Density matrix saved to file den.dat
 total alpha spin electron number:   5.00000000000000     
 total  beta spin electron number:   4.00000000000000     
     E(ROHF)=       -99.402083121383072              0.2867426782D-10

  Eigenvector printing suppressed.


       The average multiplicity is    2.0000000
  The expectation value of S**2 is    0.7500000

 @PUTMOS-I, Writing converged MOs to NEWMOS. 
 @PUTMOS-I, Symmetry   1 Full Blocks  2 Partial Blocksize   3
 @PUTMOS-I, Symmetry   2 Full Blocks  2 Partial Blocksize   0
 @PUTMOS-I, Symmetry   3 Full Blocks  2 Partial Blocksize   0
 @PUTMOS-I, Symmetry   4 Full Blocks  0 Partial Blocksize   3
 @PUTMOS-I, Symmetry   5 Full Blocks  2 Partial Blocksize   0
 @PUTMOS-I, Symmetry   6 Full Blocks  0 Partial Blocksize   3
 @PUTMOS-I, Symmetry   7 Full Blocks  0 Partial Blocksize   3
 @PUTMOS-I, Symmetry   8 Full Blocks  0 Partial Blocksize   2
  @DMPJOB-I, Rotating orbitals to semicanonical basis.
             *** Eigenvalues correspond to new basis. ***



 
  ORBITAL EIGENVALUES (ALPHA)  (1H = 27.2113838 eV)

       MO #        E(hartree)               E(eV)           FULLSYM    COMPSYM
       ----   --------------------   --------------------   -------   ---------
    1     1         -26.4097496924        -718.6458354583      Ag        Ag (1)
    2     2          -1.6654581303         -45.3194204193      Ag        Ag (1)
    3    31          -0.8346833775         -22.7128897525      Au       B1u (5)
    4    20          -0.7293106040         -19.8455507680       u       B3u (3)
    5    12          -0.7293106040         -19.8455507680       u       B2u (2)
  +++++++++++++++++++++++++++++++++++++++++++++++++++++++++++++++++++++++++++++
    6    32           0.1863305142           5.0703111390      Au       B1u (5)
    7     3           0.1942640724           5.2861942357      Ag        Ag (1)
    8    13           0.1962056335           5.3390268009       u       B2u (2)
    9    21           0.1962056335           5.3390268009       u       B3u (3)
   10     4           0.8467628802          23.0415897380      Ag        Ag (1)
   11    42           0.8536746628          23.2296689078       g       B2g (7)
   12    39           0.8536746628          23.2296689078       g       B3g (6)
   13     5           0.8722190201          23.7342865309       g        Ag (1)
   14    28           0.8722190201          23.7342865309       g       B1g (4)
   15    33           1.0623686154          28.9085201516      Au       B1u (5)
   16    14           1.1100001270          30.2046394955       u       B2u (2)
   17    22           1.1100001270          30.2046394955       u       B3u (3)
   18     6           1.5966723214          43.4476633714      Ag        Ag (1)
   19     7           2.7443582482          74.6777856295      Ag        Ag (1)
   20    43           2.7634243081          75.1965995035       g       B2g (7)
   21    40           2.7634243081          75.1965995035       g       B3g (6)
   22    29           2.8152388726          76.6065455066       g       B1g (4)
   23     8           2.8152388726          76.6065455066       g        Ag (1)
   24    34           2.8565306953          77.7301531432      Au       B1u (5)
   25    15           2.8619422906          77.8774101393       u       B2u (2)
   26    23           2.8619422906          77.8774101393       u       B3u (3)
   27    45           2.8781971931          78.3197285288       u        Au (8)
   28    35           2.8781971931          78.3197285288       u       B1u (5)
   29    16           2.9048772773          79.0457305408       u       B2u (2)
   30    24           2.9048772773          79.0457305408       u       B3u (3)
   31    36           5.0657891346         137.8471324894      Au       B1u (5)
   32    25           5.1507119157         140.1579988813       u       B3u (3)
   33    17           5.1507119157         140.1579988813       u       B2u (2)
   34    37           8.6824581185         236.2617003605      Au       B1u (5)
   35    18           8.6929764807         236.5479195512       u       B2u (2)
   36    26           8.6929764807         236.5479195512       u       B3u (3)
   37    46           8.7246059545         237.4086013030       u        Au (8)
   38    38           8.7246059545         237.4086013030       u       B1u (5)
   39    27           8.7768069428         238.8290624298       u       B3u (3)
   40    19           8.7768069428         238.8290624298       u       B2u (2)
   41     9           9.1206095019         248.1844058242      Ag        Ag (1)
   42    41           9.1469551109         248.9013063045       g       B3g (6)
   43    44           9.1469551109         248.9013063045       g       B2g (7)
   44    30           9.2229108860         250.9681680536       g       B1g (4)
   45    10           9.2229108860         250.9681680536       g        Ag (1)
   46    11          10.4311477086         283.8459639773      Ag        Ag (1)


 
  ORBITAL EIGENVALUES ( BETA)  (1H = 27.2113838 eV)

       MO #        E(hartree)               E(eV)           FULLSYM    COMPSYM
       ----   --------------------   --------------------   -------   ---------
    1     1         -26.3661785329        -717.4602039130      Ag        Ag (1)
    2     2          -1.4847219427         -40.4013386489      Ag        Ag (1)
    3    20          -0.6832299876         -18.5916334295       u       B3u (3)
    4    12          -0.6832299876         -18.5916334295       u       B2u (2)
  +++++++++++++++++++++++++++++++++++++++++++++++++++++++++++++++++++++++++++++
    5    31           0.0300468923           0.8176175197      Au       B1u (5)
    6    21           0.1978641231           5.3841565991       u       B3u (3)
    7    13           0.1978641231           5.3841565991       u       B2u (2)
    8     3           0.2019299043           5.4947921312      Ag        Ag (1)
    9    32           0.2415767001           6.5736363084      Au       B1u (5)
   10    28           0.8752554288          23.8169114136       g       B1g (4)
   11     4           0.8752554288          23.8169114136       g        Ag (1)
   12    42           0.8757147208          23.8294093842       g       B2g (7)
   13    39           0.8757147208          23.8294093842       g       B3g (6)
   14     5           0.8764454557          23.8492936908      Ag        Ag (1)
   15    14           1.1226324495          30.5483824723       u       B2u (2)
   16    22           1.1226324495          30.5483824723       u       B3u (3)
   17    33           1.2074848261          32.8573330599      Au       B1u (5)
   18     6           1.6368878976          44.5419848512      Ag        Ag (1)
   19    29           2.8275301406          76.9410079160       g       B1g (4)
   20     7           2.8275301406          76.9410079160       g        Ag (1)
   21    43           2.8468526316          77.4667996365       g       B2g (7)
   22    40           2.8468526316          77.4667996365       g       B3g (6)
   23     8           2.8551055965          77.6913742323      Ag        Ag (1)
   24    34           2.8856208809          78.5217373481      Au       B1u (5)
   25    15           2.8879641613          78.5855012514       u       B2u (2)
   26    23           2.8879641613          78.5855012514       u       B3u (3)
   27    45           2.8953420638          78.7862641873       u        Au (8)
   28    35           2.8953420638          78.7862641873       u       B1u (5)
   29    16           2.9082044926          79.1362686747       u       B2u (2)
   30    24           2.9082044926          79.1362686747       u       B3u (3)
   31    25           5.1727778349         140.7584430781       u       B3u (3)
   32    17           5.1727778349         140.7584430781       u       B2u (2)
   33    36           5.2358588449         142.4749646536      Au       B1u (5)
   34    37           8.7510337083         238.1277370535      Au       B1u (5)
   35    18           8.7545603418         238.2237016315       u       B2u (2)
   36    26           8.7545603418         238.2237016315       u       B3u (3)
   37    46           8.7656460153         238.5253581479       u        Au (8)
   38    38           8.7656460153         238.5253581479       u       B1u (5)
   39    27           8.7850281154         239.0527719139       u       B3u (3)
   40    19           8.7850281154         239.0527719139       u       B2u (2)
   41    30           9.2394276366         251.4176116915       g       B1g (4)
   42     9           9.2394276366         251.4176116915       g        Ag (1)
   43    44           9.2485457197         251.6657273525       g       B2g (7)
   44    41           9.2485457197         251.6657273525       g       B3g (6)
   45    10           9.2524529509         251.7720485205      Ag        Ag (1)
   46    11          10.4749680277         285.0383754993      Ag        Ag (1)


  VSCF finished.

  @CHECKOUT-I, Total execution time (CPU/WALL):        0.17/       0.86 seconds.
--executable xvscf finished with status     0 in        1.05 seconds (walltime).
 --invoking executable--
/home/nike/cfour_v2.00beta/bin/xvtran
 @GETMEM-I,  Allocated   13351 MB of main memory.
  Full UHF integral transformation
  The following   1 alpha MOs will be dropped.
    1
  There are  45 active alpha molecular orbitals.
  The following   1 beta MOs will be dropped.
    1
  There are  45 active beta molecular orbitals.
  Transformation of IIII integrals :
  2 passes through the AO integral file were required.
        2746 AO integrals were read.
        3607 MO integrals (Spin case AAAA) were written to HF2AA.
        3607 MO integrals (Spin case BBBB) were written to HF2BB.
        7030 MO integrals (Spin case AABB) were written to HF2AB.
  Transformation of IIJJ integrals :
  2 passes through the AO integral file were required.
       11560 AO integrals were read.
       13413 MO integrals (Spin case AAAA) were written to HF2AA.
       13413 MO integrals (Spin case BBBB) were written to HF2BB.
       26826 MO integrals (Spin case AABB) were written to HF2AB.
  Transformation of IJIJ integrals :
  2 passes through the AO integral file were required.
       17282 AO integrals were read.
       20871 MO integrals (Spin case AAAA) were written to HF2AA.
       20871 MO integrals (Spin case BBBB) were written to HF2BB.
       40891 MO integrals (Spin case AABB) were written to HF2AB.
  Transformation of IJKL integrals :
  2 passes through the AO integral file were required.
       29967 AO integrals were read.
       31962 MO integrals (Spin case AAAA) were written to HF2AA.
       31962 MO integrals (Spin case BBBB) were written to HF2BB.
       63924 MO integrals (Spin case AABB) were written to HF2AB.
  Summary of active molecular orbitals: 
------------------------------------------------------------------------
                         * Spin case alpha *
 
  Index      Eigenvalue    Symmetry    Index      Eigenvalue    Symmetry
------------------------------------------------------------------------
     1        -1.6654581        1        24         2.9048773        3
     2        -0.7293106        2        25         5.1507119        3
     3        -0.7293106        3        26         8.6929765        3
     4        -0.8346834        5        27         8.7768069        3
     5         0.1942641        1        28         0.8722190        4
     6         0.8467629        1        29         2.8152389        4
     7         0.8722190        1        30         9.2229109        4
     8         1.5966723        1        31         0.1863305        5
     9         2.7443582        1        32         1.0623686        5
    10         2.8152389        1        33         2.8565307        5
    11         9.1206095        1        34         2.8781972        5
    12         9.2229109        1        35         5.0657891        5
    13        10.4311477        1        36         8.6824581        5
    14         0.1962056        2        37         8.7246060        5
    15         1.1100001        2        38         0.8536747        6
    16         2.8619423        2        39         2.7634243        6
    17         2.9048773        2        40         9.1469551        6
    18         5.1507119        2        41         0.8536747        7
    19         8.6929765        2        42         2.7634243        7
    20         8.7768069        2        43         9.1469551        7
    21         0.1962056        3        44         2.8781972        8
    22         1.1100001        3        45         8.7246060        8
    23         2.8619423        3
------------------------------------------------------------------------
------------------------------------------------------------------------
                         * Spin case beta *
 
  Index      Eigenvalue    Symmetry    Index      Eigenvalue    Symmetry
------------------------------------------------------------------------
     1        -1.4847219        1        24         5.1727778        3
     2        -0.6832300        2        25         8.7545603        3
     3        -0.6832300        3        26         8.7850281        3
     4         0.2019299        1        27         0.8752554        4
     5         0.8752554        1        28         2.8275301        4
     6         0.8764455        1        29         9.2394276        4
     7         1.6368879        1        30         0.0300469        5
     8         2.8275301        1        31         0.2415767        5
     9         2.8551056        1        32         1.2074848        5
    10         9.2394276        1        33         2.8856209        5
    11         9.2524530        1        34         2.8953421        5
    12        10.4749680        1        35         5.2358588        5
    13         0.1978641        2        36         8.7510337        5
    14         1.1226324        2        37         8.7656460        5
    15         2.8879642        2        38         0.8757147        6
    16         2.9082045        2        39         2.8468526        6
    17         5.1727778        2        40         9.2485457        6
    18         8.7545603        2        41         0.8757147        7
    19         8.7850281        2        42         2.8468526        7
    20         0.1978641        3        43         9.2485457        7
    21         1.1226324        3        44         2.8953421        8
    22         2.8879642        3        45         8.7656460        8
    23         2.9082045        3
------------------------------------------------------------------------
  @CHECKOUT-I, Total execution time (CPU/WALL):        0.09/       0.58 seconds.
--executable xvtran finished with status     0 in        0.76 seconds (walltime).
 --invoking executable--
/home/nike/cfour_v2.00beta/bin/xintprc
 @GETMEM-I,  Allocated   13351 MB of main memory.
  Processing integrals for CCSD calculation.
  @GMOIAA-I, Processing MO integrals for spin case AA.
  @GMOIAA-I, Generation of integral list completed.
                      TYPE                NUMBER
                      ----               --------
                      PPPP                 48144
                      PPPH                 18360
                      PPHH                  1860
                      PHPH                  1230
                      PHHH                   243
                      HHHH                    16

                     TOTAL                 69853
  @GMOIAA-I, Processing MO integrals for spin case BB.
  @GMOIAA-I, Generation of integral list completed.
                      TYPE                NUMBER
                      ----               --------
                      PPPP                 52994
                      PPPH                 14791
                      PPHH                  1132
                      PHPH                   803
                      PHHH                   124
                      HHHH                     9

                     TOTAL                 69853
  @GMOIAB-I, Processing MO integrals for spin case AB.
                      TYPE                NUMBER
                      ----               --------
                      PPPP                100119
                      PPPH1H               19267
                      PPPH2H               14127
                      PPHH                  2739
                      PHPH1P                 771
                      PHPH2P                1293
                      PHHH1P                 153
                      PHHH2P                 187
                      HHHH                    15

                     TOTAL                138671
            ----------------------------------------------
                     Projected spin multiplicities: 
            ----------------------------------------------
             <0|S^2|0>                  =    0.7500000000.
             <0|S^2 T2|0>               =    0.0000000000.
             Projected <0|S^2 exp(T)|0> =    0.7500000000.
             Approximate spin mult.     =    2.0000000000.
            ----------------------------------------------
   Largest T2 amplitudes for spin case AA:
   i   j   a   b             i   j   a   b             i   j   a   b
-----------------------------------------------------------------------------
[  3   2  22  15]-0.02022 [  4   3  32  22]-0.01932 [  4   2  32  15]-0.01932
[  3   2  29  10]-0.01284 [  4   2  39   9] 0.01132 [  4   3  42   9] 0.01132
[  3   1  22   8]-0.01131 [  2   1  15   8]-0.01131 [  3   2  21  15]-0.01098
[  3   2  22  14]-0.01098 [  4   1  32   8]-0.01073 [  4   3  32  21]-0.01043
[  4   2  32  14]-0.01043 [  4   2  31  15]-0.00959 [  4   3  31  22]-0.00959
-----------------------------------------------------------------------------
   Norm of T2AA vector (      630 symmetry allowed elements):  0.0744077055.
-----------------------------------------------------------------------------
   Largest T2 amplitudes for spin case BB:
   i   j   a   b             i   j   a   b             i   j   a   b
-----------------------------------------------------------------------------
[  3   2  21  14]-0.02060 [  3   2  28   8]-0.01297 [  3   1  21   7]-0.01168
[  2   1  14   7]-0.01168 [  3   2  20  14]-0.01117 [  3   2  21  13]-0.01117
[  3   2  27   5]-0.00919 [  3   1  42  30]-0.00872 [  2   1  39  30]-0.00872
[  3   2  21  17]-0.00871 [  3   2  24  14]-0.00871 [  3   2  28   5]-0.00831
[  3   2  27   8]-0.00831 [  3   2  24  17]-0.00797 [  3   2  20  13]-0.00753
-----------------------------------------------------------------------------
   Norm of T2BB vector (      329 symmetry allowed elements):  0.0526885988.
-----------------------------------------------------------------------------
   Largest T2 amplitudes for spin case AB:
       _       _                 _       _                 _       _
   i   j   a   b             i   j   a   b             i   j   a   b
-----------------------------------------------------------------------------
[  3   3  22  21]-0.03079 [  2   2  15  14]-0.03079 [  3   2  22  14]-0.02387
[  2   3  15  21]-0.02387 [  4   3  32  21]-0.02279 [  4   2  32  14]-0.02279
[  4   1   9  30]-0.01896 [  3   1  22   7]-0.01832 [  2   1  15   7]-0.01832
[  1   3   8  21]-0.01786 [  1   2   8  14]-0.01786 [  4   1  32   7]-0.01757
[  3   1  42  30]-0.01642 [  2   1  39  30]-0.01642 [  3   3  21  21]-0.01552
-----------------------------------------------------------------------------
   Norm of T2AB vector (     2739 symmetry allowed elements):  0.1577963615.
-----------------------------------------------------------------------------
  @CHECKOUT-I, Total execution time (CPU/WALL):        0.09/       1.32 seconds.
--executable xintprc finished with status     0 in        2.51 seconds (walltime).
 --invoking executable--
/home/nike/cfour_v2.00beta/bin/xint
 @GETMEM-I,  Allocated   13351 MB of main memory.
  @CHECKOUT-I, Total execution time (CPU/WALL):        1.03/       1.04 seconds.
--executable xint finished with status     0 in        2.16 seconds (walltime).
 --invoking executable--
/home/nike/MRCC/dmrcc
 **********************************************************************
                          MRCC program system
 **********************************************************************
 
                              Written by
    Mihaly Kallay, Zoltan Rolik, Jozsef Csontos, Istvan Ladjanszki,
       Lorant Szegedy, Bence Ladoczki, Gyula Samu, Klara Petrov,
        Mate Farkas, Peter Nagy, David Mester, and Bence Hegely
 
        Department of Physical Chemistry and Materials Science
            Budapest University of Technology and Economics
                  Budapest P.O.Box 91, H-1521 Hungary
 
                              www.mrcc.hu

 ************************ 2019-01-01 20:45:19 *************************
 Executing minp...

 Reading input from MINP...
 
 Input file:
 
# F  3Z
basis=aVTZ-EMSL
iface=cfour
uncontract=off
calc=CC(7)
mem=31GB
core=1
itol=18
scftol=13
cctol=7
ccmaxit=999
scfmaxit=9999
scfiguess=ao
scftype=ROHF
rohftype=semicanonical
rest=2
charge=+0
refdet=serialno
1-3
4

symm=5
mult=2
#occ=3,0,0,0,0,1,0,0/1,0,0,0,0,1,0,0
geom
F 

#Li 1 R

#R=3.065

#unit=angstroms

tprint=0.01
verbosity=7
#nstate=4

 
 
 Checking keyword combinations...
 
 Keywords:
 
 active=none
 agrid=ld0006-ld0590
 basis=avtz-emsl
 basopt=off
 bpcompo=0.985
 bpcompv=0.98
 bpdfo=0.985
 bpocc=0.985
 bppdo=0.985
 bppdv=0.98
 bpedo=0.985
 bpedv=0.98
 calc=cc(7)
 ccmaxit=999
 ccprog=mrcc
 cctol=7
 charge=+0
 cialg=disk
 ciguess=off
 cmpgrp=auto
 core=1
 corembed=off
 dboc=off
 dendec=cholesky
 dens=0
 dfalg=invsqrt
 dfbasis_cor=none
 dfbasis_scf=none
 dfintran=ovirt
 dft=off
 diag=david
 domrad=10.d0
 drpaalg=fit
 ecp=auto
 edisp=off
 embed=off
 epert=none
 eps=0.975
 excrad=0.d0
 excrad_fin=0.000000000D+00
 freq=off
 gauss=spher
 geom=zmat
 gopt=off
 ghost=none
 gtol=7
 grtol=10
 hamilton=dc
 iface=cfour
 intalg=auto
 itol=18
 lcorthr=loose
 lccrest=off
 lmp2dens=on
 lnoepso=3e-5
 lnoepsv=1e-6
 localcc=off
 locintrf=disk
 maxact=off
 maxex=0
 bfbasis=none
 mem=31gb
 molden=on
 mulmet=0
 mult=2
 nacto=0
 nactv=0
 naf_cor=off
 naf_scf=off
 nafalg=albe
 naftyp=
 nchol=auto
 ndeps=1e-3
 nstate=1
 nsing=0
 ntrip=0
 occ=
 optalg=
 optmaxit=50
 optetol=1e-6
 optgtol=1e-4
 optstol=1e-3
 orblocc=off
 orbloco=off
 orblocv=off
 osveps=1e-3
 ovirt=off
 ovosnorb=80.0
 ptfreq=0.0
 popul=off
 pressure=100000
 qmmm=off
 refdet=serialno
 rest=2
 rgrid=log3
 rohftype=semicanonical
 scspe=1.d0
 scsps=1.2d0
 scspt=0.33333333333333
 scfalg=auto
 scfdamp=off
 scfdiis=on
 scfdiis_end=9999
 scfdiis_start=1
 scfdiis_step=1
 scfdtol=17
 scfext=10
 scfiguess=ao
 scflshift=off
 scfmaxit=9999
 scftype=rohf
 scftol=13
 spairtol=1e-4
 symm=5
 talg=occ
 temp=298.15
 test=off
 tprint=0.01
 uncontract=off
 unit=angs
 verbosity=7
 wpairtol=0.100000000E-05

 ************************ 2019-01-01 20:45:20 *************************
 Executing goldstone...

 Generation of CC equations in terms of H and T...
 Generation of antisymmetrized Goldstone diagrams...
 Number of diagrams in T^1 equations:    15
 Number of diagrams in T^2 equations:    38
 Number of diagrams in T^3 equations:    54
 Number of diagrams in T^4 equations:    81
 Number of diagrams in T^5 equations:   106
 Number of diagrams in T^6 equations:   141
 Number of diagrams in T^7 equations:   169
 Translation of diagrams to factorized equations...
 Optimizing intermediate calculation...
 Number of floating-point operations per iteration step:   8.9879E+13
 Probable CPU time per iteration step (hours):    898.79
 Required memory (Mbytes):  315686.4
 Number of intermediates:                                 243
 Number of intermediates to be stored:                     88
 Length of intermediate file (Mbytes):   10583.3

 ************************ 2019-01-01 20:45:21 *************************
 Executing xmrcc...

 **********************************************************************
 CC(                     7 ) calculation 
 
 
 Allocation of****** Mbytes of memory...
 Number of spinorbitals:                    90
 Number of alpha electrons:                        4
 Number of beta electrons:                         3
 Spin multiplicity:                     2
 z-component of spin:  0.5
 Spatial symmetry:                      5
 Convergence criterion:  1.0E-07
 Construction of occupation graphs...
 Number of                     0 -fold excitations:                      1
 Number of                     1 -fold excitations:                     53
 Number of                     2 -fold excitations:                   3698
 Number of                     3 -fold excitations:                 137170
 Number of                     4 -fold excitations:                2508549
 Number of                     5 -fold excitations:               22425054
 Number of                     6 -fold excitations:               93888437
 Number of                     7 -fold excitations:              145315892
 Total number of configurations:              264278854
 Calculation of coupling coefficients...
 Length of intermediate file (Mbytes):    6212.0
 
 ======================================================================
 
 Memory requirements /Mbyte/: 
               Minimal        Optimal
 Real*8:     236391.5616    236391.5616
 Integer:        48.7259
 Total:      236440.2875    236440.2875
 

 ************************ 2019-01-01 20:45:39 *************************
 Executing goldstone...

 Generation of MRCC equations in terms of H and T...
 Generation of antisymmetrized Goldstone diagrams...
 Number of diagrams in T^1 equations:    15
 Number of diagrams in T^2 equations:    38
 Number of diagrams in T^3 equations:    54
 Number of diagrams in T^4 equations:    81
 Number of diagrams in T^5 equations:   106
 Number of diagrams in T^6 equations:   141
 Number of diagrams in T^7 equations:   169
 Translation of diagrams to factorized equations...
 Number of restricted diagrams in T^1 equations:     30
 Number of restricted diagrams in T^2 equations:    129
 Number of restricted diagrams in T^3 equations:    306
 Number of restricted diagrams in T^4 equations:    674
 Number of restricted diagrams in T^5 equations:   1288
 Number of restricted diagrams in T^6 equations:   2340
 Number of restricted diagrams in T^7 equations:   3912
 Optimizing intermediate calculation...
 Number of floating-point operations per iteration step:   7.2265E+13
 Probable CPU time per iteration step (hours):    722.65
 Required memory (Mbytes):    1856.8
 Number of intermediates:                                1882
 Number of intermediates to be stored:                    571
 Length of intermediate file (Mbytes):   34360.4

 ************************ 2019-01-01 20:45:45 *************************
 Executing xmrcc...

 **********************************************************************
 MRCC(                     7 ) calculation 
 
 
 Allocation of1856.8 Mbytes of memory...
 Number of spinorbitals:                    90
 Number of alpha electrons:                        4
 Number of beta electrons:                         3
 Number of active particles:                    42
 Number of active holes:                         0
 Spin multiplicity:                     2
 z-component of spin:  0.5
 Spatial symmetry:                      5
 Convergence criterion:  1.0E-07
 Construction of occupation graphs...
 Number of                     0 -fold excitations:                      1
 Number of                     1 -fold excitations:                     53
 Number of                     2 -fold excitations:                   3698
 Number of                     3 -fold excitations:                 137170
 Number of                     4 -fold excitations:                2508549
 Number of                     5 -fold excitations:               22425054
 Number of                     6 -fold excitations:               93888437
 Number of                     7 -fold excitations:              145315892
 Total number of configurations:              264278854
 Calculation of coupling coefficients...
 Length of intermediate file (Mbytes):   25991.9
 
 ======================================================================
 
 Memory requirements /Mbyte/: 
               Minimal        Optimal
 Real*8:       1487.9366      1487.9366
 Integer:       103.1511
 Total:        1591.0877      1591.0877
 

 ************************ 2019-01-01 20:52:23 *************************
 Executing goldstone...

 Generation of MRCC equations in terms of H and T...
 Generation of antisymmetrized Goldstone diagrams...
 Number of diagrams in T^1 equations:    15
 Number of diagrams in T^2 equations:    34
 Number of diagrams in T^3 equations:     2
 Translation of diagrams to factorized equations...
 Number of restricted diagrams in T^1 equations:     78
 Number of restricted diagrams in T^2 equations:    299
 Number of restricted diagrams in T^3 equations:     18
 Optimizing intermediate calculation...
 Number of floating-point operations per iteration step:   5.6338E+07
 Probable CPU time per iteration step (hours):      0.00
 Required memory (Mbytes):     393.4
 Number of intermediates:                                 239
 Number of intermediates to be stored:                    105
 Length of intermediate file (Mbytes):       8.1

 ************************ 2019-01-01 20:52:24 *************************
 Executing xmrcc...

 **********************************************************************
 MRCC(                     3 ) calculation 
 
 
 Allocation of 393.4 Mbytes of memory...
 Number of spinorbitals:                    90
 Number of alpha electrons:                        4
 Number of beta electrons:                         3
 Number of active particles:                    42
 Number of active holes:                         0
 Spin multiplicity:                     2
 z-component of spin:  0.5
 Spatial symmetry:                      5
 Convergence criterion:  1.0E-07
 Construction of occupation graphs...
 Number of                     0 -fold excitations:                      1
 Number of                     1 -fold excitations:                     53
 Number of                     2 -fold excitations:                   3698
 Total number of configurations:                   3752
 Calculation of coupling coefficients...
 Length of intermediate file (Mbytes):       7.3
 
 ======================================================================
 
 Spin case  1   Alpha:  0   Beta:  3
 Number of excitations:                    166
 Spin case  2   Alpha:  1   Beta:  2
 Number of excitations:                   6635
 Spin case  3   Alpha:  2   Beta:  1
 Number of excitations:                   9925
 Spin case  4   Alpha:  3   Beta:  0
 Number of excitations:                    669
 Spin case  5   Alpha:  0   Beta:  3
 Number of excitations:                    542
 Spin case  6   Alpha:  1   Beta:  2
 Number of excitations:                   6326
 Spin case  7   Alpha:  1   Beta:  2
 Number of excitations:                  13859
 Spin case  8   Alpha:  2   Beta:  1
 Number of excitations:                  19845
 Spin case  9   Alpha:  2   Beta:  1
 Number of excitations:                   9915
 Spin case 10   Alpha:  3   Beta:  0
 Number of excitations:                   2070
 Spin case 11   Alpha:  0   Beta:  3
 Number of excitations:                    555
 Spin case 12   Alpha:  1   Beta:  2
 Number of excitations:                  13277
 Spin case 13   Alpha:  1   Beta:  2
 Number of excitations:                   6599
 Spin case 14   Alpha:  2   Beta:  1
 Number of excitations:                   8980
 Spin case 15   Alpha:  2   Beta:  1
 Number of excitations:                  19845
 Spin case 16   Alpha:  3   Beta:  0
 Number of excitations:                   2022
 Spin case 17   Alpha:  0   Beta:  3
 Number of excitations:                    163
 Spin case 18   Alpha:  1   Beta:  2
 Number of excitations:                   6218
 Spin case 19   Alpha:  2   Beta:  1
 Number of excitations:                   8970
 Spin case 20   Alpha:  3   Beta:  0
 Number of excitations:                    589
 Number of                     3 -fold excitations:                 137170
 
 Memory requirements /Mbyte/: 
               Minimal        Optimal
 Real*8:         50.7035        50.7035
 Integer:        10.4946
 Total:          61.1981        61.1981
 

 ************************ 2019-01-01 20:52:26 *************************
 Executing mrcc...

 **********************************************************************
 CCSD(T) calculation                                                    
 
 
 OpenMP parallel version is running.
 Number of CPUs:   4
 Allocation of   50.7 Mbytes of memory...
 Number of spinorbitals:  90
 Number of alpha electrons:  4
 Number of beta  electrons:  3
 Number of active particles:                    42
 Number of active holes:                         0
 Spin multiplicity: 2
 z-component of spin:  0.5
 Spatial symmetry: 5
 Convergence criterion:  1.0E-07
 Construction of occupation graphs...
 Number of 0-fold excitations: 1
 Number of 1-fold excitations: 53
 Number of 2-fold excitations: 3698
 Total number of determinants: 3752
 Calculation of coupling coefficients...
 Initial cluster amplitudes are generated.
 Length of intermediate file (Mbytes):       7.3
 Reading integral list from unit 55...
 Sorting integrals...
 Sorting integrals...
 Sorting integrals...
 Sorting integrals...
 Energy of reference determinant [au]:     -99.402083121383
 Calculation of MP denominators...
 
 Starting CC iteration...
 ======================================================================
 Norm of residual vector:     1.34722214
 CPU time [min]:     0.164                   Wall time [min]:     0.078
 
 Iteration  1  CC energy:   -99.61244618  Energy decrease:   0.21036306
 ======================================================================
 Norm of residual vector:     0.13325769
 CPU time [min]:     0.210                   Wall time [min]:     0.089
 
 Iteration  2  CC energy:   -99.62001414  Energy decrease:   0.00756796
 ======================================================================
 Norm of residual vector:     0.03084417
 CPU time [min]:     0.256                   Wall time [min]:     0.101
 
 Iteration  3  CC energy:   -99.62295705  Energy decrease:   0.00294291
 ======================================================================
 Norm of residual vector:     0.00936767
 CPU time [min]:     0.303                   Wall time [min]:     0.112
 
 Iteration  4  CC energy:   -99.62341400  Energy decrease:   0.00045695
 ======================================================================
 Norm of residual vector:     0.00365731
 CPU time [min]:     0.349                   Wall time [min]:     0.124
 
 Iteration  5  CC energy:   -99.62333413  Energy decrease:   0.00007988
 ======================================================================
 Norm of residual vector:     0.00132531
 CPU time [min]:     0.396                   Wall time [min]:     0.136
 
 Iteration  6  CC energy:   -99.62334835  Energy decrease:   0.00001422
 ======================================================================
 Norm of residual vector:     0.00035680
 CPU time [min]:     0.442                   Wall time [min]:     0.147
 
 Iteration  7  CC energy:   -99.62335893  Energy decrease:   0.00001058
 ======================================================================
 Norm of residual vector:     0.00011277
 CPU time [min]:     0.489                   Wall time [min]:     0.159
 
 Iteration  8  CC energy:   -99.62335808  Energy decrease:   0.00000085
 ======================================================================
 Norm of residual vector:     0.00003153
 CPU time [min]:     0.536                   Wall time [min]:     0.171
 
 Iteration  9  CC energy:   -99.62335815  Energy decrease:   0.00000007
 ======================================================================
 Norm of residual vector:     0.00000770
 CPU time [min]:     0.582                   Wall time [min]:     0.182
 
 Iteration 10  CC energy:   -99.62335814  Energy decrease:   0.00000001
 ======================================================================
 Norm of residual vector:     0.00000216
 CPU time [min]:     0.632                   Wall time [min]:     0.195
 
 Iteration 11  CC energy:   -99.62335812  Energy decrease:   0.00000002
 ======================================================================
 Norm of residual vector:     0.00000061
 CPU time [min]:     0.679                   Wall time [min]:     0.207
 
 Iteration 12  CC energy:   -99.62335812  Energy decrease:   1.3649E-09
 ======================================================================
 Norm of residual vector:     0.00000014
 CPU time [min]:     0.726                   Wall time [min]:     0.218
 
 Iteration 13  CC energy:   -99.62335811  Energy decrease:   2.4566E-09
 ======================================================================
 Norm of residual vector:     0.00000004
 CPU time [min]:     0.772                   Wall time [min]:     0.230
 
 Iteration 14  CC energy:   -99.62335812  Energy decrease:   4.1362E-10
 ======================================================================
 
 Iteration has converged in 14 steps.
 
 Final results:
 Total CCSD energy [au]:             -99.623358115038
 
 Perturbative corrections are calculated...
 ======================================================================
 Spin case  1   Alpha:  0   Beta:  3
 Number of excitations:        166
 CPU time [min]:     0.778                   Wall time [min]:     0.232
 ======================================================================
 Spin case  2   Alpha:  1   Beta:  2
 Number of excitations:        6635
 CPU time [min]:     0.791                   Wall time [min]:     0.235
 ======================================================================
 Spin case  3   Alpha:  2   Beta:  1
 Number of excitations:        9925
 CPU time [min]:     0.806                   Wall time [min]:     0.239
 ======================================================================
 Spin case  4   Alpha:  3   Beta:  0
 Number of excitations:        669
 CPU time [min]:     0.809                   Wall time [min]:     0.239
 ======================================================================
 Spin case  5   Alpha:  0   Beta:  3
 Number of excitations:        542
 CPU time [min]:     0.814                   Wall time [min]:     0.241
 ======================================================================
 Spin case  6   Alpha:  1   Beta:  2
 Number of excitations:        6326
 CPU time [min]:     0.827                   Wall time [min]:     0.244
 ======================================================================
 Spin case  7   Alpha:  1   Beta:  2
 Number of excitations:        13859
 CPU time [min]:     0.855                   Wall time [min]:     0.251
 ======================================================================
 Spin case  8   Alpha:  2   Beta:  1
 Number of excitations:        19845
 CPU time [min]:     0.882                   Wall time [min]:     0.258
 ======================================================================
 Spin case  9   Alpha:  2   Beta:  1
 Number of excitations:        9915
 CPU time [min]:     0.898                   Wall time [min]:     0.262
 ======================================================================
 Spin case 10   Alpha:  3   Beta:  0
 Number of excitations:        2070
 CPU time [min]:     0.905                   Wall time [min]:     0.264
 ======================================================================
 Spin case 11   Alpha:  0   Beta:  3
 Number of excitations:        555
 CPU time [min]:     0.910                   Wall time [min]:     0.265
 ======================================================================
 Spin case 12   Alpha:  1   Beta:  2
 Number of excitations:        13277
 CPU time [min]:     0.936                   Wall time [min]:     0.271
 ======================================================================
 Spin case 13   Alpha:  1   Beta:  2
 Number of excitations:        6599
 CPU time [min]:     0.949                   Wall time [min]:     0.274
 ======================================================================
 Spin case 14   Alpha:  2   Beta:  1
 Number of excitations:        8980
 CPU time [min]:     0.963                   Wall time [min]:     0.278
 ======================================================================
 Spin case 15   Alpha:  2   Beta:  1
 Number of excitations:        19845
 CPU time [min]:     0.991                   Wall time [min]:     0.285
 ======================================================================
 Spin case 16   Alpha:  3   Beta:  0
 Number of excitations:        2022
 CPU time [min]:     0.998                   Wall time [min]:     0.287
 ======================================================================
 Spin case 17   Alpha:  0   Beta:  3
 Number of excitations:        163
 CPU time [min]:     1.000                   Wall time [min]:     0.287
 ======================================================================
 Spin case 18   Alpha:  1   Beta:  2
 Number of excitations:        6218
 CPU time [min]:     1.012                   Wall time [min]:     0.290
 ======================================================================
 Spin case 19   Alpha:  2   Beta:  1
 Number of excitations:        8970
 CPU time [min]:     1.025                   Wall time [min]:     0.294
 ======================================================================
 Spin case 20   Alpha:  3   Beta:  0
 Number of excitations:        589
 CPU time [min]:     1.028                   Wall time [min]:     0.294
 ======================================================================
 Number of 3-fold excitations: 137170
 
 
 CPU time [min]:     1.028                   Wall time [min]:     0.294
 
 Total CCSD[T] energy [au]:          -99.627929653876
 Total CCSD(T) energy [au]:          -99.627779991808
 
 Dominant cluster amplitudes
 Printing threshold:  1.00E-02
 
    1.000000  Reference determinant                                     
    0.011467  1b -> 6b                                                  
   -0.012450  1b -> 22b                                                 
   -0.017954  3b -> 7b                                                  
   -0.011164  3b -> 15b                                                 
   -0.017954  2b -> 8b                                                  
   -0.011164  2b -> 16b                                                 
   -0.011519  1a -> 9a                                                  
    0.015835  1a -> 18a                                                 
   -0.013381  3a 3b -> 32a 32b                                          
   -0.013381  2a 2b -> 31a 31b                                          
   -0.012651  3a 3b -> 32a 15b                                          
   -0.012651  2a 2b -> 31a 16b                                          
   -0.012420  3a 3b -> 15a 32b                                          
   -0.012420  2a 2b -> 16a 31b                                          
   -0.010319  1a 1b -> 14a 4b                                           
   -0.010105  1a 3b -> 20a 4b                                           
   -0.014926  3a 1b -> 11a 4b                                           
   -0.019267  3a 1b -> 20a 4b                                           
   -0.010105  1a 2b -> 19a 4b                                           
   -0.014926  2a 1b -> 10a 4b                                           
   -0.019267  2a 1b -> 19a 4b                                           
    0.017304  4a 1b -> 9a 4b                                            
   -0.022257  4a 1b -> 18a 4b                                           
   -0.010350  2b 3b -> 8b 15b                                           
    0.010350  2b 3b -> 7b 16b                                           
    0.018179  2b 3b -> 15b 16b                                          
    0.013068  2b 3b -> 18b 21b                                          
   -0.015212  1a 1b -> 17a 17b                                          
   -0.010719  3a 3b -> 17a 17b                                          
   -0.012532  3a 3b -> 22a 18b                                          
   -0.010719  2a 2b -> 17a 17b                                          
   -0.012532  2a 2b -> 22a 18b                                          
   -0.010486  3a 3b -> 7a 7b                                            
   -0.017210  3a 3b -> 15a 7b                                           
   -0.016675  3a 3b -> 7a 15b                                           
   -0.033343  3a 3b -> 15a 15b                                          
   -0.010486  2a 2b -> 8a 8b                                            
   -0.017210  2a 2b -> 16a 8b                                           
   -0.016675  2a 2b -> 8a 16b                                           
   -0.033343  2a 2b -> 16a 16b                                          
   -0.012532  3a 3b -> 21a 21b                                          
   -0.012532  2a 2b -> 21a 21b                                          
   -0.012767  3a 3b -> 20a 20b                                          
   -0.012767  2a 2b -> 19a 19b                                          
    0.011420  1a 3b -> 6a 15b                                           
   -0.019173  1a 3b -> 17a 15b                                          
    0.011561  3a 1b -> 15a 6b                                           
   -0.018942  3a 1b -> 15a 17b                                          
   -0.011993  3a 1b -> 20a 5b                                           
    0.011420  1a 2b -> 6a 16b                                           
   -0.019173  1a 2b -> 17a 16b                                          
    0.011561  2a 1b -> 16a 6b                                           
   -0.018942  2a 1b -> 16a 17b                                          
   -0.011993  2a 1b -> 19a 5b                                           
   -0.012828  3a 2b -> 15a 8b                                           
   -0.012322  3a 2b -> 7a 16b                                           
   -0.023786  3a 2b -> 15a 16b                                          
   -0.012828  2a 3b -> 16a 7b                                           
   -0.012322  2a 3b -> 8a 15b                                           
   -0.023786  2a 3b -> 16a 15b                                          
   -0.013850  4a 1b -> 18a 5b                                           
   -0.010585  4a 1b -> 17a 14b                                          
    0.011056  4a 1b -> 14a 6b                                           
   -0.018328  4a 1b -> 14a 17b                                          
   -0.012433  4a 3b -> 14a 7b                                           
   -0.011425  4a 3b -> 5a 15b                                           
   -0.023299  4a 3b -> 14a 15b                                          
   -0.012433  4a 2b -> 14a 8b                                           
   -0.011425  4a 2b -> 5a 16b                                           
   -0.023299  4a 2b -> 14a 16b                                          
    0.010114  1a 3a -> 15a 17a                                          
    0.010114  1a 2a -> 16a 17a                                          
    0.017978  2a 3a -> 15a 16a                                          
   -0.013250  2a 3a -> 21a 22a                                          
    0.017898  3a 4a -> 14a 15a                                          
    0.011036  3a 4a -> 18a 20a                                          
    0.017898  2a 4a -> 14a 16a                                          
    0.011036  2a 4a -> 18a 19a                                          

 ************************ 2019-01-01 20:52:46 *************************
 Executing goldstone...

 Generation of MRCC equations in terms of H and T...
 Generation of antisymmetrized Goldstone diagrams...
 Number of diagrams in T^1 equations:    15
 Number of diagrams in T^2 equations:    38
 Number of diagrams in T^3 equations:    50
 Number of diagrams in T^4 equations:     5
 Translation of diagrams to factorized equations...
 Number of restricted diagrams in T^1 equations:     78
 Number of restricted diagrams in T^2 equations:    344
 Number of restricted diagrams in T^3 equations:    830
 Number of restricted diagrams in T^4 equations:     86
 Optimizing intermediate calculation...
 Number of floating-point operations per iteration step:   5.1132E+09
 Probable CPU time per iteration step (hours):      0.05
 Required memory (Mbytes):     393.4
 Number of intermediates:                                 534
 Number of intermediates to be stored:                    212
 Length of intermediate file (Mbytes):      20.6

 ************************ 2019-01-01 20:52:47 *************************
 Executing xmrcc...

 **********************************************************************
 MRCC(                     4 ) calculation 
 
 
 Allocation of 393.4 Mbytes of memory...
 Number of spinorbitals:                    90
 Number of alpha electrons:                        4
 Number of beta electrons:                         3
 Number of active particles:                    42
 Number of active holes:                         0
 Spin multiplicity:                     2
 z-component of spin:  0.5
 Spatial symmetry:                      5
 Convergence criterion:  1.0E-07
 Construction of occupation graphs...
 Number of                     0 -fold excitations:                      1
 Number of                     1 -fold excitations:                     53
 Number of                     2 -fold excitations:                   3698
 Number of                     3 -fold excitations:                 137170
 Total number of configurations:                 140922
 Calculation of coupling coefficients...
 Length of intermediate file (Mbytes):      17.8
 
 ======================================================================
 
 Spin case  1   Alpha:  1   Beta:  3
 Number of excitations:                  14009
 Spin case  2   Alpha:  2   Beta:  2
 Number of excitations:                  99300
 Spin case  3   Alpha:  3   Beta:  1
 Number of excitations:                  42037
 Spin case  4   Alpha:  4   Beta:  0
 Number of excitations:                    798
 Spin case  5   Alpha:  1   Beta:  3
 Number of excitations:                  13262
 Spin case  6   Alpha:  1   Beta:  3
 Number of excitations:                  46093
 Spin case  7   Alpha:  2   Beta:  2
 Number of excitations:                 198450
 Spin case  8   Alpha:  2   Beta:  2
 Number of excitations:                 208375
 Spin case  9   Alpha:  3   Beta:  1
 Number of excitations:                 131774
 Spin case 10   Alpha:  3   Beta:  1
 Number of excitations:                  41903
 Spin case 11   Alpha:  4   Beta:  0
 Number of excitations:                   3320
 Spin case 12   Alpha:  1   Beta:  3
 Number of excitations:                  44110
 Spin case 13   Alpha:  1   Beta:  3
 Number of excitations:                  46115
 Spin case 14   Alpha:  2   Beta:  2
[...]
   -0.012438  3a 3b -> 15a 32b                                          
   -0.012438  2a 2b -> 16a 31b                                          
   -0.010613  1a 1b -> 14a 4b                                           
   -0.010378  1a 3b -> 20a 4b                                           
   -0.015977  3a 1b -> 11a 4b                                           
   -0.019828  3a 1b -> 20a 4b                                           
   -0.010378  1a 2b -> 19a 4b                                           
   -0.015977  2a 1b -> 10a 4b                                           
   -0.019828  2a 1b -> 19a 4b                                           
    0.018404  4a 1b -> 9a 4b                                            
   -0.022819  4a 1b -> 18a 4b                                           
   -0.011639  4a 3b -> 7a 4b                                            
   -0.010149  4a 3b -> 15a 4b                                           
   -0.011639  4a 2b -> 8a 4b                                            
   -0.010149  4a 2b -> 16a 4b                                           
    0.010020  1b 3b -> 15b 17b                                          
    0.010020  1b 2b -> 16b 17b                                          
    0.010625  2b 3b -> 9b 12b                                           
   -0.011378  2b 3b -> 8b 15b                                           
    0.011378  2b 3b -> 7b 16b                                           
    0.019252  2b 3b -> 15b 16b                                          
    0.013315  2b 3b -> 18b 21b                                          
   -0.015274  1a 1b -> 17a 17b                                          
   -0.010840  3a 3b -> 17a 17b                                          
   -0.012679  3a 3b -> 22a 18b                                          
   -0.010840  2a 2b -> 17a 17b                                          
   -0.012679  2a 2b -> 22a 18b                                          
   -0.011678  3a 3b -> 7a 7b                                            
   -0.018192  3a 3b -> 15a 7b                                           
   -0.017651  3a 3b -> 7a 15b                                           
   -0.034413  3a 3b -> 15a 15b                                          
   -0.011678  2a 2b -> 8a 8b                                            
   -0.018192  2a 2b -> 16a 8b                                           
   -0.017651  2a 2b -> 8a 16b                                           
   -0.034413  2a 2b -> 16a 16b                                          
   -0.012679  3a 3b -> 21a 21b                                          
   -0.012679  2a 2b -> 21a 21b                                          
   -0.012922  3a 3b -> 20a 20b                                          
   -0.012922  2a 2b -> 19a 19b                                          
    0.011891  1a 3b -> 6a 15b                                           
   -0.019500  1a 3b -> 17a 15b                                          
    0.012091  3a 1b -> 15a 6b                                           
   -0.019330  3a 1b -> 15a 17b                                          
   -0.012317  3a 1b -> 20a 5b                                           
    0.011891  1a 2b -> 6a 16b                                           
   -0.019500  1a 2b -> 17a 16b                                          
    0.012091  2a 1b -> 16a 6b                                           
   -0.019330  2a 1b -> 16a 17b                                          
   -0.012317  2a 1b -> 19a 5b                                           
   -0.013843  3a 2b -> 15a 8b                                           
   -0.013312  3a 2b -> 7a 16b                                           
   -0.024871  3a 2b -> 15a 16b                                          
   -0.013843  2a 3b -> 16a 7b                                           
   -0.013312  2a 3b -> 8a 15b                                           
   -0.024871  2a 3b -> 16a 15b                                          
    0.010421  4a 1b -> 9a 5b                                            
   -0.014172  4a 1b -> 18a 5b                                           
   -0.010842  4a 1b -> 17a 14b                                          
    0.011609  4a 1b -> 14a 6b                                           
   -0.018727  4a 1b -> 14a 17b                                          
   -0.013355  4a 3b -> 14a 7b                                           
   -0.012273  4a 3b -> 5a 15b                                           
   -0.024293  4a 3b -> 14a 15b                                          
   -0.013355  4a 2b -> 14a 8b                                           
   -0.012273  4a 2b -> 5a 16b                                           
   -0.024293  4a 2b -> 14a 16b                                          
    0.010323  1a 3a -> 15a 17a                                          
    0.010323  1a 2a -> 16a 17a                                          
   -0.010561  2a 3a -> 8a 15a                                           
    0.010561  2a 3a -> 7a 16a                                           
    0.018951  2a 3a -> 15a 16a                                          
   -0.013501  2a 3a -> 21a 22a                                          
    0.010188  1a 4a -> 14a 17a                                          
   -0.010431  3a 4a -> 7a 14a                                           
    0.018793  3a 4a -> 14a 15a                                          
    0.011251  3a 4a -> 18a 20a                                          
   -0.010431  2a 4a -> 8a 14a                                           
    0.018793  2a 4a -> 14a 16a                                          
    0.011251  2a 4a -> 18a 19a                                          

 ************************ 2019-01-18 11:24:52 *************************
 Executing goldstone...

 Generation of MRCC equations in terms of H and T...
 Generation of antisymmetrized Goldstone diagrams...
 Number of diagrams in T^1 equations:    15
 Number of diagrams in T^2 equations:    38
 Number of diagrams in T^3 equations:    54
 Number of diagrams in T^4 equations:    81
 Number of diagrams in T^5 equations:   106
 Number of diagrams in T^6 equations:   141
 Number of diagrams in T^7 equations:   169
 Translation of diagrams to factorized equations...
 Number of restricted diagrams in T^1 equations:     30
 Number of restricted diagrams in T^2 equations:    129
 Number of restricted diagrams in T^3 equations:    306
 Number of restricted diagrams in T^4 equations:    674
 Number of restricted diagrams in T^5 equations:   1288
 Number of restricted diagrams in T^6 equations:   2340
 Number of restricted diagrams in T^7 equations:   3912
 Optimizing intermediate calculation...
 Number of floating-point operations per iteration step:   7.2265E+13
 Probable CPU time per iteration step (hours):    722.65
 Required memory (Mbytes):    1856.8
 Number of intermediates:                                1882
 Number of intermediates to be stored:                    571
 Length of intermediate file (Mbytes):   34360.4

 ************************ 2019-01-18 11:25:03 *************************
 Executing xmrcc...

 **********************************************************************
 MRCC(                     7 ) calculation 
 
 
 Allocation of1856.8 Mbytes of memory...
 Number of spinorbitals:                    90
 Number of alpha electrons:                        4
 Number of beta electrons:                         3
 Number of active particles:                    42
 Number of active holes:                         0
 Spin multiplicity:                     2
 z-component of spin:  0.5
 Spatial symmetry:                      5
 Convergence criterion:  1.0E-07
 Construction of occupation graphs...
 Number of                     0 -fold excitations:                      1
 Number of                     1 -fold excitations:                     53
 Number of                     2 -fold excitations:                   3698
 Number of                     3 -fold excitations:                 137170
 Number of                     4 -fold excitations:                2508549
 Number of                     5 -fold excitations:               22425054
 Number of                     6 -fold excitations:               93888437
 Number of                     7 -fold excitations:              145315892
 Total number of configurations:              264278854
 Calculation of coupling coefficients...
 Length of intermediate file (Mbytes):   25991.9
 
 ======================================================================
 
 Memory requirements /Mbyte/: 
               Minimal        Optimal
 Real*8:       1487.9366      1487.9366
 Integer:       103.1511
 Total:        1591.0877      1591.0877
 

 ************************ 2019-01-18 11:31:45 *************************
 Executing mrcc...

 **********************************************************************
 CC(7) calculation                                                      
 
 
 OpenMP parallel version is running.
 Number of CPUs:   4
 Allocation of 1487.9 Mbytes of memory...
 Number of spinorbitals:  90
 Number of alpha electrons:  4
 Number of beta  electrons:  3
 Number of active particles:                    42
 Number of active holes:                         0
 Spin multiplicity: 2
 z-component of spin:  0.5
 Spatial symmetry: 5
 Convergence criterion:  1.0E-07
 Construction of occupation graphs...
 Number of 0-fold excitations: 1
 Number of 1-fold excitations: 53
 Number of 2-fold excitations: 3698
 Number of 3-fold excitations: 137170
 Number of 4-fold excitations: 2508549
 Number of 5-fold excitations: 22425054
 Number of 6-fold excitations: 93888437
 Number of 7-fold excitations: 145315892
 Total number of determinants: 264278854
 Calculation of coupling coefficients...
 Initial cluster amplitudes are read from unit 16.
 Length of intermediate file (Mbytes):   25991.9
 Reading integral list from unit 55...
 Sorting integrals...
 Sorting integrals...
 Sorting integrals...
 Sorting integrals...
 Energy of reference determinant [au]:     -99.402083121383
 Calculation of MP denominators...
 
 Starting CC iteration...
 ======================================================================
 Norm of residual vector:     0.00035225
 CPU time [min]:  5784.566                   Wall time [min]:  1928.323
 
 Iteration  1  CC energy:   -99.62806312  Energy decrease:   4.1240E-10
 ======================================================================
 Norm of residual vector:     0.00010302
 CPU time [min]: 11475.389                   Wall time [min]:  3624.864
 
 Iteration  2  CC energy:   -99.62806312  Energy decrease:   1.9429E-10
 ======================================================================
 Norm of residual vector:     0.00002720
 CPU time [min]: 17216.259                   Wall time [min]:  5395.244
 
 Iteration  3  CC energy:   -99.62806312  Energy decrease:   1.1137E-10
 ======================================================================
 Norm of residual vector:     0.00000810
 CPU time [min]: 23002.704                   Wall time [min]:  7245.683
 
 Iteration  4  CC energy:   -99.62806312  Energy decrease:   2.4194E-09
 ======================================================================
 Norm of residual vector:     0.00000234
 CPU time [min]: 28732.373                   Wall time [min]:  9007.662
 
 Iteration  5  CC energy:   -99.62806312  Energy decrease:   0.00000001
 ======================================================================
 Norm of residual vector:     0.00000067
 CPU time [min]: 34327.511                   Wall time [min]: 10561.323
 
 Iteration  6  CC energy:   -99.62806312  Energy decrease:   2.4271E-09
 ======================================================================
 Norm of residual vector:     0.00000022
 CPU time [min]: 39989.826                   Wall time [min]: 12156.541
 
 Iteration  7  CC energy:   -99.62806312  Energy decrease:   1.4036E-10
 ======================================================================
 Norm of residual vector:     0.00000007
 CPU time [min]: 45636.299                   Wall time [min]: 13763.534
 
 Iteration  8  CC energy:   -99.62806312  Energy decrease:   5.6701E-11
 ======================================================================
 
 Iteration has converged in  8 steps.
 
 Final results:
 Total CC(7) energy [au]:            -99.628063116464
 
 Dominant cluster amplitudes
 Printing threshold:  1.00E-02
 
    1.000000  Reference determinant                                     
    0.010953  1b -> 6b                                                  
   -0.012469  1b -> 22b                                                 
   -0.017040  3b -> 7b                                                  
   -0.010673  3b -> 15b                                                 
   -0.017040  2b -> 8b                                                  
   -0.010673  2b -> 16b                                                 
   -0.011546  1a -> 9a                                                  
    0.015849  1a -> 18a                                                 
   -0.013550  3a 3b -> 32a 32b                                          
   -0.013550  2a 2b -> 31a 31b                                          
   -0.012670  3a 3b -> 32a 15b                                          
   -0.012670  2a 2b -> 31a 16b                                          
   -0.012438  3a 3b -> 15a 32b                                          
   -0.012438  2a 2b -> 16a 31b                                          
   -0.010613  1a 1b -> 14a 4b                                           
   -0.010378  1a 3b -> 20a 4b                                           
   -0.015977  3a 1b -> 11a 4b                                           
   -0.019828  3a 1b -> 20a 4b                                           
   -0.010378  1a 2b -> 19a 4b                                           
   -0.015977  2a 1b -> 10a 4b                                           
   -0.019828  2a 1b -> 19a 4b                                           
    0.018404  4a 1b -> 9a 4b                                            
   -0.022819  4a 1b -> 18a 4b                                           
   -0.011639  4a 3b -> 7a 4b                                            
   -0.010149  4a 3b -> 15a 4b                                           
   -0.011639  4a 2b -> 8a 4b                                            
   -0.010149  4a 2b -> 16a 4b                                           
    0.010020  1b 3b -> 15b 17b                                          
    0.010020  1b 2b -> 16b 17b                                          
    0.010625  2b 3b -> 9b 12b                                           
   -0.011378  2b 3b -> 8b 15b                                           
    0.011378  2b 3b -> 7b 16b                                           
    0.019252  2b 3b -> 15b 16b                                          
    0.013315  2b 3b -> 18b 21b                                          
   -0.015274  1a 1b -> 17a 17b                                          
   -0.010840  3a 3b -> 17a 17b                                          
   -0.012679  3a 3b -> 22a 18b                                          
   -0.010840  2a 2b -> 17a 17b                                          
   -0.012679  2a 2b -> 22a 18b                                          
   -0.011678  3a 3b -> 7a 7b                                            
   -0.018192  3a 3b -> 15a 7b                                           
   -0.017651  3a 3b -> 7a 15b                                           
   -0.034413  3a 3b -> 15a 15b                                          
   -0.011678  2a 2b -> 8a 8b                                            
   -0.018192  2a 2b -> 16a 8b                                           
   -0.017651  2a 2b -> 8a 16b                                           
   -0.034413  2a 2b -> 16a 16b                                          
   -0.012679  3a 3b -> 21a 21b                                          
   -0.012679  2a 2b -> 21a 21b                                          
   -0.012922  3a 3b -> 20a 20b                                          
   -0.012922  2a 2b -> 19a 19b                                          
    0.011891  1a 3b -> 6a 15b                                           
   -0.019500  1a 3b -> 17a 15b                                          
    0.012091  3a 1b -> 15a 6b                                           
   -0.019330  3a 1b -> 15a 17b                                          
   -0.012317  3a 1b -> 20a 5b                                           
    0.011891  1a 2b -> 6a 16b                                           
   -0.019500  1a 2b -> 17a 16b                                          
    0.012091  2a 1b -> 16a 6b                                           
   -0.019330  2a 1b -> 16a 17b                                          
   -0.012317  2a 1b -> 19a 5b                                           
   -0.013843  3a 2b -> 15a 8b                                           
   -0.013312  3a 2b -> 7a 16b                                           
   -0.024871  3a 2b -> 15a 16b                                          
   -0.013843  2a 3b -> 16a 7b                                           
   -0.013312  2a 3b -> 8a 15b                                           
   -0.024871  2a 3b -> 16a 15b                                          
    0.010421  4a 1b -> 9a 5b                                            
   -0.014172  4a 1b -> 18a 5b                                           
   -0.010842  4a 1b -> 17a 14b                                          
    0.011609  4a 1b -> 14a 6b                                           
   -0.018727  4a 1b -> 14a 17b                                          
   -0.013355  4a 3b -> 14a 7b                                           
   -0.012273  4a 3b -> 5a 15b                                           
   -0.024293  4a 3b -> 14a 15b                                          
   -0.013355  4a 2b -> 14a 8b                                           
   -0.012273  4a 2b -> 5a 16b                                           
   -0.024293  4a 2b -> 14a 16b                                          
    0.010323  1a 3a -> 15a 17a                                          
    0.010323  1a 2a -> 16a 17a                                          
   -0.010561  2a 3a -> 8a 15a                                           
    0.010561  2a 3a -> 7a 16a                                           
    0.018951  2a 3a -> 15a 16a                                          
   -0.013501  2a 3a -> 21a 22a                                          
    0.010188  1a 4a -> 14a 17a                                          
   -0.010431  3a 4a -> 7a 14a                                           
    0.018793  3a 4a -> 14a 15a                                          
    0.011251  3a 4a -> 18a 20a                                          
   -0.010431  2a 4a -> 8a 14a                                           
    0.018793  2a 4a -> 14a 16a                                          
    0.011251  2a 4a -> 18a 19a                                          
 
 ************************ 2019-01-28 00:55:54 *************************
                      Normal termination of mrcc.
 **********************************************************************
--executable dmrcc finished with status     0 in  2261435.28 seconds (walltime).
  The final electronic energy is       -99.628063116464133 a.u. 
  This computation required                      2261446.09 seconds (walltime).
--- SharcNET Job Epilogue ---
Job completed successfully.
               jobid: 1652359
               resid: 3131462
         exit status: 0
      allocated time: 2261450
           user time: 8061820
         system time: 55548.5
peak rss=32872329216; peak vsz=33110294528 (bytes)
atime=2261450; utime=8061820; stime=55548.5; exit=0
