 --invoking executable--
/home/nike/cfour/cfour_v2.00beta/bin/xjoda


   *************************************************************************
         <<<     CCCCCC     CCCCCC   |||     CCCCCC     CCCCCC   >>>
       <<<      CCC        CCC       |||    CCC        CCC         >>>
      <<<      CCC        CCC        |||   CCC        CCC            >>>
    <<<        CCC        CCC        |||   CCC        CCC              >>>
      <<<      CCC        CCC        |||   CCC        CCC            >>>
       <<<      CCC        CCC       |||    CCC        CCC         >>>
         <<<     CCCCCC     CCCCCC   |||     CCCCCC     CCCCCC   >>>
   *************************************************************************

     ****************************************************************
     * CFOUR Coupled-Cluster techniques for Computational Chemistry *
     ****************************************************************
 

   Department of Chemistry                Institut fuer Physikalische Chemie
   University of Texas at Austin          Universitaet Mainz
   Austin, TX  78712, USA                 D-55099 Mainz, Germany
 
                       Version 2.00beta
 
                     gra1252                                           
                     Fri Mar 31 17:38:26 EDT 2023                      
                     integer*8 version is running
 
********************************************************************************
*                          Input from ZMAT file                                *
********************************************************************************
TITLE                                                                           
Al 1                                                                            
I 1 R                                                                           
I 1 R 2 A120                                                                    
I 1 R 2 A120 3 D180                                                             
                                                                                
R=4.6506159927                                                                  
A120=120                                                                        
D180=180                                                                        
                                                                                
*ACES2(CALC=CCSD(T)                                                             
UNITS=BOHR                                                                      
#GEOM=2.461*10/5.29177210903                                                    
#COORD=CARTESIAN                                                                
COORD=INTERNAL                                                                  
PRINT=4                                                                         
JODA_PRINT=4                                                                    
INPUT_MRCC=OFF                                                                  
#CC_PROG=MRCC                                                                   
#FROZEN_CORE=ON                                                                 
DROPMO=1>17                                                                     
CONTRACTION=GENERAL                                                             
#CONTRACTION=SEGMENTED                                                          
RELATIVISTIC=OFF                                                                
#EXCITE=EOMEE                                                                   
#ESTATE_CONV=5                                                                  
#ESTATE_SYM=2/2/2/2/2/2/2/2                                                     
XFORM_TOL=18                                                                    
SAVE_INTS=ON                                                                    
SCF_EXPORDER=6                                                                  
SCF_EXPSTART=5                                                                  
#SCF_DAMPING=1000                                                               
SCF_EXTRAPOLATION=ON                                                            
SCF_CONV=10                                                                     
SCF_MAXCYC=99999                                                                
CC_CONV=9                                                                       
CC_MAXCYC=999                                                                   
T3_EXTRAPOL=ON                                                                  
CHARGE=+1                                                                       
REFERENCE=ROHF                                                                  
MULT=2                                                                          
ABCDTYPE=STANDARD                                                               
#OCCUPATION=3-2-2-0-1-0-0-0/3-1-1-0-1-0-0-0                                     
MEM=30                                                                          
MEM_UNIT=GB                                                                     
ECP=ON                                                                          
BASIS=SPECIAL)                                                                  
                                                                                
AL:def2-TZVPP                                                                   
I:def2-TZVPP                                                                    
I:def2-TZVPP                                                                    
I:def2-TZVPP                                                                    
                                                                                
AL:NONE                                                                         
I:def2-TZVPP                                                                    
I:def2-TZVPP                                                                    
I:def2-TZVPP                                                                    
                                                                                
********************************************************************************
  @GTFLGS-W, Keyword #GEOM not known and is ignored.
  @GTFLGS-W, Keyword #COORD not known and is ignored.
  @GTFLGS-W, Keyword #CC_PROG not known and is ignored.
  @GTFLGS-W, Keyword #FROZEN_CORE not known and is ignored.
  @GTFLGS-W, Keyword #CONTRACTION not known and is ignored.
  @GTFLGS-W, Keyword #EXCITE not known and is ignored.
  @GTFLGS-W, Keyword #ESTATE_CONV not known and is ignored.
  @GTFLGS-W, Keyword #ESTATE_SYM not known and is ignored.
  @GTFLGS-W, Keyword #SCF_DAMPING not known and is ignored.
  @GTFLGS-W, Keyword #OCCUPATION not known and is ignored.
    -------------------------------------------------------------------
                    CFOUR Control Parameters 
    -------------------------------------------------------------------
        External           Internal           Value            Units
          Name               Name
    -------------------------------------------------------------------
       ABCDTYPE             IABCDT         STANDARD     [  0]   ***   
       ANHARMONIC           IANHAR         OFF          [  0]   ***   
       ANH_ALGORIT          IANALG         STANDARD     [  0]   ***   
       ANH_DERIVAT          IANDER         SECOND       [  1]   ***   
       ANH_STEPSIZ          ICUBST             50000          x 10-6  
       ANH_SYMMETR          IANHSM         ABELIAN      [  0]   ***   
       AO_LADDERS           IAOLAD         SINGLEPASS   [  1]   ***   
       BASIS                IBASIS         SPECIAL      [  0]   ***   
       BREIT                IBREIT         OFF          [  0]   ***   
       BRUCK_CONV           IBRTOL          10D-  4             ***   
       BRUECKNER            IBRKNR             OFF      [  0]   ***   
       BUFFERSIZE           IBUFFS            600               ***   
       CACHE_RECS           ICHREC             10               ***   
       CALCLEVEL            ICLLVL           CCSD(T)    [ 22]   ***   
       CCORBOPT             ICCORB             OFF      [  0] x 0.01  
       CC_CONV              ICCCNV          10D-  9             ***   
       CC_EXPORDER          ICCEOR              5               ***   
       CC_EXTRAPOL          ICCEXT             DIIS     [  1]   ***   
       CC_MAXCYC            ICCCYC            999              cycles 
       CC_PROGRAM           ICCPRO         VCC          [  0]   ***   
       CHARGE               ICHRGE              1               ***   
       CHOLESKY             ICHOLE         OFF          [  0]   ***   
       CIS_CONV             ICISTL              5               ***   
       COMM_SIZE            IPSIZE            ***               ***   
       CONSTANT             ICONST         OLD          [  1]   ***   
       CONTINUUM            ICONTU         NONE         [  0]   ***   
       CONTRACTION          ICNTYP          GENERAL     [  1]   ***   
       COORDINATES          ICOORD         INTERNAL     [  0]   ***   
       CPHF_CONVER          ICPHFT          10D- 16             ***   
       CPHF_MAXCYC          ICPHFC             64              cycles 
       CUBIC                ICUBIC         OFF          [  0]   ***   
       CURVILINEAR          ICURVY            OFF       [  0]   ***   
       DBOC                 IDBOC          OFF          [  0]   ***   
       DCT                  IDCT           OFF          [  0]   ***   
       DERIV_LEV            IDRLVL            ZERO      [  0]   ***   
       DIAG_MRCC            IEOMST          10D-  0             ***   
       DIFF_TYPE            IDIFTY         RELAXED      [  0]   ***   
       DIRECT               IDIRCT         OFF          [  0]   ***   
       DROPMO               IDRPMO A   1,  2,  3,  4,  5,  6,  7,  8,
                                       9, 10, 11, 12, 13, 14, 15, 16,
                                      17,
                                   B   1,  2,  3,  4,  5,  6,  7,  8,
                                       9, 10, 11, 12, 13, 14, 15, 16,
                                      17,
       ECP                  IECP           ON           [  1]   ***   
       EIGENVECTOR          IVEC                1               ***   
       EL_ANHARM            IELANH         OFF          [  0]   ***   
       EOMFOLLOW            IEOMSR         ENERGY       [  0]   ***   
       EOM_MRCC             IMRCCE         NEW          [  1]   ***   
       EOM_NONIT            EOMNON         OFF          [  0]   ***   
       EOM_NSING            IEOMSI          10D-  0             ***   
       EOM_NSTATES          IMRCCD         DAVIDSON     [  0]   ***   
       EOM_NTRIP            IEOMTR          10D-  0             ***   
       EOM_ORDER            IEXORD         ENERGY       [  0]   ***   
       ESTATE_CONV          IEXTOL          10D-  5             ***   
       ESTATE_DIAG          IEXDIG         ITERATIVE    [  0]   ***   
       ESTATE_LOCK          IESLOC         ON           [  1]   ***   
       ESTATE_MAXC          IEXMXC             20               ***   
       ESTATE_PROP          IEXPRP         OFF          [  0]   ***   
       EVAL_HESS            IRECAL              0            # of cyc.
       EXCITATION           IEXCIT              0               ***   
       EXCITE               IEXCIT         NONE         [  0]   ***   
       FCGRADNEW            IFCGNW         OFF          [  0]   ***   
       FC_FIELD             IFINFC              0             x 10-6  
       FD_CALTYPE           IFDCAL         GRADONLY     [  0]   ***   
       FD_PROJECT           IFDPRJ         OFF          [  1]   ***   
       FD_STEPSIZE          IDISFD              0            10-4 bohr
       FD_USEGROUP          IFDGRP         FULL         [  0]   ***   
       FILE_RECSIZ          IFLREC              4096           words  
       FINITE_PERT          IFIPER              0             x 10-6  
       FIXGEOM              IFIXGM         OFF          [  0]   ***   
       FOCK                 IFOCK          AO           [  1]   ***   
       FREQ_ALGORI          IVIALG         STANDARD     [  0]   ***   
       FROZEN_CORE          IFROCO         OFF          [  0]   ***   
       FROZEN_VIRT          IFROVI         OFF          [  0]   ***   
       GAMMA_ABCD           IGABCD         STORE        [  0]   ***   
       GAMMA_ABCI           IGABCI         STORE        [  0]   ***   
       GENBAS_1             IGNBS1              0               ***   
       GENBAS_2             IGNBS2              0               ***   
       GENBAS_3             IGNBS3              0               ***   
       GENBAS_4             IGNBS4              0               ***   
       GEO_CONV             ICONTL              5              H/bohr 
       GEO_MAXCYC           IOPTCY             50               ***   
       GEO_MAXSTEP          IMXSTP            300            millibohr
       GEO_METHOD           INR            SINGLE_POINT [  5]   ***   
       GIAO                 IGIAO          OFF          [  1]   ***   
       GIMIC                IGIMIC         OFF          [  0]   ***   
       GRID                 IGRID          OFF          [  0]   ***   
       GRID_ALGO            IGALGO         SERIAL       [  0]   ***   
       GUESS                IGUESS            MOREAD    [  0]   ***   
       HBAR                 IHBAR              OFF      [  0]   ***   
       HESS_TYPE            IHESTP         SCF          [  0]   ***   
       HF2_FILE             IHF2Fl         USE          [  1]   ***   
       HFSTABILITY          ISTABL         OFF          [  0]   ***   
       INCORE               INCORE             OFF      [  0]   ***   
       INPUT_MRCC           IMRCC          OFF          [  0]   ***   
       INTEGRALS            INTTYP             VMOL     [  1]   ***   
       JODA_PRINT           IJPRNT              4               ***   
       LINDEP_TOL           ILINDP              8               ***   
       LINEQ_CONV           IZTACN          10D-  7           cycles  
       LINEQ_EXPOR          ILMAXD              5               ***   
       LINEQ_MAXCY          ILMAXC             50               ***   
       LINEQ_TYPE           ILTYPE         DIIS         [  1]   ***   
       LOCK_ORBOCC          ILOCOC             OFF      [  0]   ***   
       MEMORY_SIZE          IMEMSZ         *********           words  
       MEM_UNIT             IMEMU          GB           [  3]   ***   
       MRCC                 IMRCCC         OFF          [  0]   ***   
       MULTIPLICTY          IMULTP              2               ***   
       NEGEVAL              IDIE             ABORT      [  0]   ***   
       NEWNORM              INEWNO         OFF          [  0]   ***   
       NON-HF               INONHF              ON      [  1]   ***   
       NTOP_TAMP            ITOPT2             15               ***   
       NUC_MODEL            INUCMO         POINT        [  0]   ***   
       OCCUPATION           IOCCU   ESTIMATED BY SCF 
       OPEN-SHELL           IOPEN          SPIN-ORBITAL [  0]   ***   
       ORBITALS             IORBTP         SEMICANONICAL[  1]   ***   
       PARALLEL             IPARAL         ON           [  1]   ***   
       PARA_INT             IPINTS         ON           [  1]   ***   
       PARA_PRINT           IPPRIN              0               ***   
       PERT_ORB             IPTORB         STANDARD     [  0]   ***   
       POINTS               IGRDFD              0               ***   
       PRINT                IPRNT               4               ***   
       PROPS                IPROPS             OFF      [  0]   ***   
       PROP_INTEGR          IINTYP         INTERNAL     [  0]   ***   
       PSI                  IPSI           OFF          [  0]   ***   
       QUARTIC              IQUART         OFF          [  0]   ***   
       RAMAN_INT            IRAMIN         OFF          [  0]   ***   
       RAMAN_ORB            IRAMRE         UNRELAXED    [  0]   ***   
       RDO                  IRDOFM             OFF      [  0]   ***   
       REFERENCE            IREFNC             ROHF     [  2]   ***   
       RELATIVIST           IRELAT         OFF          [  0]   ***   
       RELAX_DENS           IRDENS             OFF      [  0]   ***   
       RESET_FLAGS          IRESET             OFF      [  0]   ***   
       RESTART_CC           ICCRES         OFF          [  0]   ***   
       ROT_EVEC             ROTVEC              0               ***   
       SAVE_INTS            ISVINT              ON      [  1]   ***   
       SCALE_ON             ISTCRT              0               ***   
       SCF_CONV             ISCFCV          10D- 10             ***   
       SCF_DAMPING          IDAMP               0             x 10-3  
       SCF_EXPORDE          IRPPOR              6               ***   
       SCF_EXPSTAR          IRPPLS              5               ***   
       SCF_EXTRAPO          IRPP                ON      [  1]   ***   
       SCF_MAXCYC           ISCFCY            ***              cycles 
       SCF_NOSTOP           ISCFST         OFF          [  0]   ***   
       SCF_PRINT            ISCFPR              0               ***   
       SD_FIELD             IFINSD              0             x 10-6  
       SEQUENCE             ISEQUE         OFF          [  0]   ***   
       SOPERT               IPERSO         OFF          [  0]   ***   
       SPHERICAL            IDFGHI             ON       [  1]   ***   
       SPINORBIT            ISOCAL         OFF          [  0]   ***   
       SPINROTATIO          ISRCON         OFF          [  0]   ***   
       SPIN_FLIP            ISPFLP         OFF          [  0]   ***   
       SPIN_ORBIT           ISPORB         OFF          [  0]   ***   
       SPIN_SCAL            ISCSMP         OFF          [  0]   ***   
       SUBGROUP             ISUBGP         DEFAULT      [  0]   ***   
       SUBGRPAXIS           ISBXYZ         X            [  0]   ***   
       SYMMETRY             ISYM             ON         [  0]   ***   
       SYM_CHECK            ISYMCK         OVERRIDE     [  1]   ***   
       T3_EXTRAPOL          IT3EXT         ON           [  1]   ***   
       TAMP_SUM             IEVERY              5               ***   
       TESTSUITE            ITESTS         OFF          [  0]   ***   
       THERMOCH             ITHERM         OFF          [  0]   ***   
       TOL_CHOLESK          ITOLCH          10D-  4             ***   
       TRANGRAD             IRESRM         OFF          [  0]   ***   
       TRANS_INV            ITRAIN         USE          [  0]   ***   
       TREAT_PERT           ITREAT         SIMULTANEOUS [  0]   ***   
       UIJ_THRESHO          IUIJTH              1               ***   
       UNITS                IUNITS         BOHR         [  1]   ***   
       UNOS                 IUNOS          OFF          [  0]   ***   
       UPDATE_HESS          IHUPDT         ON           [  1]   ***   
       VIBPHASE             ISETPH         STANDARD     [  0]   ***   
       VIBRATION            IVIB              NO        [  0]   ***   
       VIB_ALGORIT          IGEALG         STANDARD     [  0]   ***   
       VNATORB              IVNORB         OFF          [  0]   ***   
       VTRAN                IVTRAN         FULL/PARTIAL [  0]   ***   
       XFIELD               IXEFLD              0             x 10-6  
       XFORM_TOL            IXFTOL          10D- 18             ***   
       YFIELD               IYEFLD              0             x 10-6  
       ZFIELD               IZEFLD              0             x 10-6  
    -------------------------------------------------------------------
   4 entries found in Z-matrix 
   Job Title : TITLE                                                                           
 Variable names read by FETCHZ
  1           
  2           
  3           
  4 R         
  5           
  6           
  7 R         
  8 A120      
  9           
 10 R         
 11 A120      
 12 D180      
 Atomic symbols read by FETCHZ
  1 Al   
  2 I    
  3 I    
  4 I    
 Connectivity matrix read by FETCHZ
  1   0
  2   0
  3   0
  4   1
  5   0
  6   0
  7   1
  8   2
  9   0
 10   1
 11   2
 12   3
   There are  3 unique internal coordinates.
   Of these,  0 will be optimized.
   User supplied Z-matrix: 
--------------------------------------------------------------------------------
       SYMBOL    BOND      LENGTH    ANGLE     ANGLE     DIHED     ANGLE
                  TO      (ANGST)    WRT      (DEG)      WRT      (DEG)
--------------------------------------------------------------------------------
        Al   
        I          1         R    
        I          1         R          2        A120 
        I          1         R          2        A120       3        D180 
                  *Initial values for internal coordinates* 
                      Name             Value
                        R               4.6506159927
                        A120          120.0000000000
                        D180          180.0000000000
--------------------------------------------------------------------------------
  1  AL        13    26.98154
  2  I         53   126.90447
  3  I         53   126.90447
  4  I         53   126.90447
   26.9815386000
  126.9044730000
  126.9044730000
  126.9044730000
 After translation to center of mass coordinates 
        0.000000000000    0.000000000000   -0.000000000000
        0.000000000000    0.000000000000    4.650615992700
        4.027551592924    0.000000000000   -2.325307996350
       -4.027551592924   -0.000000000000   -2.325307996350
  Inertia tensor (amu*bohr**2)
 4117.07853   -0.00000    0.00000
   -0.00000 8234.15705   -0.00000
    0.00000   -0.00000 4117.07853
    Inertia tensor:
      ****************   -0.000000000000    0.000000000000
       -0.000000000000  ****************   -0.000000000000
        0.000000000000   -0.000000000000  ****************
    Principal axis orientation for molecular system: 
        0.000000000000   -0.000000000000    0.000000000000
        0.000000000000    4.650615992700    0.000000000000
        4.027551592924   -2.325307996350    0.000000000000
       -4.027551592924   -2.325307996350   -0.000000000000
    Diagonalized inertia tensor:
      ****************    0.000000000000    0.000000000000
        0.000000000000  ****************    0.000000000000
        0.000000000000    0.000000000000  ****************
    Eigenvectors of inertia tensor: 
        1.000000000000    0.000000000000    0.000000000000
        0.000000000000    0.000000000000    1.000000000000
        0.000000000000    1.000000000000    0.000000000000
 factor:   60.1997200000000     
   Rotational constants (in cm-1): 
          0.0073109754             0.0146219509             0.0146219509
   Rotational constants (in MHz): 
        219.1775605466           438.3551210933           438.3551210933
  @SYMMETRY-I, Handedness of inertial frame:-1.00000
  @SYMMETRY-I, Sense of inertial frame y-axis will be changed.
  @SYMMETRY-I, The symmetry group is 2-fold degenerate.
  @SYMMETRY-I, The molecule belongs to a point group with doubly degenerate representations.
  @SYMMETRY-I, Z is a C[ 3] axis.
  @SYMMETRY-I, The highest order rotational axis is C[ 3] about Z.
   Principal axis orientation for molecule:
        0.000000000000    0.000000000000    0.000000000000
       -2.325307996350   -4.027551592924    0.000000000000
        4.650615992700   -0.000000000000    0.000000000000
       -2.325307996350    4.027551592924   -0.000000000000
   Reflection in plane  3 is a valid symmetry operation.
   Reflection in plane  2 is a valid symmetry operation.
   Rotation about  1 is a valid symmetry operation 
  Symmetry bits:    6   1   0
********************************************************************************
   The full molecular point group is D3h .
   The largest Abelian subgroup of the full molecular point group is C2v .
   The computational point group is C2v .
********************************************************************************
--------------------------------------------------------------------------------
   Analysis of internal coordinates specified by Z-matrix 
--------------------------------------------------------------------------------
   *The nuclear repulsion energy is 1490.626344841747823 a.u.
   *There is   1 degree of freedom within the tot. symm. molecular subspace.
   *Z-matrix requests optimization of   0 coordinates.
   *The optimization is constrained.
   *The following   1 parameters can have non-zero 
    derivatives within the totally symmetric subspace:
             R    [ 1]
   *The following   0 parameters are to be optimized:

   *The following coordinates must be varied in an  unconstrained optimization.
             R    [ 1]
--------------------------------------------------------------------------------
 ----------------------------------------------------------------
 Z-matrix   Atomic            Coordinates (in bohr)
  Symbol    Number           X              Y              Z
 ----------------------------------------------------------------
     AL       13         0.00000000     0.00000000    -0.00000000
     I        53         0.00000000    -4.02755159     2.32530800
     I        53         0.00000000    -0.00000000    -4.65061599
     I        53        -0.00000000     4.02755159     2.32530800
 ----------------------------------------------------------------
   Interatomic distance matrix (Angstroms) 
 
                 AL            I             I             I    
                [ 1]        [ 2]        [ 3]        [ 4]
  AL   [ 1]     0.00000
  I    [ 2]     2.46100     0.00000
  I    [ 3]     2.46100     4.26258     0.00000
  I    [ 4]     2.46100     4.26258     4.26258     0.00000
  Inertia tensor (amu*bohr**2)
 8234.15705    0.00000    0.00000
    0.00000 4117.07853   -0.00000
    0.00000   -0.00000 4117.07853
   Rotational constants (in cm-1): 
          0.0073109754             0.0146219509             0.0146219509
   Rotational constants (in MHz): 
        219.1775605466           438.3551210933           438.3551210933
  @GTFLGS-W, Keyword #GEOM not known and is ignored.
  @GTFLGS-W, Keyword #COORD not known and is ignored.
  @GTFLGS-W, Keyword #CC_PROG not known and is ignored.
  @GTFLGS-W, Keyword #FROZEN_CORE not known and is ignored.
  @GTFLGS-W, Keyword #CONTRACTION not known and is ignored.
  @GTFLGS-W, Keyword #EXCITE not known and is ignored.
  @GTFLGS-W, Keyword #ESTATE_CONV not known and is ignored.
  @GTFLGS-W, Keyword #ESTATE_SYM not known and is ignored.
  @GTFLGS-W, Keyword #SCF_DAMPING not known and is ignored.
  @GTFLGS-W, Keyword #OCCUPATION not known and is ignored.
  There are  192 basis functions.
 @GEOPT-W, Archive file not created for single-point calculation.
  @CHECKOUT-I, Total execution time (CPU/WALL):        0.23/       2.61 seconds.
--executable xjoda finished with status     0 in        3.30 seconds (walltime).
 --invoking executable--
/home/nike/cfour/cfour_v2.00beta/bin/xvmol
 Serial version of molecule started
********************************************************************************
                    Input from MOL file
********************************************************************************
INTGRL        1    0    1    1    0    0    0    0    0                         
         *** CFOUR Program System (Release V0.1) ***                            
TITLE                                                                           
    3    2 X  Y       0.10E-08              0    0                              
   9999.00      3.00                                                            
         13.00000000    1    4    1    1    1    1                              
AL#1   0.000000000000000   0.000000000000000  -0.000000000000000                
   14    5                                                                      
   37792.5507720000       5.704788870900000E-004  0.000000000000000E+000        
  0.000000000000000E+000  0.000000000000000E+000  0.000000000000000E+000        
   5668.06821650000       4.409301653800000E-003  0.000000000000000E+000        
  0.000000000000000E+000  0.000000000000000E+000  0.000000000000000E+000        
   1289.85828410000       2.263096741100000E-002  0.000000000000000E+000        
  0.000000000000000E+000  0.000000000000000E+000  0.000000000000000E+000        
   364.865960280000       8.802564429500000E-002  0.000000000000000E+000        
  0.000000000000000E+000  0.000000000000000E+000  0.000000000000000E+000        
   118.576315150000       0.252237016120000       0.000000000000000E+000        
  0.000000000000000E+000  0.000000000000000E+000  0.000000000000000E+000        
   42.0248676050000       0.459605471690000       0.000000000000000E+000        
  0.000000000000000E+000  0.000000000000000E+000  0.000000000000000E+000        
   15.4995016290000       0.332778860140000       0.000000000000000E+000        
  0.000000000000000E+000  0.000000000000000E+000  0.000000000000000E+000        
   75.2080265980000       0.000000000000000E+000  1.925056019000000E-002        
  0.000000000000000E+000  0.000000000000000E+000  0.000000000000000E+000        
   23.0314089720000       0.000000000000000E+000  8.790674395200000E-002        
  0.000000000000000E+000  0.000000000000000E+000  0.000000000000000E+000        
   3.63487976490000       0.000000000000000E+000 -0.342467045350000             
  0.000000000000000E+000  0.000000000000000E+000  0.000000000000000E+000        
   1.60650499570000       0.000000000000000E+000  0.000000000000000E+000        
   1.51062660580000       0.000000000000000E+000  0.000000000000000E+000        
  0.761033945810000       0.000000000000000E+000  0.000000000000000E+000        
  0.580710164700000       0.000000000000000E+000  0.000000000000000E+000        
  0.165567088490000       0.000000000000000E+000  0.000000000000000E+000        
  0.000000000000000E+000   1.00000000000000       0.000000000000000E+000        
  6.004157711300000E-002  0.000000000000000E+000  0.000000000000000E+000        
  0.000000000000000E+000  0.000000000000000E+000   1.00000000000000             
    9    5                                                                      
   452.523031920000       2.311081246600000E-003  0.000000000000000E+000        
  0.000000000000000E+000  0.000000000000000E+000  0.000000000000000E+000        
   107.081950490000       1.856864182300000E-002  0.000000000000000E+000        
  0.000000000000000E+000  0.000000000000000E+000  0.000000000000000E+000        
   34.1310212550000       8.721623703500000E-002  0.000000000000000E+000        
  0.000000000000000E+000  0.000000000000000E+000  0.000000000000000E+000        
   12.5870374280000       0.269021015230000       0.000000000000000E+000        
  0.000000000000000E+000  0.000000000000000E+000  0.000000000000000E+000        
   4.98119197040000       0.521283242720000       0.000000000000000E+000        
  0.000000000000000E+000  0.000000000000000E+000  0.000000000000000E+000        
   2.00703509000000       0.000000000000000E+000  0.602716874940000             
  0.000000000000000E+000  0.000000000000000E+000  0.000000000000000E+000        
  0.800837143740000       0.000000000000000E+000  0.000000000000000E+000        
   1.00000000000000       0.000000000000000E+000  0.000000000000000E+000        
  0.201789274720000       0.000000000000000E+000  0.000000000000000E+000        
  0.000000000000000E+000   1.00000000000000       0.000000000000000E+000        
  5.789555039200000E-002  0.000000000000000E+000  0.000000000000000E+000        
  0.000000000000000E+000  0.000000000000000E+000   1.00000000000000             
    3    3                                                                      
  0.111000000000000        1.00000000000000       0.000000000000000E+000        
  0.000000000000000E+000                                                        
   1.57000000000000       0.000000000000000E+000   1.00000000000000             
  0.000000000000000E+000                                                        
  0.333000000000000       0.000000000000000E+000  0.000000000000000E+000        
   1.00000000000000                                                             
    1    1                                                                      
  0.244000000000000        1.00000000000000                                     
         53.00000000    1    4    1    1    1    1                              
I #2   0.000000000000000  -4.027551592924384   2.325307996350000                
   11    6                                                                      
   5899.57915330000       2.418826927100000E-004  0.000000000000000E+000        
  0.000000000000000E+000  0.000000000000000E+000  0.000000000000000E+000        
  0.000000000000000E+000                                                        
   898.542387650000       1.547404174200000E-003  0.000000000000000E+000        
  0.000000000000000E+000  0.000000000000000E+000  0.000000000000000E+000        
  0.000000000000000E+000                                                        
   200.372379120000       4.283668445700000E-003  0.000000000000000E+000        
  0.000000000000000E+000  0.000000000000000E+000  0.000000000000000E+000        
  0.000000000000000E+000                                                        
   31.4180538400000      -3.941793627500000E-002  0.000000000000000E+000        
  0.000000000000000E+000  0.000000000000000E+000  0.000000000000000E+000        
  0.000000000000000E+000                                                        
   15.6459878380000       0.960866919920000       0.000000000000000E+000        
  0.000000000000000E+000  0.000000000000000E+000  0.000000000000000E+000        
  0.000000000000000E+000                                                        
   11.8157418570000       0.000000000000000E+000  0.759615240910000             
  0.000000000000000E+000  0.000000000000000E+000  0.000000000000000E+000        
  0.000000000000000E+000                                                        
   6.46144582870000       0.000000000000000E+000  0.424955018350000             
  0.000000000000000E+000  0.000000000000000E+000  0.000000000000000E+000        
  0.000000000000000E+000                                                        
   2.38380675790000       0.000000000000000E+000  0.000000000000000E+000        
   1.00000000000000       0.000000000000000E+000  0.000000000000000E+000        
  0.000000000000000E+000                                                        
   1.17120896620000       0.000000000000000E+000  0.000000000000000E+000        
  0.000000000000000E+000   1.00000000000000       0.000000000000000E+000        
  0.000000000000000E+000                                                        
  0.321158757570000       0.000000000000000E+000  0.000000000000000E+000        
  0.000000000000000E+000  0.000000000000000E+000   1.00000000000000             
  0.000000000000000E+000                                                        
  0.123879193640000       0.000000000000000E+000  0.000000000000000E+000        
  0.000000000000000E+000  0.000000000000000E+000  0.000000000000000E+000        
   1.00000000000000                                                             
   10    5                                                                      
   12.9843169040000      -4.909618616400000E-002  0.000000000000000E+000        
  0.000000000000000E+000  0.000000000000000E+000  0.000000000000000E+000        
   3.61995030080000       0.389144324820000       0.000000000000000E+000        
  0.000000000000000E+000  0.000000000000000E+000  0.000000000000000E+000        
   2.02322730900000       0.656108172620000       0.000000000000000E+000        
  0.000000000000000E+000  0.000000000000000E+000  0.000000000000000E+000        
   1.03674905590000       0.318035516470000       0.000000000000000E+000        
  0.000000000000000E+000  0.000000000000000E+000  0.000000000000000E+000        
   197.300305470000       0.000000000000000E+000  7.395122690499999E-004        
  0.000000000000000E+000  0.000000000000000E+000  0.000000000000000E+000        
   20.0614113490000       0.000000000000000E+000  6.616845000799999E-002        
  0.000000000000000E+000  0.000000000000000E+000  0.000000000000000E+000        
   9.76314604850000       0.000000000000000E+000 -0.285546623480000             
  0.000000000000000E+000  0.000000000000000E+000  0.000000000000000E+000        
  0.459378160000000       0.000000000000000E+000  0.000000000000000E+000        
   1.00000000000000       0.000000000000000E+000  0.000000000000000E+000        
  0.191165329280000       0.000000000000000E+000  0.000000000000000E+000        
  0.000000000000000E+000   1.00000000000000       0.000000000000000E+000        
  7.487881302299999E-002  0.000000000000000E+000  0.000000000000000E+000        
  0.000000000000000E+000  0.000000000000000E+000   1.00000000000000             
    8    3                                                                      
   119.126717450000       8.259603957300000E-004  0.000000000000000E+000        
  0.000000000000000E+000                                                        
   33.4042401340000       6.837767577000000E-003  0.000000000000000E+000        
  0.000000000000000E+000                                                        
   17.8059182030000      -1.030815899700000E-002  0.000000000000000E+000        
  0.000000000000000E+000                                                        
   4.89905103530000       0.226704576580000       0.000000000000000E+000        
  0.000000000000000E+000                                                        
   2.45167531060000       0.441801139370000       0.000000000000000E+000        
  0.000000000000000E+000                                                        
   1.18206934320000       0.367754722250000       0.000000000000000E+000        
  0.000000000000000E+000                                                        
  0.529231100680000       0.000000000000000E+000   1.00000000000000             
  0.000000000000000E+000                                                        
  0.170000000000000       0.000000000000000E+000  0.000000000000000E+000        
   1.00000000000000                                                             
    2    2                                                                      
  0.441418080000000        1.00000000000000       0.000000000000000E+000        
   2.18000000000000       0.000000000000000E+000   1.00000000000000             
         53.00000000    1    4    1    1    1    1                              
I #3   0.000000000000000  -0.000000000000001  -4.650615992700000                
   11    6                                                                      
   5899.57915330000       2.418826927100000E-004  0.000000000000000E+000        
  0.000000000000000E+000  0.000000000000000E+000  0.000000000000000E+000        
  0.000000000000000E+000                                                        
   898.542387650000       1.547404174200000E-003  0.000000000000000E+000        
  0.000000000000000E+000  0.000000000000000E+000  0.000000000000000E+000        
  0.000000000000000E+000                                                        
   200.372379120000       4.283668445700000E-003  0.000000000000000E+000        
  0.000000000000000E+000  0.000000000000000E+000  0.000000000000000E+000        
  0.000000000000000E+000                                                        
   31.4180538400000      -3.941793627500000E-002  0.000000000000000E+000        
  0.000000000000000E+000  0.000000000000000E+000  0.000000000000000E+000        
  0.000000000000000E+000                                                        
   15.6459878380000       0.960866919920000       0.000000000000000E+000        
  0.000000000000000E+000  0.000000000000000E+000  0.000000000000000E+000        
  0.000000000000000E+000                                                        
   11.8157418570000       0.000000000000000E+000  0.759615240910000             
  0.000000000000000E+000  0.000000000000000E+000  0.000000000000000E+000        
  0.000000000000000E+000                                                        
   6.46144582870000       0.000000000000000E+000  0.424955018350000             
  0.000000000000000E+000  0.000000000000000E+000  0.000000000000000E+000        
  0.000000000000000E+000                                                        
   2.38380675790000       0.000000000000000E+000  0.000000000000000E+000        
   1.00000000000000       0.000000000000000E+000  0.000000000000000E+000        
  0.000000000000000E+000                                                        
   1.17120896620000       0.000000000000000E+000  0.000000000000000E+000        
  0.000000000000000E+000   1.00000000000000       0.000000000000000E+000        
  0.000000000000000E+000                                                        
  0.321158757570000       0.000000000000000E+000  0.000000000000000E+000        
  0.000000000000000E+000  0.000000000000000E+000   1.00000000000000             
  0.000000000000000E+000                                                        
  0.123879193640000       0.000000000000000E+000  0.000000000000000E+000        
  0.000000000000000E+000  0.000000000000000E+000  0.000000000000000E+000        
   1.00000000000000                                                             
   10    5                                                                      
   12.9843169040000      -4.909618616400000E-002  0.000000000000000E+000        
  0.000000000000000E+000  0.000000000000000E+000  0.000000000000000E+000        
   3.61995030080000       0.389144324820000       0.000000000000000E+000        
  0.000000000000000E+000  0.000000000000000E+000  0.000000000000000E+000        
   2.02322730900000       0.656108172620000       0.000000000000000E+000        
  0.000000000000000E+000  0.000000000000000E+000  0.000000000000000E+000        
   1.03674905590000       0.318035516470000       0.000000000000000E+000        
  0.000000000000000E+000  0.000000000000000E+000  0.000000000000000E+000        
   197.300305470000       0.000000000000000E+000  7.395122690499999E-004        
  0.000000000000000E+000  0.000000000000000E+000  0.000000000000000E+000        
   20.0614113490000       0.000000000000000E+000  6.616845000799999E-002        
  0.000000000000000E+000  0.000000000000000E+000  0.000000000000000E+000        
   9.76314604850000       0.000000000000000E+000 -0.285546623480000             
  0.000000000000000E+000  0.000000000000000E+000  0.000000000000000E+000        
  0.459378160000000       0.000000000000000E+000  0.000000000000000E+000        
   1.00000000000000       0.000000000000000E+000  0.000000000000000E+000        
  0.191165329280000       0.000000000000000E+000  0.000000000000000E+000        
  0.000000000000000E+000   1.00000000000000       0.000000000000000E+000        
  7.487881302299999E-002  0.000000000000000E+000  0.000000000000000E+000        
  0.000000000000000E+000  0.000000000000000E+000   1.00000000000000             
    8    3                                                                      
   119.126717450000       8.259603957300000E-004  0.000000000000000E+000        
  0.000000000000000E+000                                                        
   33.4042401340000       6.837767577000000E-003  0.000000000000000E+000        
  0.000000000000000E+000                                                        
   17.8059182030000      -1.030815899700000E-002  0.000000000000000E+000        
  0.000000000000000E+000                                                        
   4.89905103530000       0.226704576580000       0.000000000000000E+000        
  0.000000000000000E+000                                                        
   2.45167531060000       0.441801139370000       0.000000000000000E+000        
  0.000000000000000E+000                                                        
   1.18206934320000       0.367754722250000       0.000000000000000E+000        
  0.000000000000000E+000                                                        
  0.529231100680000       0.000000000000000E+000   1.00000000000000             
  0.000000000000000E+000                                                        
  0.170000000000000       0.000000000000000E+000  0.000000000000000E+000        
   1.00000000000000                                                             
    2    2                                                                      
  0.441418080000000        1.00000000000000       0.000000000000000E+000        
   2.18000000000000       0.000000000000000E+000   1.00000000000000             
FINISH                                                                          
 
********************************************************************************
 One- and two-electron integrals over symmetry-adapted AOs are calculated.

  Spherical harmonics are used.
  
  Effective core potentials are used.
   3 types of atoms
   2 symmetry operations

   Reflection in the YZ-plane
   Reflection in the XZ-plane
  
  Integrals less than  0.10E-13 are neglected.

  Atomic type number  1 :
  -----------------------

    Nuclear charge:                       13
    number of symmetry independent atoms:  1
    highest orbital type:                  f

      1 groups of CGTOs of s type
      1 groups of CGTOs of p type
      1 groups of CGTOs of d type
      1 groups of CGTOs of f type

    nuclear coordinates (in a.u.) are :

    AL#1        0.000000000000000        0.000000000000000        0.000000000000000
  
   Basis function not normalized: 
   Center (as ordered in MOL file):   1
   Angular Momentum type          : s
   Offset within angular momentum :  1
   <chi|chi>                      :    0.9854884151
   Basis function not normalized: 
   Center (as ordered in MOL file):   1
   Angular Momentum type          : s
   Offset within angular momentum :  2
   <chi|chi>                      :    3.3294106546
   Basis function not normalized: 
   Center (as ordered in MOL file):   1
   Angular Momentum type          : s
   Offset within angular momentum :  3
   <chi|chi>                      :    0.4877727374
   Basis function not normalized: 
   Center (as ordered in MOL file):   1
   Angular Momentum type          : p
   Offset within angular momentum :  1
   <chi|chi>                      :    1.2463505194
   Basis function not normalized: 
   Center (as ordered in MOL file):   1
   Angular Momentum type          : p
   Offset within angular momentum :  2
   <chi|chi>                      :    1.6591538110
  Atomic type number  2 :
  -----------------------

    Nuclear charge:                       53
    number of symmetry independent atoms:  1
    highest orbital type:                  f

      1 groups of CGTOs of s type
      1 groups of CGTOs of p type
      1 groups of CGTOs of d type
      1 groups of CGTOs of f type

    nuclear coordinates (in a.u.) are :

    I #2        0.000000000000000       -4.027551592924384        2.325307996350000
  
   Basis function not normalized: 
   Center (as ordered in MOL file):   2
   Angular Momentum type          : s
   Offset within angular momentum :  1
   <chi|chi>                      :    1.0790587337
   Basis function not normalized: 
   Center (as ordered in MOL file):   2
   Angular Momentum type          : s
   Offset within angular momentum :  2
   <chi|chi>                      :    0.8571179957
   Basis function not normalized: 
   Center (as ordered in MOL file):   2
   Angular Momentum type          : p
   Offset within angular momentum :  1
   <chi|chi>                      :    0.7878750281
   Basis function not normalized: 
   Center (as ordered in MOL file):   2
   Angular Momentum type          : p
   Offset within angular momentum :  2
   <chi|chi>                      :    4.3174052775
   Basis function not normalized: 
   Center (as ordered in MOL file):   2
   Angular Momentum type          : d
   Offset within angular momentum :  1
   <chi|chi>                      :    1.0698317908
  Atomic type number  3 :
  -----------------------

    Nuclear charge:                       53
    number of symmetry independent atoms:  1
    highest orbital type:                  f

      1 groups of CGTOs of s type
      1 groups of CGTOs of p type
      1 groups of CGTOs of d type
      1 groups of CGTOs of f type

    nuclear coordinates (in a.u.) are :

    I #3        0.000000000000000       -0.000000000000001       -4.650615992700000
  
   Basis function not normalized: 
   Center (as ordered in MOL file):   3
   Angular Momentum type          : s
   Offset within angular momentum :  1
   <chi|chi>                      :    1.0790587337
   Basis function not normalized: 
   Center (as ordered in MOL file):   3
   Angular Momentum type          : s
   Offset within angular momentum :  2
   <chi|chi>                      :    0.8571179957
   Basis function not normalized: 
   Center (as ordered in MOL file):   3
   Angular Momentum type          : p
   Offset within angular momentum :  1
   <chi|chi>                      :    0.7878750281
   Basis function not normalized: 
   Center (as ordered in MOL file):   3
   Angular Momentum type          : p
   Offset within angular momentum :  2
   <chi|chi>                      :    4.3174052775
   Basis function not normalized: 
   Center (as ordered in MOL file):   3
   Angular Momentum type          : d
   Offset within angular momentum :  1
   <chi|chi>                      :    1.0698317908
 ECP CALLED
 reading data block $ecp from file <ECPDATA>

          ------------------
          -ecp- potential(s)
          ------------------
 ECP PARAMETERS FOR ATOM                     2
I:def2-TZVPP        
*
  NCORE =    28           LMAX =     3
#        COEFFICIENT   R^N          EXPONENT
f
         -21.8420400    2          19.4586090
         -28.4681910    2          19.3492600
          -0.2437130    2           4.8237670
          -0.3208040    2           4.8843150
s-f
          49.9942930    2          40.0158350
         281.0253170    2          17.4297470
          61.5733260    2           9.0054840
          21.8420400    2          19.4586090
          28.4681910    2          19.3492600
           0.2437130    2           4.8237670
           0.3208040    2           4.8843150
p-f
          67.4428410    2          15.3554660
         134.8811370    2          14.9718330
          14.6750510    2           8.9601640
          29.3756660    2           8.2590960
          21.8420400    2          19.4586090
          28.4681910    2          19.3492600
           0.2437130    2           4.8237670
           0.3208040    2           4.8843150
d-f
          35.4395290    2          15.0689080
          53.1760570    2          14.5553220
           9.0671950    2           6.7186470
          13.2069370    2           6.4563930
           0.0893350    2           1.1917790
           0.0523800    2           1.2911570
          21.8420400    2          19.4586090
          28.4681910    2          19.3492600
           0.2437130    2           4.8237670
           0.3208040    2           4.8843150
*
 ECP PARAMETERS FOR ATOM                     3
I:def2-TZVPP        
*
  NCORE =    28           LMAX =     3
#        COEFFICIENT   R^N          EXPONENT
f
         -21.8420400    2          19.4586090
         -28.4681910    2          19.3492600
          -0.2437130    2           4.8237670
          -0.3208040    2           4.8843150
s-f
          49.9942930    2          40.0158350
         281.0253170    2          17.4297470
          61.5733260    2           9.0054840
          21.8420400    2          19.4586090
          28.4681910    2          19.3492600
           0.2437130    2           4.8237670
           0.3208040    2           4.8843150
p-f
          67.4428410    2          15.3554660
         134.8811370    2          14.9718330
          14.6750510    2           8.9601640
          29.3756660    2           8.2590960
          21.8420400    2          19.4586090
          28.4681910    2          19.3492600
           0.2437130    2           4.8237670
           0.3208040    2           4.8843150
d-f
          35.4395290    2          15.0689080
          53.1760570    2          14.5553220
           9.0671950    2           6.7186470
          13.2069370    2           6.4563930
           0.0893350    2           1.1917790
           0.0523800    2           1.2911570
          21.8420400    2          19.4586090
          28.4681910    2          19.3492600
           0.2437130    2           4.8237670
           0.3208040    2           4.8843150
*

     code set-up for matrix elements of effective core potential

          basis functions are max type  i
          projection operator max type  h
          1.basic angular ints.........     0.02 sec
          2.local operator ints........     0.00 sec
          3.projection operator ints...     0.00 sec
          4.special angular ints.......     0.00 sec

   Internuclear distances (A) :

     for atom AL#1 (coordinates :   0.00000   0.00000   0.00000)

     I #2   1     distance is  2.461
     I #3   1     distance is  2.461

     for atom I #2 (coordinates :   0.00000  -4.02755   2.32531)

     I #2   3     distance is  4.263
     I #3   1     distance is  4.263

     for atom I #3 (coordinates :   0.00000  -0.00000  -4.65062)


   Group multiplication table :

         1   2   3   4
         2   1   4   3
         3   4   1   2
         4   3   2   1

   Gaussian basis information :

   atom                 exponent      coefficients

 AL#1  1    S   
+                 1   37792.550772   0.0005705   0.0000000   0.0000000   0.0000000   0.0000000
                  2    5668.068216   0.0044093   0.0000000   0.0000000   0.0000000   0.0000000
                  3    1289.858284   0.0226310   0.0000000   0.0000000   0.0000000   0.0000000
                  4     364.865960   0.0880256   0.0000000   0.0000000   0.0000000   0.0000000
                  5     118.576315   0.2522370   0.0000000   0.0000000   0.0000000   0.0000000
                  6      42.024868   0.4596055   0.0000000   0.0000000   0.0000000   0.0000000
                  7      15.499502   0.3327789   0.0000000   0.0000000   0.0000000   0.0000000
                  8      75.208027   0.0000000   0.0192506   0.0000000   0.0000000   0.0000000
                  9      23.031409   0.0000000   0.0879067   0.0000000   0.0000000   0.0000000
                 10       3.634880   0.0000000  -0.3424670   0.0000000   0.0000000   0.0000000
                 11       1.606505   0.0000000   0.0000000   1.5106266   0.0000000   0.0000000
                 12       0.761034   0.0000000   0.0000000   0.5807102   0.0000000   0.0000000
                 13       0.165567   0.0000000   0.0000000   0.0000000   1.0000000   0.0000000
                 14       0.060042   0.0000000   0.0000000   0.0000000   0.0000000   1.0000000

 AL#1  1    X   
+                15     452.523032   0.0023111   0.0000000   0.0000000   0.0000000   0.0000000
                 16     107.081950   0.0185686   0.0000000   0.0000000   0.0000000   0.0000000
                 17      34.131021   0.0872162   0.0000000   0.0000000   0.0000000   0.0000000
                 18      12.587037   0.2690210   0.0000000   0.0000000   0.0000000   0.0000000
                 19       4.981192   0.5212832   0.0000000   0.0000000   0.0000000   0.0000000
                 20       2.007035   0.0000000   0.6027169   0.0000000   0.0000000   0.0000000
                 21       0.800837   0.0000000   0.0000000   1.0000000   0.0000000   0.0000000
                 22       0.201789   0.0000000   0.0000000   0.0000000   1.0000000   0.0000000
                 23       0.057896   0.0000000   0.0000000   0.0000000   0.0000000   1.0000000

 AL#1  1    Y   
+                24     452.523032   0.0023111   0.0000000   0.0000000   0.0000000   0.0000000
                 25     107.081950   0.0185686   0.0000000   0.0000000   0.0000000   0.0000000
                 26      34.131021   0.0872162   0.0000000   0.0000000   0.0000000   0.0000000
                 27      12.587037   0.2690210   0.0000000   0.0000000   0.0000000   0.0000000
                 28       4.981192   0.5212832   0.0000000   0.0000000   0.0000000   0.0000000
                 29       2.007035   0.0000000   0.6027169   0.0000000   0.0000000   0.0000000
                 30       0.800837   0.0000000   0.0000000   1.0000000   0.0000000   0.0000000
                 31       0.201789   0.0000000   0.0000000   0.0000000   1.0000000   0.0000000
                 32       0.057896   0.0000000   0.0000000   0.0000000   0.0000000   1.0000000

 AL#1  1    Z   
+                33     452.523032   0.0023111   0.0000000   0.0000000   0.0000000   0.0000000
                 34     107.081950   0.0185686   0.0000000   0.0000000   0.0000000   0.0000000
                 35      34.131021   0.0872162   0.0000000   0.0000000   0.0000000   0.0000000
                 36      12.587037   0.2690210   0.0000000   0.0000000   0.0000000   0.0000000
                 37       4.981192   0.5212832   0.0000000   0.0000000   0.0000000   0.0000000
                 38       2.007035   0.0000000   0.6027169   0.0000000   0.0000000   0.0000000
                 39       0.800837   0.0000000   0.0000000   1.0000000   0.0000000   0.0000000
                 40       0.201789   0.0000000   0.0000000   0.0000000   1.0000000   0.0000000
                 41       0.057896   0.0000000   0.0000000   0.0000000   0.0000000   1.0000000

 AL#1  1    XX  
+                42       0.111000   1.0000000   0.0000000   0.0000000
                 43       1.570000   0.0000000   1.0000000   0.0000000
                 44       0.333000   0.0000000   0.0000000   1.0000000

 AL#1  1    XY  
+                45       0.111000   1.0000000   0.0000000   0.0000000
                 46       1.570000   0.0000000   1.0000000   0.0000000
                 47       0.333000   0.0000000   0.0000000   1.0000000

 AL#1  1    XZ  
+                48       0.111000   1.0000000   0.0000000   0.0000000
                 49       1.570000   0.0000000   1.0000000   0.0000000
                 50       0.333000   0.0000000   0.0000000   1.0000000

 AL#1  1    YY  
+                51       0.111000   1.0000000   0.0000000   0.0000000
                 52       1.570000   0.0000000   1.0000000   0.0000000
                 53       0.333000   0.0000000   0.0000000   1.0000000

 AL#1  1    YZ  
+                54       0.111000   1.0000000   0.0000000   0.0000000
                 55       1.570000   0.0000000   1.0000000   0.0000000
                 56       0.333000   0.0000000   0.0000000   1.0000000

 AL#1  1    ZZ  
+                57       0.111000   1.0000000   0.0000000   0.0000000
                 58       1.570000   0.0000000   1.0000000   0.0000000
                 59       0.333000   0.0000000   0.0000000   1.0000000

 AL#1  1    F300
+                60       0.244000   1.0000000

 AL#1  1    F210
+                61       0.244000   1.0000000

 AL#1  1    F201
+                62       0.244000   1.0000000

 AL#1  1    F120
+                63       0.244000   1.0000000

 AL#1  1    F111
+                64       0.244000   1.0000000

 AL#1  1    F102
+                65       0.244000   1.0000000

 AL#1  1    F030
+                66       0.244000   1.0000000

 AL#1  1    F021
+                67       0.244000   1.0000000

 AL#1  1    F012
+                68       0.244000   1.0000000

 AL#1  1    F003
+                69       0.244000   1.0000000

 I #2  1    S   
+                70    5899.579153   0.0002419   0.0000000   0.0000000   0.0000000   0.0000000   0.0000000
                 71     898.542388   0.0015474   0.0000000   0.0000000   0.0000000   0.0000000   0.0000000
                 72     200.372379   0.0042837   0.0000000   0.0000000   0.0000000   0.0000000   0.0000000
                 73      31.418054  -0.0394179   0.0000000   0.0000000   0.0000000   0.0000000   0.0000000
                 74      15.645988   0.9608669   0.0000000   0.0000000   0.0000000   0.0000000   0.0000000
                 75      11.815742   0.0000000   0.7596152   0.0000000   0.0000000   0.0000000   0.0000000
                 76       6.461446   0.0000000   0.4249550   0.0000000   0.0000000   0.0000000   0.0000000
                 77       2.383807   0.0000000   0.0000000   1.0000000   0.0000000   0.0000000   0.0000000
                 78       1.171209   0.0000000   0.0000000   0.0000000   1.0000000   0.0000000   0.0000000
                 79       0.321159   0.0000000   0.0000000   0.0000000   0.0000000   1.0000000   0.0000000
                 80       0.123879   0.0000000   0.0000000   0.0000000   0.0000000   0.0000000   1.0000000

 I #2  3    S   
+                81    5899.579153   0.0002419   0.0000000   0.0000000   0.0000000   0.0000000   0.0000000
                 82     898.542388   0.0015474   0.0000000   0.0000000   0.0000000   0.0000000   0.0000000
                 83     200.372379   0.0042837   0.0000000   0.0000000   0.0000000   0.0000000   0.0000000
                 84      31.418054  -0.0394179   0.0000000   0.0000000   0.0000000   0.0000000   0.0000000
                 85      15.645988   0.9608669   0.0000000   0.0000000   0.0000000   0.0000000   0.0000000
                 86      11.815742   0.0000000   0.7596152   0.0000000   0.0000000   0.0000000   0.0000000
                 87       6.461446   0.0000000   0.4249550   0.0000000   0.0000000   0.0000000   0.0000000
                 88       2.383807   0.0000000   0.0000000   1.0000000   0.0000000   0.0000000   0.0000000
                 89       1.171209   0.0000000   0.0000000   0.0000000   1.0000000   0.0000000   0.0000000
                 90       0.321159   0.0000000   0.0000000   0.0000000   0.0000000   1.0000000   0.0000000
                 91       0.123879   0.0000000   0.0000000   0.0000000   0.0000000   0.0000000   1.0000000

 I #2  1    X   
+                92      12.984317  -0.0490962   0.0000000   0.0000000   0.0000000   0.0000000
                 93       3.619950   0.3891443   0.0000000   0.0000000   0.0000000   0.0000000
                 94       2.023227   0.6561082   0.0000000   0.0000000   0.0000000   0.0000000
                 95       1.036749   0.3180355   0.0000000   0.0000000   0.0000000   0.0000000
                 96     197.300305   0.0000000   0.0007395   0.0000000   0.0000000   0.0000000
                 97      20.061411   0.0000000   0.0661685   0.0000000   0.0000000   0.0000000
                 98       9.763146   0.0000000  -0.2855466   0.0000000   0.0000000   0.0000000
                 99       0.459378   0.0000000   0.0000000   1.0000000   0.0000000   0.0000000
                100       0.191165   0.0000000   0.0000000   0.0000000   1.0000000   0.0000000
                101       0.074879   0.0000000   0.0000000   0.0000000   0.0000000   1.0000000

 I #2  3    X   
+               102      12.984317  -0.0490962   0.0000000   0.0000000   0.0000000   0.0000000
                103       3.619950   0.3891443   0.0000000   0.0000000   0.0000000   0.0000000
                104       2.023227   0.6561082   0.0000000   0.0000000   0.0000000   0.0000000
                105       1.036749   0.3180355   0.0000000   0.0000000   0.0000000   0.0000000
                106     197.300305   0.0000000   0.0007395   0.0000000   0.0000000   0.0000000
                107      20.061411   0.0000000   0.0661685   0.0000000   0.0000000   0.0000000
                108       9.763146   0.0000000  -0.2855466   0.0000000   0.0000000   0.0000000
                109       0.459378   0.0000000   0.0000000   1.0000000   0.0000000   0.0000000
                110       0.191165   0.0000000   0.0000000   0.0000000   1.0000000   0.0000000
                111       0.074879   0.0000000   0.0000000   0.0000000   0.0000000   1.0000000

 I #2  1    Y   
+               112      12.984317  -0.0490962   0.0000000   0.0000000   0.0000000   0.0000000
                113       3.619950   0.3891443   0.0000000   0.0000000   0.0000000   0.0000000
                114       2.023227   0.6561082   0.0000000   0.0000000   0.0000000   0.0000000
                115       1.036749   0.3180355   0.0000000   0.0000000   0.0000000   0.0000000
                116     197.300305   0.0000000   0.0007395   0.0000000   0.0000000   0.0000000
                117      20.061411   0.0000000   0.0661685   0.0000000   0.0000000   0.0000000
                118       9.763146   0.0000000  -0.2855466   0.0000000   0.0000000   0.0000000
                119       0.459378   0.0000000   0.0000000   1.0000000   0.0000000   0.0000000
                120       0.191165   0.0000000   0.0000000   0.0000000   1.0000000   0.0000000
                121       0.074879   0.0000000   0.0000000   0.0000000   0.0000000   1.0000000

 I #2  3    Y   
+               122      12.984317  -0.0490962   0.0000000   0.0000000   0.0000000   0.0000000
                123       3.619950   0.3891443   0.0000000   0.0000000   0.0000000   0.0000000
                124       2.023227   0.6561082   0.0000000   0.0000000   0.0000000   0.0000000
                125       1.036749   0.3180355   0.0000000   0.0000000   0.0000000   0.0000000
                126     197.300305   0.0000000   0.0007395   0.0000000   0.0000000   0.0000000
                127      20.061411   0.0000000   0.0661685   0.0000000   0.0000000   0.0000000
                128       9.763146   0.0000000  -0.2855466   0.0000000   0.0000000   0.0000000
                129       0.459378   0.0000000   0.0000000   1.0000000   0.0000000   0.0000000
                130       0.191165   0.0000000   0.0000000   0.0000000   1.0000000   0.0000000
                131       0.074879   0.0000000   0.0000000   0.0000000   0.0000000   1.0000000

 I #2  1    Z   
+               132      12.984317  -0.0490962   0.0000000   0.0000000   0.0000000   0.0000000
                133       3.619950   0.3891443   0.0000000   0.0000000   0.0000000   0.0000000
                134       2.023227   0.6561082   0.0000000   0.0000000   0.0000000   0.0000000
                135       1.036749   0.3180355   0.0000000   0.0000000   0.0000000   0.0000000
                136     197.300305   0.0000000   0.0007395   0.0000000   0.0000000   0.0000000
                137      20.061411   0.0000000   0.0661685   0.0000000   0.0000000   0.0000000
                138       9.763146   0.0000000  -0.2855466   0.0000000   0.0000000   0.0000000
                139       0.459378   0.0000000   0.0000000   1.0000000   0.0000000   0.0000000
                140       0.191165   0.0000000   0.0000000   0.0000000   1.0000000   0.0000000
                141       0.074879   0.0000000   0.0000000   0.0000000   0.0000000   1.0000000

 I #2  3    Z   
+               142      12.984317  -0.0490962   0.0000000   0.0000000   0.0000000   0.0000000
                143       3.619950   0.3891443   0.0000000   0.0000000   0.0000000   0.0000000
                144       2.023227   0.6561082   0.0000000   0.0000000   0.0000000   0.0000000
                145       1.036749   0.3180355   0.0000000   0.0000000   0.0000000   0.0000000
                146     197.300305   0.0000000   0.0007395   0.0000000   0.0000000   0.0000000
                147      20.061411   0.0000000   0.0661685   0.0000000   0.0000000   0.0000000
                148       9.763146   0.0000000  -0.2855466   0.0000000   0.0000000   0.0000000
                149       0.459378   0.0000000   0.0000000   1.0000000   0.0000000   0.0000000
                150       0.191165   0.0000000   0.0000000   0.0000000   1.0000000   0.0000000
                151       0.074879   0.0000000   0.0000000   0.0000000   0.0000000   1.0000000

 I #2  1    XX  
+               152     119.126717   0.0008260   0.0000000   0.0000000
                153      33.404240   0.0068378   0.0000000   0.0000000
                154      17.805918  -0.0103082   0.0000000   0.0000000
                155       4.899051   0.2267046   0.0000000   0.0000000
                156       2.451675   0.4418011   0.0000000   0.0000000
                157       1.182069   0.3677547   0.0000000   0.0000000
                158       0.529231   0.0000000   1.0000000   0.0000000
                159       0.170000   0.0000000   0.0000000   1.0000000

 I #2  3    XX  
+               160     119.126717   0.0008260   0.0000000   0.0000000
                161      33.404240   0.0068378   0.0000000   0.0000000
                162      17.805918  -0.0103082   0.0000000   0.0000000
                163       4.899051   0.2267046   0.0000000   0.0000000
                164       2.451675   0.4418011   0.0000000   0.0000000
                165       1.182069   0.3677547   0.0000000   0.0000000
                166       0.529231   0.0000000   1.0000000   0.0000000
                167       0.170000   0.0000000   0.0000000   1.0000000

 I #2  1    XY  
+               168     119.126717   0.0008260   0.0000000   0.0000000
                169      33.404240   0.0068378   0.0000000   0.0000000
                170      17.805918  -0.0103082   0.0000000   0.0000000
                171       4.899051   0.2267046   0.0000000   0.0000000
                172       2.451675   0.4418011   0.0000000   0.0000000
                173       1.182069   0.3677547   0.0000000   0.0000000
                174       0.529231   0.0000000   1.0000000   0.0000000
                175       0.170000   0.0000000   0.0000000   1.0000000

 I #2  3    XY  
+               176     119.126717   0.0008260   0.0000000   0.0000000
                177      33.404240   0.0068378   0.0000000   0.0000000
                178      17.805918  -0.0103082   0.0000000   0.0000000
                179       4.899051   0.2267046   0.0000000   0.0000000
                180       2.451675   0.4418011   0.0000000   0.0000000
                181       1.182069   0.3677547   0.0000000   0.0000000
                182       0.529231   0.0000000   1.0000000   0.0000000
                183       0.170000   0.0000000   0.0000000   1.0000000

 I #2  1    XZ  
+               184     119.126717   0.0008260   0.0000000   0.0000000
                185      33.404240   0.0068378   0.0000000   0.0000000
                186      17.805918  -0.0103082   0.0000000   0.0000000
                187       4.899051   0.2267046   0.0000000   0.0000000
                188       2.451675   0.4418011   0.0000000   0.0000000
                189       1.182069   0.3677547   0.0000000   0.0000000
                190       0.529231   0.0000000   1.0000000   0.0000000
                191       0.170000   0.0000000   0.0000000   1.0000000

 I #2  3    XZ  
+               192     119.126717   0.0008260   0.0000000   0.0000000
                193      33.404240   0.0068378   0.0000000   0.0000000
                194      17.805918  -0.0103082   0.0000000   0.0000000
                195       4.899051   0.2267046   0.0000000   0.0000000
                196       2.451675   0.4418011   0.0000000   0.0000000
                197       1.182069   0.3677547   0.0000000   0.0000000
                198       0.529231   0.0000000   1.0000000   0.0000000
                199       0.170000   0.0000000   0.0000000   1.0000000

 I #2  1    YY  
+               200     119.126717   0.0008260   0.0000000   0.0000000
                201      33.404240   0.0068378   0.0000000   0.0000000
                202      17.805918  -0.0103082   0.0000000   0.0000000
                203       4.899051   0.2267046   0.0000000   0.0000000
                204       2.451675   0.4418011   0.0000000   0.0000000
                205       1.182069   0.3677547   0.0000000   0.0000000
                206       0.529231   0.0000000   1.0000000   0.0000000
                207       0.170000   0.0000000   0.0000000   1.0000000

 I #2  3    YY  
+               208     119.126717   0.0008260   0.0000000   0.0000000
                209      33.404240   0.0068378   0.0000000   0.0000000
                210      17.805918  -0.0103082   0.0000000   0.0000000
                211       4.899051   0.2267046   0.0000000   0.0000000
                212       2.451675   0.4418011   0.0000000   0.0000000
                213       1.182069   0.3677547   0.0000000   0.0000000
                214       0.529231   0.0000000   1.0000000   0.0000000
                215       0.170000   0.0000000   0.0000000   1.0000000

 I #2  1    YZ  
+               216     119.126717   0.0008260   0.0000000   0.0000000
                217      33.404240   0.0068378   0.0000000   0.0000000
                218      17.805918  -0.0103082   0.0000000   0.0000000
                219       4.899051   0.2267046   0.0000000   0.0000000
                220       2.451675   0.4418011   0.0000000   0.0000000
                221       1.182069   0.3677547   0.0000000   0.0000000
                222       0.529231   0.0000000   1.0000000   0.0000000
                223       0.170000   0.0000000   0.0000000   1.0000000

 I #2  3    YZ  
+               224     119.126717   0.0008260   0.0000000   0.0000000
                225      33.404240   0.0068378   0.0000000   0.0000000
                226      17.805918  -0.0103082   0.0000000   0.0000000
                227       4.899051   0.2267046   0.0000000   0.0000000
                228       2.451675   0.4418011   0.0000000   0.0000000
                229       1.182069   0.3677547   0.0000000   0.0000000
                230       0.529231   0.0000000   1.0000000   0.0000000
                231       0.170000   0.0000000   0.0000000   1.0000000

 I #2  1    ZZ  
+               232     119.126717   0.0008260   0.0000000   0.0000000
                233      33.404240   0.0068378   0.0000000   0.0000000
                234      17.805918  -0.0103082   0.0000000   0.0000000
                235       4.899051   0.2267046   0.0000000   0.0000000
                236       2.451675   0.4418011   0.0000000   0.0000000
                237       1.182069   0.3677547   0.0000000   0.0000000
                238       0.529231   0.0000000   1.0000000   0.0000000
                239       0.170000   0.0000000   0.0000000   1.0000000

 I #2  3    ZZ  
+               240     119.126717   0.0008260   0.0000000   0.0000000
                241      33.404240   0.0068378   0.0000000   0.0000000
                242      17.805918  -0.0103082   0.0000000   0.0000000
                243       4.899051   0.2267046   0.0000000   0.0000000
                244       2.451675   0.4418011   0.0000000   0.0000000
                245       1.182069   0.3677547   0.0000000   0.0000000
                246       0.529231   0.0000000   1.0000000   0.0000000
                247       0.170000   0.0000000   0.0000000   1.0000000

 I #2  1    F300
+               248       0.441418   1.0000000   0.0000000
                249       2.180000   0.0000000   1.0000000

 I #2  3    F300
+               250       0.441418   1.0000000   0.0000000
                251       2.180000   0.0000000   1.0000000

 I #2  1    F210
+               252       0.441418   1.0000000   0.0000000
                253       2.180000   0.0000000   1.0000000

 I #2  3    F210
+               254       0.441418   1.0000000   0.0000000
                255       2.180000   0.0000000   1.0000000

 I #2  1    F201
+               256       0.441418   1.0000000   0.0000000
                257       2.180000   0.0000000   1.0000000

 I #2  3    F201
+               258       0.441418   1.0000000   0.0000000
                259       2.180000   0.0000000   1.0000000

 I #2  1    F120
+               260       0.441418   1.0000000   0.0000000
                261       2.180000   0.0000000   1.0000000

 I #2  3    F120
+               262       0.441418   1.0000000   0.0000000
                263       2.180000   0.0000000   1.0000000

 I #2  1    F111
+               264       0.441418   1.0000000   0.0000000
                265       2.180000   0.0000000   1.0000000

 I #2  3    F111
+               266       0.441418   1.0000000   0.0000000
                267       2.180000   0.0000000   1.0000000

 I #2  1    F102
+               268       0.441418   1.0000000   0.0000000
                269       2.180000   0.0000000   1.0000000

 I #2  3    F102
+               270       0.441418   1.0000000   0.0000000
                271       2.180000   0.0000000   1.0000000

 I #2  1    F030
+               272       0.441418   1.0000000   0.0000000
                273       2.180000   0.0000000   1.0000000

 I #2  3    F030
+               274       0.441418   1.0000000   0.0000000
                275       2.180000   0.0000000   1.0000000

 I #2  1    F021
+               276       0.441418   1.0000000   0.0000000
                277       2.180000   0.0000000   1.0000000

 I #2  3    F021
+               278       0.441418   1.0000000   0.0000000
                279       2.180000   0.0000000   1.0000000

 I #2  1    F012
+               280       0.441418   1.0000000   0.0000000
                281       2.180000   0.0000000   1.0000000

 I #2  3    F012
+               282       0.441418   1.0000000   0.0000000
                283       2.180000   0.0000000   1.0000000

 I #2  1    F003
+               284       0.441418   1.0000000   0.0000000
                285       2.180000   0.0000000   1.0000000

 I #2  3    F003
+               286       0.441418   1.0000000   0.0000000
                287       2.180000   0.0000000   1.0000000

 I #3  1    S   
+               288    5899.579153   0.0002419   0.0000000   0.0000000   0.0000000   0.0000000   0.0000000
                289     898.542388   0.0015474   0.0000000   0.0000000   0.0000000   0.0000000   0.0000000
                290     200.372379   0.0042837   0.0000000   0.0000000   0.0000000   0.0000000   0.0000000
                291      31.418054  -0.0394179   0.0000000   0.0000000   0.0000000   0.0000000   0.0000000
                292      15.645988   0.9608669   0.0000000   0.0000000   0.0000000   0.0000000   0.0000000
                293      11.815742   0.0000000   0.7596152   0.0000000   0.0000000   0.0000000   0.0000000
                294       6.461446   0.0000000   0.4249550   0.0000000   0.0000000   0.0000000   0.0000000
                295       2.383807   0.0000000   0.0000000   1.0000000   0.0000000   0.0000000   0.0000000
                296       1.171209   0.0000000   0.0000000   0.0000000   1.0000000   0.0000000   0.0000000
                297       0.321159   0.0000000   0.0000000   0.0000000   0.0000000   1.0000000   0.0000000
                298       0.123879   0.0000000   0.0000000   0.0000000   0.0000000   0.0000000   1.0000000

 I #3  1    X   
+               299      12.984317  -0.0490962   0.0000000   0.0000000   0.0000000   0.0000000
                300       3.619950   0.3891443   0.0000000   0.0000000   0.0000000   0.0000000
                301       2.023227   0.6561082   0.0000000   0.0000000   0.0000000   0.0000000
                302       1.036749   0.3180355   0.0000000   0.0000000   0.0000000   0.0000000
                303     197.300305   0.0000000   0.0007395   0.0000000   0.0000000   0.0000000
[...]
-----------------------------------------------------------------------------
[ 22  10 112  27] 0.03773 [ 22   9 112  27] 0.03435 [ 21  10 112  27] 0.03435
[ 26  10 112  81] 0.03305 [ 22  15 112  81] 0.03303 [ 22  10 112  34] 0.02583
[ 22   9 112  28] 0.01839 [ 21  10 112  28]-0.01839 [ 22  21 113 112] 0.01839
[ 10   9 113 112]-0.01839 [ 21   9 112  27]-0.01232 [ 14   8  81  29]-0.01128
[ 15   9  81  27]-0.01127 [ 26  21  81  27]-0.01119 [ 22   9 112  30] 0.01102
-----------------------------------------------------------------------------
   Norm of T2BB vector (   900339 symmetry allowed elements):  0.2358827182.
-----------------------------------------------------------------------------
   Largest T2 amplitudes for spin case AB:
       _       _                 _       _                 _       _
   i   j   a   b             i   j   a   b             i   j   a   b
-----------------------------------------------------------------------------
[ 27  10  82 112]-0.03755 [ 15  22  82 112] 0.03754 [  9  22  28 112] 0.03624
[ 21  10  28 112]-0.03622 [ 23  22 113 112]-0.03270 [ 23  10  29 112]-0.03269
[ 10  22  28 112] 0.03099 [ 22  10  28 112]-0.03097 [  8   8  28  27]-0.02682
[ 14  14  82  81]-0.02424 [ 10  10 113 112] 0.02310 [ 22  22 113 112]-0.02310
[ 22  10  29 112] 0.02310 [ 10  22  29 112] 0.02310 [  8   8  82  81]-0.02263
-----------------------------------------------------------------------------
   Norm of T2AB vector (  3907153 symmetry allowed elements):  0.5306651022.
-----------------------------------------------------------------------------
  W(mnij) AA contribution =  0.0228752625 a.u.
  W(mnij) BB contribution =  0.0240356125 a.u.
  W(mnij) AB contribution =  0.1358784796 a.u.
  W(abef) AA contribution =  0.0255386203 a.u.
  W(abef) BB contribution =  0.0268015313 a.u.
  W(abef) AB contribution =  0.1599330241 a.u.
  W(mbej) AA contribution =  -0.0253641703 a.u.
  W(mbej) BB contribution =  -0.0303520505 a.u.
  W(mbej) AB contribution = -0.3397919313 a.u.
   After  26 iterations, amplitude changes are:
    -------------------------------------------------------------------
                 Spin      RMS          Max.      Max. change for
     Amplitude   Case     Change       Change       i    j    a    b
    -------------------------------------------------------------------
        T1        AA    0.0000000000 0.0000000014   14        82
        T1        BB    0.0000000000 0.0000000010   22       112
        T2        AA    0.0000000000 0.0000000000   14    9   83   28
        T2        BB    0.0000000000-0.0000000001   22   15  112   81
        T2        AB    0.0000000000-0.0000000002   27   10   82  112
    -------------------------------------------------------------------
   The AA contribution to the correlation energy is:   -0.2516272 a.u.
   The BB contribution to the correlation energy is:   -0.2500916 a.u.
   The AB contribution to the correlation energy is:   -0.9596310 a.u.
   The total correlation energy is -1.461349783012 a.u.
   The total correlation energy is -1.461349783012 a.u.
  Current DIIS expansion coefficients : 
 [   1] 1.4884539146 [   2] 0.0567480091 [   3]-0.0187698163 [   4]-0.2445240220
 [   5]-0.2819080854
  Convergence information after    26 iterations: 
  Largest element of residual vector :  0.14328833E-08.
  Largest element of DIIS residual   : -0.78440393E-09.
  W(mnij) AA contribution =  0.0228752625 a.u.
  W(mnij) BB contribution =  0.0240356125 a.u.
  W(mnij) AB contribution =  0.1358784797 a.u.
  W(abef) AA contribution =  0.0255386203 a.u.
  W(abef) BB contribution =  0.0268015313 a.u.
  W(abef) AB contribution =  0.1599330242 a.u.
  W(mbej) AA contribution =  -0.0253641703 a.u.
  W(mbej) BB contribution =  -0.0303520504 a.u.
  W(mbej) AB contribution = -0.3397919316 a.u.
   After  27 iterations, amplitude changes are:
    -------------------------------------------------------------------
                 Spin      RMS          Max.      Max. change for
     Amplitude   Case     Change       Change       i    j    a    b
    -------------------------------------------------------------------
        T1        AA    0.0000000000 0.0000000001   14        82
        T1        BB    0.0000000000-0.0000000006   21       112
        T2        AA    0.0000000000-0.0000000000   15    9   82   28
        T2        BB    0.0000000000 0.0000000001   26   10  112   81
        T2        AB    0.0000000000-0.0000000001   22   10   28  112
    -------------------------------------------------------------------
   The AA contribution to the correlation energy is:   -0.2516272 a.u.
   The BB contribution to the correlation energy is:   -0.2500916 a.u.
   The AB contribution to the correlation energy is:   -0.9596310 a.u.
   The total correlation energy is -1.461349783060 a.u.
   The total correlation energy is -1.461349783060 a.u.
  Current DIIS expansion coefficients : 
 [   1] 0.1953367242 [   2] 1.0090898496 [   3] 0.0038542680 [   4] 0.0017785096
 [   5]-0.2100593514
  Convergence information after    27 iterations: 
  Largest element of residual vector : -0.61162816E-09.
  Largest element of DIIS residual   : -0.39437793E-09.
  Amplitude equations converged in    27iterations.
   The AA contribution to the correlation energy is:   -0.2516272 a.u.
   The BB contribution to the correlation energy is:   -0.2500916 a.u.
   The AB contribution to the correlation energy is:   -0.9596310 a.u.
   The total correlation energy is -1.461349783062 a.u.
   The total correlation energy is -1.461349783062 a.u.
   The CC iterations have converged.

            ----------------------------------------------
                     Projected spin multiplicities: 
            ----------------------------------------------
             <0|S^2|0>                  =    0.7500000000.
             <0|S^2 (T2+T1**2) |0>      =    0.0000000000.
             <0|S^2 T1|0>               =   -0.0000000000.
             Projected <0|S^2 exp(T)|0> =    0.7500000000.
             Approximate spin mult.     =    2.0000000000.
            ----------------------------------------------
   Largest T1 amplitudes for spin case AA:
   i       a                 i       a                 i       a    
-----------------------------------------------------------------------------
[ 14      82    ] 0.03158 [  8      28    ] 0.02625 [ 22     113    ] 0.01625
[ 10      29    ] 0.01625 [ 22     116    ] 0.01594 [ 10      34    ] 0.01588
[  6      28    ]-0.01388 [ 22     115    ]-0.01355 [ 10      33    ]-0.01354
[  9      34    ]-0.01208 [ 21     116    ]-0.01207 [ 20     118    ]-0.01120
[  7      36    ]-0.01119 [ 10      38    ]-0.00988 [ 22     120    ]-0.00987
-----------------------------------------------------------------------------
   Norm of T1AA vector (     1115 symmetry allowed elements):  0.0797197382.
-----------------------------------------------------------------------------
   Largest T2 amplitudes for spin case AA:
   i   j   a   b             i   j   a   b             i   j   a   b
-----------------------------------------------------------------------------
[ 14   8  82  30]-0.01072 [ 15   8  83  28]-0.01031 [ 23  15 157  36] 0.00981
[ 27  23 157 118]-0.00981 [ 21   8 113  28]-0.00911 [  9   8  29  28]-0.00910
[ 15   9  82  28]-0.00867 [ 27  21  82  28]-0.00859 [ 14   9  82  29]-0.00840
[ 27   8 155  28]-0.00840 [ 21  14 113  82]-0.00840 [ 14   8  82  28]-0.00837
[ 27  10 118  86] 0.00831 [ 22  15 158  36] 0.00830 [ 22   8 115  28]-0.00786
-----------------------------------------------------------------------------
   Norm of T2AA vector (   960435 symmetry allowed elements):  0.2136031430.
-----------------------------------------------------------------------------
   Largest T1 amplitudes for spin case BB:
   i       a                 i       a                 i       a    
-----------------------------------------------------------------------------
[ 14      81    ] 0.04261 [ 10      28    ]-0.03481 [ 22     113    ]-0.03480
[  8      27    ] 0.03184 [ 21     113    ] 0.01332 [  9      28    ] 0.01331
[ 10      33    ]-0.01229 [ 22     116    ]-0.01226 [  8      38    ] 0.01145
[ 21     121    ] 0.00904 [  9      39    ] 0.00904 [ 20     123    ] 0.00879
[  7      41    ] 0.00879 [  8      34    ] 0.00851 [ 14      85    ] 0.00838
-----------------------------------------------------------------------------
   Norm of T1BB vector (     1080 symmetry allowed elements):  0.0901345197.
-----------------------------------------------------------------------------
   Largest T2 amplitudes for spin case BB:
   i   j   a   b             i   j   a   b             i   j   a   b
-----------------------------------------------------------------------------
[ 22  10 112  27] 0.03773 [ 22   9 112  27] 0.03435 [ 21  10 112  27] 0.03435
[ 26  10 112  81] 0.03305 [ 22  15 112  81] 0.03303 [ 22  10 112  34] 0.02583
[ 22   9 112  28] 0.01839 [ 21  10 112  28]-0.01839 [ 22  21 113 112] 0.01839
[ 10   9 113 112]-0.01839 [ 21   9 112  27]-0.01232 [ 14   8  81  29]-0.01128
[ 15   9  81  27]-0.01127 [ 26  21  81  27]-0.01119 [ 22   9 112  30] 0.01102
-----------------------------------------------------------------------------
   Norm of T2BB vector (   900339 symmetry allowed elements):  0.2358827179.
-----------------------------------------------------------------------------
   Largest T2 amplitudes for spin case AB:
       _       _                 _       _                 _       _
   i   j   a   b             i   j   a   b             i   j   a   b
-----------------------------------------------------------------------------
[ 27  10  82 112]-0.03755 [ 15  22  82 112] 0.03754 [  9  22  28 112] 0.03624
[ 21  10  28 112]-0.03622 [ 23  22 113 112]-0.03270 [ 23  10  29 112]-0.03269
[ 10  22  28 112] 0.03099 [ 22  10  28 112]-0.03097 [  8   8  28  27]-0.02682
[ 14  14  82  81]-0.02424 [ 10  10 113 112] 0.02310 [ 22  22 113 112]-0.02310
[ 22  10  29 112] 0.02310 [ 10  22  29 112] 0.02310 [  8   8  82  81]-0.02263
-----------------------------------------------------------------------------
   Norm of T2AB vector (  3907153 symmetry allowed elements):  0.5306651025.
-----------------------------------------------------------------------------
       Summary of iterative solution of CC equations 
      -----------------------------------------------------------
                       Correlation           Total
       Iteration         Energy              Energy
      -----------------------------------------------------------
            0        -1.553094483336   -1133.300154678461  DIIS 
            1        -1.422821684210   -1133.169881879336  DIIS 
            2        -1.463489328193   -1133.210549523319  DIIS 
            3        -1.459572856481   -1133.206633051606  DIIS 
            4        -1.460825549774   -1133.207885744899  DIIS 
            5        -1.461353707720   -1133.208413902845  DIIS 
            6        -1.461367445619   -1133.208427640744  DIIS 
            7        -1.461345839680   -1133.208406034806  DIIS 
            8        -1.461349481143   -1133.208409676269  DIIS 
            9        -1.461348639053   -1133.208408834179  DIIS 
           10        -1.461349561231   -1133.208409756357  DIIS 
           11        -1.461349684096   -1133.208409879222  DIIS 
           12        -1.461349734314   -1133.208409929439  DIIS 
           13        -1.461349792799   -1133.208409987925  DIIS 
           14        -1.461349793525   -1133.208409988651  DIIS 
           15        -1.461349792390   -1133.208409987516  DIIS 
           16        -1.461349796952   -1133.208409992077  DIIS 
           17        -1.461349760931   -1133.208409956057  DIIS 
           18        -1.461349774105   -1133.208409969230  DIIS 
           19        -1.461349776613   -1133.208409971739  DIIS 
           20        -1.461349782103   -1133.208409977228  DIIS 
           21        -1.461349783352   -1133.208409978478  DIIS 
           22        -1.461349783550   -1133.208409978675  DIIS 
           23        -1.461349783470   -1133.208409978595  DIIS 
           24        -1.461349783027   -1133.208409978152  DIIS 
           25        -1.461349783011   -1133.208409978137  DIIS 
           26        -1.461349783012   -1133.208409978138  DIIS 
           27        -1.461349783062   -1133.208409978188  DIIS 
      -----------------------------------------------------------
      A miracle has come to pass. The CC iterations have converged.
 @DIMT3-I, Dimensions of T3 amplitudes : 
               # abc          # ijk       Symmetry    Spin 
                   135090            720     1          1
                   129685            725     2          1
                   135086            744     3          1
                   129535            736     4          1
                   416127           2320     1          2
                   396048           2225     2          2
                   414399           2351     3          2
                   394248           2230     4          2
                   419046           2230     1          3
                   398484           2150     2          3
                   417514           2243     3          3
                   396804           2152     4          3
                   138009            630     1          4
                   132121            650     2          4
                   138053            662     3          4
                   132091            658     4          4
 @DIMT3-I, Dimensions of T3 amplitudes : 
               # abc          # ijk       Symmetry    Spin 
                   135090            720     1          1
                   129685            725     2          1
                   135086            744     3          1
                   129535            736     4          1
                   416127           2320     1          2
                   396048           2225     2          2
                   414399           2351     3          2
                   394248           2230     4          2
                   419046           2230     1          3
                   398484           2150     2          3
                   417514           2243     3          3
                   396804           2152     4          3
                   138009            630     1          4
                   132121            650     2          4
                   138053            662     3          4
                   132091            658     4          4
 @TRPS-I, Welcome to TRPS. Watch your RUs ! 
 @TRPS-I, Method is CCSD(T) 
 @TRPS-I, Calculation type is energy 
 @TRPS-I, Reference function information : 
          Reference function is general non-HF 
 @TRPS-I, Reference function is ROHF 
 @TRPS-I, INT1 is true 
 @TRPS-I, INT2 is false 
 @TRPS-I, Lengths of ijka integrals. #1     353167
                                     #2     316362
                                     #3     681926
                                     #4     713516
                                    Max     713516
 @INITRP-I, Initializing W intermediate lists. 
 @TSPABCI-I, AbIc/AbcI record transposition. 
 @TSPABCI-I, (O,v) ---> (v,O) transposition. 
 @TSPABCI-I, In-core algorithm is being used. 
 @TSPABCI-I, In-core algorithm is being used. 
 @TSPABCI-I, In-core algorithm is being used. 
 @TSPABCI-I, In-core algorithm is being used. 
 @TRPS-I, Available memory in integer words   3749959040
          Number of pre-allocated words for TRPS14      2141138
          Number of free words for TRPS14   3747817902
 @TRPS14-I, Spin case AAA 
 @TRPS14-I, Number of free integer words 3747817902
            Number of free double words  3747817902
            Ratio                                 1
 @TRPS14-I, E4TAAA      -0.001380620028
 @TRPS14-I, E5ST A    0.000043736894025
 @TRPS14-I, E4ST A   -0.000002996498476
 @TRPS-I, Available memory in integer words   3749959040
          Number of pre-allocated words for TRPS14      2141112
          Number of free words for TRPS14   3747817928
 @TRPS14-I, Spin case BBB 
 @TRPS14-I, Number of free integer words 3747817928
            Number of free double words  3747817928
            Ratio                                 1
 @TRPS14-I, E4TBBB      -0.002089855360
 @TRPS14-I, E5ST B    0.000066510783304
 @TRPS14-I, E4ST B    0.000006039789276
 @SETOOOV-I, Some OOOV lists are being transposed. 
 @TRPS-I, Available memory in integer words   3749959040
          Number of pre-allocated words for TRPS2       684077
          Number of free words for TRPS2   3749274963
 @TRPS2-I, Spin case AAB 
 @TRPS2-I, Number of free integer words 3749274963
           Number of free double  words 3749274963
           Ratio                                 1
 @TRPS2-I, E4TBAA      -0.018048259081
 @TRPS2-I, E5ST A    0.000224285847252
 @TRPS2-I, E5ST B    0.000185682818575
 @TRPS2-I, E4ST A   -0.000046949419135
 @TRPS2-I, E4ST B    0.000008158391858
 @SETOOOV-I, Some OOOV lists are being transposed. 
 @TSPABCI2-I, (Alpha,Beta) ---> (Beta,Alpha). 
 @TSPABCI2-I, In-core algorithm is being used. 
 @TSPABCI2-I, In-core algorithm is being used. 
 @TSPABCI2-I, In-core algorithm is being used. 
 @TSPABCI2-I, In-core algorithm is being used. 
 @TSPABCI2-I, In-core algorithm is being used. 
 @TSPABCI2-I, In-core algorithm is being used. 
 @TSPABCI2-I, In-core algorithm is being used. 
 @TSPABCI2-I, In-core algorithm is being used. 
 @AT2IAB-I, Some AbIj lists are being altered. 
 @TRPS-I, Available memory in integer words   3749959040
          Number of pre-allocated words for TRPS3      9248533
          Number of free words for TRPS3   3740710507
 @TRPS3-I, Spin case BBA 
 @TRPS3-I, Number of free integer words 3740710507
           Number of free double  words 3740710507
           Ratio                                 1
 @TRPS3-I, E4TBBA      -0.019801484974
 @TRPS3-I, E5ST A    0.000375519074300
 @TRPS3-I, E5ST B    0.000477668577436
 @TRPS3-I, E4ST A   -0.000072529902198
 @TRPS3-I, E4ST B    0.000043267724088
 @TSPABCI2-I, (Beta,Alpha) ---> (Alpha,Beta). 
 @TSPABCI2-I, In-core algorithm is being used. 
 @TSPABCI2-I, In-core algorithm is being used. 
 @TSPABCI2-I, In-core algorithm is being used. 
 @TSPABCI2-I, In-core algorithm is being used. 
 @TSPABCI2-I, In-core algorithm is being used. 
 @TSPABCI2-I, In-core algorithm is being used. 
 @TSPABCI2-I, In-core algorithm is being used. 
 @TSPABCI2-I, In-core algorithm is being used. 
 @AT2IAB-I, Some AbIj lists are being altered. 
 @TSPABCI-I, AbIc/AbcI record transposition. 
 @TSPABCI-I, (v,O) ---> (O,v) transposition. 
 @TSPABCI-I, In-core algorithm is being used. 
 @TSPABCI-I, In-core algorithm is being used. 
 @TSPABCI-I, In-core algorithm is being used. 
 @TSPABCI-I, In-core algorithm is being used. 
 @CCENRG-I, CCSD/QCISD energy will now be evaluated. 
 @CCENRG-I, Correlation energies. ECCAA       -0.251627194655
                                  ECCBB       -0.250091617209
                                  ECCAB       -0.959630971199
                                  Total       -1.461349783062
 @CCENRG-I, Reference   energy   -1131.747060195126
            CCSD/QCISD energy    -1133.208409978188
          E4T (T(CCSD)) = -0.041320219442
          E5ST          =  0.000853187652
          E4ST          = -0.000029262178
          In other words  
          <T3[2](Dagger) D3  T3[2]> = -0.041320219442
          <T1   (Dagger) Q1 WT3[2]> =  0.000853187652
          <T2   (Dagger) Q2 FT3[2]> = -0.000029262178
        E(CCSD)           =   -1133.208409978188
        E(CCSD(T))        =   -1133.248906272157
  @CHECKOUT-I, Total execution time (CPU/WALL):     9192.62/     639.58 seconds.
--executable xvcc finished with status     0 in      639.64 seconds (walltime).
  The final electronic energy is     -1133.248906272156546 a.u. 
  This computation required                          729.39 seconds (walltime).
