 --invoking executable--
/home/nike/cfour_v2.00beta/cfour_v2.00beta/bin/xjoda


   *************************************************************************
         <<<     CCCCCC     CCCCCC   |||     CCCCCC     CCCCCC   >>>
       <<<      CCC        CCC       |||    CCC        CCC         >>>
      <<<      CCC        CCC        |||   CCC        CCC            >>>
    <<<        CCC        CCC        |||   CCC        CCC              >>>
      <<<      CCC        CCC        |||   CCC        CCC            >>>
       <<<      CCC        CCC       |||    CCC        CCC         >>>
         <<<     CCCCCC     CCCCCC   |||     CCCCCC     CCCCCC   >>>
   *************************************************************************

     ****************************************************************
     * CFOUR Coupled-Cluster techniques for Computational Chemistry *
     ****************************************************************
 

   Department of Chemistry                Institut fuer Physikalische Chemie
   University of Texas at Austin          Universitaet Mainz
   Austin, TX  78712, USA                 D-55099 Mainz, Germany
 
                       Version 2.00beta
 
                     blg4113.int.ets1.calculquebec.ca                  
                     Sa 7. Mär 17:19:03 EST 2020                      
                     integer*8 version is running
 
********************************************************************************
*                          Input from ZMAT file                                *
********************************************************************************
TITLE                                                                           
Mg                                                                              
F 1 R1                                                                          
X 1 D 2 A90                                                                     
F 1 R2 3 A90 2 D180                                                             
                                                                                
R1=3.34481524059                                                                
R2=3.34481524059                                                                
D=1                                                                             
A90=90                                                                          
D180=180                                                                        
A=180.0                                                                         
                                                                                
*ACES2(CALC=CCSD(T)                                                             
UNITS=BOHR                                                                      
#GEOM=1.770*10/5.29177210903                                                    
#COORD=CARTESIAN                                                                
COORD=INTERNAL                                                                  
PRINT=4                                                                         
JODA_PRINT=4                                                                    
INPUT_MRCC=OFF                                                                  
#CC_PROG=MRCC                                                                   
#FROZEN_CORE=ON                                                                 
DROPMO=1>4                                                                      
CONTRACTION=GENERAL                                                             
#CONTRACTION=SEGMENTED                                                          
RELATIVISTIC=OFF                                                                
#EXCITE=EOMEE                                                                   
#ESTATE_CONV=5                                                                  
#ESTATE_SYM=2/2/2/2/2/2/2/2                                                     
XFORM_TOL=18                                                                    
SAVE_INTS=ON                                                                    
SCF_EXPORDER=6                                                                  
SCF_EXPSTART=5                                                                  
#SCF_DAMPING=1000                                                               
SCF_EXTRAPOLATION=ON                                                            
SCF_CONV=12                                                                     
SCF_MAXCYC=99999                                                                
CC_CONV=9                                                                       
CC_MAXCYC=999                                                                   
T3_EXTRAPOL=ON                                                                  
REFERENCE=RHF                                                                   
CHARGE=+0                                                                       
MULT=1                                                                          
ABCDTYPE=STANDARD                                                               
#OCCUPATION=5-2-2-0-4-1-1-0                                                     
#OCCUPATION=3-2-2-0-1-0-0-0/3-1-1-0-1-0-0-0                                     
MEM=12                                                                          
MEM_UNIT=GB                                                                     
BASIS=SPECIAL)                                                                  
                                                                                
MG:def2-TZVPP                                                                   
F:def2-TZVPP                                                                    
F:def2-TZVPP                                                                    
                                                                                
********************************************************************************
  @GTFLGS-W, Keyword #GEOM not known and is ignored.
  @GTFLGS-W, Keyword #COORD not known and is ignored.
  @GTFLGS-W, Keyword #CC_PROG not known and is ignored.
  @GTFLGS-W, Keyword #FROZEN_CORE not known and is ignored.
  @GTFLGS-W, Keyword #CONTRACTION not known and is ignored.
  @GTFLGS-W, Keyword #EXCITE not known and is ignored.
  @GTFLGS-W, Keyword #ESTATE_CONV not known and is ignored.
  @GTFLGS-W, Keyword #ESTATE_SYM not known and is ignored.
  @GTFLGS-W, Keyword #SCF_DAMPING not known and is ignored.
  @GTFLGS-W, Keyword #OCCUPATION not known and is ignored.
  @GTFLGS-W, Keyword #OCCUPATION not known and is ignored.
    -------------------------------------------------------------------
                    CFOUR Control Parameters 
    -------------------------------------------------------------------
        External           Internal           Value            Units
          Name               Name
    -------------------------------------------------------------------
       ABCDTYPE             IABCDT         STANDARD     [  0]   ***   
       ANHARMONIC           IANHAR         OFF          [  0]   ***   
       ANH_ALGORIT          IANALG         STANDARD     [  0]   ***   
       ANH_DERIVAT          IANDER         SECOND       [  1]   ***   
       ANH_STEPSIZ          ICUBST             50000          x 10-6  
       ANH_SYMMETR          IANHSM         ABELIAN      [  0]   ***   
       AO_LADDERS           IAOLAD         SINGLEPASS   [  1]   ***   
       BASIS                IBASIS         SPECIAL      [  0]   ***   
       BREIT                IBREIT         OFF          [  0]   ***   
       BRUCK_CONV           IBRTOL          10D-  4             ***   
       BRUECKNER            IBRKNR             OFF      [  0]   ***   
       BUFFERSIZE           IBUFFS            600               ***   
       CACHE_RECS           ICHREC             10               ***   
       CALCLEVEL            ICLLVL           CCSD(T)    [ 22]   ***   
       CCORBOPT             ICCORB             OFF      [  0] x 0.01  
       CC_CONV              ICCCNV          10D-  9             ***   
       CC_EXPORDER          ICCEOR              5               ***   
       CC_EXTRAPOL          ICCEXT             DIIS     [  1]   ***   
       CC_MAXCYC            ICCCYC            999              cycles 
       CC_PROGRAM           ICCPRO         VCC          [  0]   ***   
       CHARGE               ICHRGE              0               ***   
       CHOLESKY             ICHOLE         OFF          [  0]   ***   
       CIS_CONV             ICISTL              5               ***   
       COMM_SIZE            IPSIZE            ***               ***   
       CONSTANT             ICONST         OLD          [  1]   ***   
       CONTINUUM            ICONTU         NONE         [  0]   ***   
       CONTRACTION          ICNTYP          GENERAL     [  1]   ***   
       COORDINATES          ICOORD         INTERNAL     [  0]   ***   
       CPHF_CONVER          ICPHFT          10D- 16             ***   
       CPHF_MAXCYC          ICPHFC             64              cycles 
       CUBIC                ICUBIC         OFF          [  0]   ***   
       CURVILINEAR          ICURVY            OFF       [  0]   ***   
       DBOC                 IDBOC          OFF          [  0]   ***   
       DCT                  IDCT           OFF          [  0]   ***   
       DERIV_LEV            IDRLVL            ZERO      [  0]   ***   
       DIAG_MRCC            IEOMST          10D-  0             ***   
       DIFF_TYPE            IDIFTY         RELAXED      [  0]   ***   
       DIRECT               IDIRCT         OFF          [  0]   ***   
       DROPMO               IDRPMO   1,  2,  3,  4,
       ECP                  IECP           OFF          [  0]   ***   
       EIGENVECTOR          IVEC                1               ***   
       EL_ANHARM            IELANH         OFF          [  0]   ***   
       EOMFOLLOW            IEOMSR         ENERGY       [  0]   ***   
       EOM_MRCC             IMRCCE         NEW          [  1]   ***   
       EOM_NONIT            EOMNON         OFF          [  0]   ***   
       EOM_NSING            IEOMSI          10D-  0             ***   
       EOM_NSTATES          IMRCCD         DAVIDSON     [  0]   ***   
       EOM_NTRIP            IEOMTR          10D-  0             ***   
       EOM_ORDER            IEXORD         ENERGY       [  0]   ***   
       ESTATE_CONV          IEXTOL          10D-  5             ***   
       ESTATE_DIAG          IEXDIG         ITERATIVE    [  0]   ***   
       ESTATE_LOCK          IESLOC         ON           [  1]   ***   
       ESTATE_MAXC          IEXMXC             20               ***   
       ESTATE_PROP          IEXPRP         OFF          [  0]   ***   
       EVAL_HESS            IRECAL              0            # of cyc.
       EXCITATION           IEXCIT              0               ***   
       EXCITE               IEXCIT         NONE         [  0]   ***   
       FCGRADNEW            IFCGNW         OFF          [  0]   ***   
       FC_FIELD             IFINFC              0             x 10-6  
       FD_CALTYPE           IFDCAL         GRADONLY     [  0]   ***   
       FD_PROJECT           IFDPRJ         OFF          [  1]   ***   
       FD_STEPSIZE          IDISFD              0            10-4 bohr
       FD_USEGROUP          IFDGRP         FULL         [  0]   ***   
       FILE_RECSIZ          IFLREC              4096           words  
       FINITE_PERT          IFIPER              0             x 10-6  
       FIXGEOM              IFIXGM         OFF          [  0]   ***   
       FOCK                 IFOCK          AO           [  1]   ***   
       FREQ_ALGORI          IVIALG         STANDARD     [  0]   ***   
       FROZEN_CORE          IFROCO         OFF          [  0]   ***   
       FROZEN_VIRT          IFROVI         OFF          [  0]   ***   
       GAMMA_ABCD           IGABCD         STORE        [  0]   ***   
       GAMMA_ABCI           IGABCI         STORE        [  0]   ***   
       GENBAS_1             IGNBS1              0               ***   
       GENBAS_2             IGNBS2              0               ***   
       GENBAS_3             IGNBS3              0               ***   
       GENBAS_4             IGNBS4              0               ***   
       GEO_CONV             ICONTL              5              H/bohr 
       GEO_MAXCYC           IOPTCY             50               ***   
       GEO_MAXSTEP          IMXSTP            300            millibohr
       GEO_METHOD           INR            SINGLE_POINT [  5]   ***   
       GIAO                 IGIAO          OFF          [  1]   ***   
       GIMIC                IGIMIC         OFF          [  0]   ***   
       GRID                 IGRID          OFF          [  0]   ***   
       GRID_ALGO            IGALGO         SERIAL       [  0]   ***   
       GUESS                IGUESS            MOREAD    [  0]   ***   
       HBAR                 IHBAR              OFF      [  0]   ***   
       HESS_TYPE            IHESTP         SCF          [  0]   ***   
       HF2_FILE             IHF2Fl         USE          [  1]   ***   
       HFSTABILITY          ISTABL         OFF          [  0]   ***   
       INCORE               INCORE             OFF      [  0]   ***   
       INPUT_MRCC           IMRCC          OFF          [  0]   ***   
       INTEGRALS            INTTYP             VMOL     [  1]   ***   
       JODA_PRINT           IJPRNT              4               ***   
       LINDEP_TOL           ILINDP              8               ***   
       LINEQ_CONV           IZTACN          10D-  7           cycles  
       LINEQ_EXPOR          ILMAXD              5               ***   
       LINEQ_MAXCY          ILMAXC             50               ***   
       LINEQ_TYPE           ILTYPE         DIIS         [  1]   ***   
       LOCK_ORBOCC          ILOCOC             OFF      [  0]   ***   
       MEMORY_SIZE          IMEMSZ         *********           words  
       MEM_UNIT             IMEMU          GB           [  3]   ***   
       MRCC                 IMRCCC         OFF          [  0]   ***   
       MULTIPLICTY          IMULTP              1               ***   
       NEGEVAL              IDIE             ABORT      [  0]   ***   
       NEWNORM              INEWNO         OFF          [  0]   ***   
       NON-HF               INONHF             OFF      [  0]   ***   
       NTOP_TAMP            ITOPT2             15               ***   
       NUC_MODEL            INUCMO         POINT        [  0]   ***   
       OCCUPATION           IOCCU   ESTIMATED BY SCF 
       OPEN-SHELL           IOPEN          SPIN-ORBITAL [  0]   ***   
       ORBITALS             IORBTP           STANDARD   [  0]   ***   
       PARALLEL             IPARAL         ON           [  1]   ***   
       PARA_INT             IPINTS         ON           [  1]   ***   
       PARA_PRINT           IPPRIN              0               ***   
       PERT_ORB             IPTORB         STANDARD     [  0]   ***   
       POINTS               IGRDFD              0               ***   
       PRINT                IPRNT               4               ***   
       PROPS                IPROPS             OFF      [  0]   ***   
       PROP_INTEGR          IINTYP         INTERNAL     [  0]   ***   
       PSI                  IPSI           OFF          [  0]   ***   
       QUARTIC              IQUART         OFF          [  0]   ***   
       RAMAN_INT            IRAMIN         OFF          [  0]   ***   
       RAMAN_ORB            IRAMRE         UNRELAXED    [  0]   ***   
       RDO                  IRDOFM             OFF      [  0]   ***   
       REFERENCE            IREFNC             RHF      [  0]   ***   
       RELATIVIST           IRELAT         OFF          [  0]   ***   
       RELAX_DENS           IRDENS             OFF      [  0]   ***   
       RESET_FLAGS          IRESET             OFF      [  0]   ***   
       RESTART_CC           ICCRES         OFF          [  0]   ***   
       ROT_EVEC             ROTVEC              0               ***   
       SAVE_INTS            ISVINT              ON      [  1]   ***   
       SCALE_ON             ISTCRT              0               ***   
       SCF_CONV             ISCFCV          10D- 12             ***   
       SCF_DAMPING          IDAMP               0             x 10-3  
       SCF_EXPORDE          IRPPOR              6               ***   
       SCF_EXPSTAR          IRPPLS              5               ***   
       SCF_EXTRAPO          IRPP                ON      [  1]   ***   
       SCF_MAXCYC           ISCFCY            ***              cycles 
       SCF_NOSTOP           ISCFST         OFF          [  0]   ***   
       SCF_PRINT            ISCFPR              0               ***   
       SD_FIELD             IFINSD              0             x 10-6  
       SEQUENCE             ISEQUE         OFF          [  0]   ***   
       SOPERT               IPERSO         OFF          [  0]   ***   
       SPHERICAL            IDFGHI             ON       [  1]   ***   
       SPINORBIT            ISOCAL         OFF          [  0]   ***   
       SPINROTATIO          ISRCON         OFF          [  0]   ***   
       SPIN_FLIP            ISPFLP         OFF          [  0]   ***   
       SPIN_ORBIT           ISPORB         OFF          [  0]   ***   
       SPIN_SCAL            ISCSMP         OFF          [  0]   ***   
       SUBGROUP             ISUBGP         DEFAULT      [  0]   ***   
       SUBGRPAXIS           ISBXYZ         X            [  0]   ***   
       SYMMETRY             ISYM             ON         [  0]   ***   
       SYM_CHECK            ISYMCK         OVERRIDE     [  1]   ***   
       T3_EXTRAPOL          IT3EXT         ON           [  1]   ***   
       TAMP_SUM             IEVERY              5               ***   
       TESTSUITE            ITESTS         OFF          [  0]   ***   
       THERMOCH             ITHERM         OFF          [  0]   ***   
       TOL_CHOLESK          ITOLCH          10D-  4             ***   
       TRANGRAD             IRESRM         OFF          [  0]   ***   
       TRANS_INV            ITRAIN         USE          [  0]   ***   
       TREAT_PERT           ITREAT         SIMULTANEOUS [  0]   ***   
       UIJ_THRESHO          IUIJTH              1               ***   
       UNITS                IUNITS         BOHR         [  1]   ***   
       UNOS                 IUNOS          OFF          [  0]   ***   
       UPDATE_HESS          IHUPDT         ON           [  1]   ***   
       VIBPHASE             ISETPH         STANDARD     [  0]   ***   
       VIBRATION            IVIB              NO        [  0]   ***   
       VIB_ALGORIT          IGEALG         STANDARD     [  0]   ***   
       VNATORB              IVNORB         OFF          [  0]   ***   
       VTRAN                IVTRAN         FULL/PARTIAL [  0]   ***   
       XFIELD               IXEFLD              0             x 10-6  
       XFORM_TOL            IXFTOL          10D- 18             ***   
       YFIELD               IYEFLD              0             x 10-6  
       ZFIELD               IZEFLD              0             x 10-6  
    -------------------------------------------------------------------
   4 entries found in Z-matrix 
   Job Title : TITLE                                                                           
 Variable names read by FETCHZ
  1           
  2           
  3           
  4 R1        
  5           
  6           
  7 D         
  8 A90       
  9           
 10 R2        
 11 A90       
 12 D180      
 Atomic symbols read by FETCHZ
  1 Mg   
  2 F    
  3 X    
  4 F    
 Connectivity matrix read by FETCHZ
  1   0
  2   0
  3   0
  4   1
  5   0
  6   0
  7   1
  8   2
  9   0
 10   1
 11   3
 12   2
   Symbol A     not found in Z-matrix.
   There are  5 unique internal coordinates.
   Of these,  0 will be optimized.
   User supplied Z-matrix: 
--------------------------------------------------------------------------------
       SYMBOL    BOND      LENGTH    ANGLE     ANGLE     DIHED     ANGLE
                  TO      (ANGST)    WRT      (DEG)      WRT      (DEG)
--------------------------------------------------------------------------------
        Mg   
        F          1         R1   
        X          1         D          2        A90  
        F          1         R2         3        A90        2        D180 
                  *Initial values for internal coordinates* 
                      Name             Value
                        R1              3.3448152406
                        D               1.0000000000
                        A90            90.0000000000
                        R2              3.3448152406
                        D180          180.0000000000
--------------------------------------------------------------------------------
  1  MG        12    23.98504
  2  F          9    18.99840
  3  X          0     0.00000
  4  F          9    18.99840
   23.9850423000
   18.9984032200
    0.0000000000
   18.9984032200
 After translation to center of mass coordinates 
       -0.000000000000   -0.000000000000    0.000000000000
       -0.000000000000   -0.000000000000    3.344815240590
        1.000000000000   -0.000000000000    0.000000000000
        0.000000000000    0.000000000000   -3.344815240590
  Inertia tensor (amu*bohr**2)
  425.10025   -0.00000    0.00000
   -0.00000  425.10025    0.00000
    0.00000    0.00000    0.00000
    Inertia tensor:
      425.100252884541   -0.000000000000    0.000000000000
       -0.000000000000  425.100252884541    0.000000000000
        0.000000000000    0.000000000000    0.000000000000
    Principal axis orientation for molecular system: 
       -0.000000000000   -0.000000000000   -0.000000000000
        0.000000000000    0.000000000000   -3.344815240590
       -0.000000000000    1.000000000000    0.000000000000
       -0.000000000000    0.000000000000    3.344815240590
    Diagonalized inertia tensor:
      425.100252884541    0.000000000000    0.000000000000
        0.000000000000  425.100252884541    0.000000000000
        0.000000000000    0.000000000000    0.000000000000
    Eigenvectors of inertia tensor: 
        0.000000000000    1.000000000000    0.000000000000
        1.000000000000   -0.000000000000    0.000000000000
        0.000000000000    0.000000000000   -1.000000000000
 factor:   60.1997200000000     
   Rotational constants (in cm-1): 
          0.1416129950             0.1416129950
   Rotational constants (in MHz): 
       4245.4513813243          4245.4513813243
  @SYMMETRY-I, Handedness of inertial frame: 1.00000
  @SYMMETRY-I, The symmetry group is 2-fold degenerate.
  @SYMMETRY-I, The molecule belongs to a point group with doubly degenerate representations.
  @SYMMETRY-I, The molecule is linear.
   Principal axis orientation for molecule:
       -0.000000000000   -0.000000000000   -0.000000000000
        0.000000000000    0.000000000000   -3.344815240590
       -0.000000000000    1.000000000000    0.000000000000
       -0.000000000000    0.000000000000    3.344815240590
   Reflection in plane  3 is a valid symmetry operation.
   Rotation about  3 is a valid symmetry operation 
   Reflection in plane  2 is a valid symmetry operation.
   Rotation about  2 is a valid symmetry operation 
   Reflection in plane  1 is a valid symmetry operation.
   Rotation about  1 is a valid symmetry operation 
   The molecule possesses an inversion center. 
  Symmetry bits:    7   7   1
********************************************************************************
   The full molecular point group is DXh .
   The largest Abelian subgroup of the full molecular point group is D2h .
   The computational point group is D2h .
********************************************************************************
--------------------------------------------------------------------------------
   Analysis of internal coordinates specified by Z-matrix 
--------------------------------------------------------------------------------
   *The nuclear repulsion energy is   76.685850054532565 a.u.
  *WARNING* Parameters R2    and R1    appear to be equivalent.
   *There are   2 degrees of freedom within the tot. symm. molecular subspace.
   *Z-matrix requests optimization of   0 coordinates.
   *The optimization is constrained.
   *The following   1 parameters can have non-zero 
    derivatives within the totally symmetric subspace:
             R2   [ 4]
   *The following   0 parameters are to be optimized:

   *The following coordinates must be varied in an  unconstrained optimization.
             R2   [ 4]
--------------------------------------------------------------------------------
 ----------------------------------------------------------------
 Z-matrix   Atomic            Coordinates (in bohr)
  Symbol    Number           X              Y              Z
 ----------------------------------------------------------------
     MG       12        -0.00000000    -0.00000000    -0.00000000
     F         9         0.00000000     0.00000000    -3.34481524
     X         0        -0.00000000     1.00000000     0.00000000
     F         9        -0.00000000     0.00000000     3.34481524
 ----------------------------------------------------------------
   Interatomic distance matrix (Angstroms) 
 
                 MG            F             X             F    
                [ 1]        [ 2]        [ 3]        [ 4]
  MG   [ 1]     0.00000
  F    [ 2]     1.77000     0.00000
  X    [ 3]     0.52918     1.84741     0.00000
  F    [ 4]     1.77000     3.54000     1.84741     0.00000
  Inertia tensor (amu*bohr**2)
  425.10025   -0.00000    0.00000
   -0.00000  425.10025    0.00000
    0.00000    0.00000    0.00000
   Rotational constants (in cm-1): 
          0.1416129950             0.0000000000
   Rotational constants (in MHz): 
       4245.4513813243             0.0000000000
  @GTFLGS-W, Keyword #GEOM not known and is ignored.
  @GTFLGS-W, Keyword #COORD not known and is ignored.
  @GTFLGS-W, Keyword #CC_PROG not known and is ignored.
  @GTFLGS-W, Keyword #FROZEN_CORE not known and is ignored.
  @GTFLGS-W, Keyword #CONTRACTION not known and is ignored.
  @GTFLGS-W, Keyword #EXCITE not known and is ignored.
  @GTFLGS-W, Keyword #ESTATE_CONV not known and is ignored.
  @GTFLGS-W, Keyword #ESTATE_SYM not known and is ignored.
  @GTFLGS-W, Keyword #SCF_DAMPING not known and is ignored.
  @GTFLGS-W, Keyword #OCCUPATION not known and is ignored.
  @GTFLGS-W, Keyword #OCCUPATION not known and is ignored.
  There are   94 basis functions.
 @GEOPT-W, Archive file not created for single-point calculation.
  @CHECKOUT-I, Total execution time (CPU/WALL):        1.10/       4.17 seconds.
--executable xjoda finished with status     0 in        4.57 seconds (walltime).
 --invoking executable--
/home/nike/cfour_v2.00beta/cfour_v2.00beta/bin/xvmol
 Serial version of molecule started
********************************************************************************
                    Input from MOL file
********************************************************************************
INTGRL        1    0    1    0    0    0    0    0    0                         
         *** CFOUR Program System (Release V0.1) ***                            
TITLE                                                                           
    2    3 X  Y   Z   0.10E-08              0    0                              
   9999.00      3.00                                                            
         12.00000000    1    3    1    1    1                                   
MG#1  -0.000000000000000  -0.000000000000000  -0.000000000000000                
   14    5                                                                      
   31438.3495550000       6.091231132599999E-004  0.000000000000000E+000        
  0.000000000000000E+000  0.000000000000000E+000  0.000000000000000E+000        
   4715.51533540000       4.706619646500000E-003  0.000000000000000E+000        
  0.000000000000000E+000  0.000000000000000E+000  0.000000000000000E+000        
   1073.16292470000       2.413582065700000E-002  0.000000000000000E+000        
  0.000000000000000E+000  0.000000000000000E+000  0.000000000000000E+000        
   303.572387680000       9.362895983400001E-002  0.000000000000000E+000        
  0.000000000000000E+000  0.000000000000000E+000  0.000000000000000E+000        
   98.6262510420000       0.266467420930000       0.000000000000000E+000        
  0.000000000000000E+000  0.000000000000000E+000  0.000000000000000E+000        
   34.9438084170000       0.478909299170000       0.000000000000000E+000        
  0.000000000000000E+000  0.000000000000000E+000  0.000000000000000E+000        
   12.8597851990000       0.336984902860000       0.000000000000000E+000        
  0.000000000000000E+000  0.000000000000000E+000  0.000000000000000E+000        
   64.8769130040000       0.000000000000000E+000  1.918088930700000E-002        
  0.000000000000000E+000  0.000000000000000E+000  0.000000000000000E+000        
   19.7255207770000       0.000000000000000E+000  9.091370439200000E-002        
  0.000000000000000E+000  0.000000000000000E+000  0.000000000000000E+000        
   2.89518043390000       0.000000000000000E+000 -0.395637561250000             
  0.000000000000000E+000  0.000000000000000E+000  0.000000000000000E+000        
   1.19604547100000       0.000000000000000E+000  0.000000000000000E+000        
   1.68276033730000       0.000000000000000E+000  0.000000000000000E+000        
  0.543294511560000       0.000000000000000E+000  0.000000000000000E+000        
  0.521410919540000       0.000000000000000E+000  0.000000000000000E+000        
  0.100991040920000       0.000000000000000E+000  0.000000000000000E+000        
  0.000000000000000E+000   1.00000000000000       0.000000000000000E+000        
  3.686572808500000E-002  0.000000000000000E+000  0.000000000000000E+000        
  0.000000000000000E+000  0.000000000000000E+000   1.00000000000000             
    8    4                                                                      
   179.871896120000       5.379954901800000E-003  0.000000000000000E+000        
  0.000000000000000E+000  0.000000000000000E+000                                
   42.1200693760000       3.931801409800000E-002  0.000000000000000E+000        
  0.000000000000000E+000  0.000000000000000E+000                                
   13.1205030320000       0.157401294760000       0.000000000000000E+000        
  0.000000000000000E+000  0.000000000000000E+000                                
   4.62575036090000       0.359190941280000       0.000000000000000E+000        
  0.000000000000000E+000  0.000000000000000E+000                                
   1.66952110160000       0.455333793100000       0.000000000000000E+000        
  0.000000000000000E+000  0.000000000000000E+000                                
  0.585510121050000       0.000000000000000E+000  0.219864329100000             
  0.000000000000000E+000  0.000000000000000E+000                                
  0.189147961950000       0.000000000000000E+000  0.000000000000000E+000        
   1.00000000000000       0.000000000000000E+000                                
  5.376875518700000E-002  0.000000000000000E+000  0.000000000000000E+000        
  0.000000000000000E+000   1.00000000000000                                     
    3    3                                                                      
   3.44400000000000        1.00000000000000       0.000000000000000E+000        
  0.000000000000000E+000                                                        
  0.290000000000000       0.000000000000000E+000   1.00000000000000             
  0.000000000000000E+000                                                        
  7.000000000000001E-002  0.000000000000000E+000  0.000000000000000E+000        
   1.00000000000000                                                             
          9.00000000    1    4    1    1    1    1                              
F #2   0.000000000000000   0.000000000000000  -3.344815240590000                
   11    5                                                                      
   35479.1004410000       2.154501488800000E-004  0.000000000000000E+000        
  0.000000000000000E+000  0.000000000000000E+000  0.000000000000000E+000        
   5318.47289830000       1.670068652700000E-003  0.000000000000000E+000        
  0.000000000000000E+000  0.000000000000000E+000  0.000000000000000E+000        
   1210.48109750000       8.673321147599999E-003  0.000000000000000E+000        
  0.000000000000000E+000  0.000000000000000E+000  0.000000000000000E+000        
   342.855181400000       3.504993317500000E-002  0.000000000000000E+000        
  0.000000000000000E+000  0.000000000000000E+000  0.000000000000000E+000        
   112.019431810000       0.111653201330000       0.000000000000000E+000        
  0.000000000000000E+000  0.000000000000000E+000  0.000000000000000E+000        
   40.7147402480000       0.259885066470000       0.000000000000000E+000        
  0.000000000000000E+000  0.000000000000000E+000  0.000000000000000E+000        
   16.0396781110000       0.000000000000000E+000  0.394229668800000             
  0.000000000000000E+000  0.000000000000000E+000  0.000000000000000E+000        
   6.50381867400000       0.000000000000000E+000  0.249982385510000             
  0.000000000000000E+000  0.000000000000000E+000  0.000000000000000E+000        
   1.54404775090000       0.000000000000000E+000  0.000000000000000E+000        
   1.00000000000000       0.000000000000000E+000  0.000000000000000E+000        
  0.612234528620000       0.000000000000000E+000  0.000000000000000E+000        
  0.000000000000000E+000   1.00000000000000       0.000000000000000E+000        
  0.240279796980000       0.000000000000000E+000  0.000000000000000E+000        
  0.000000000000000E+000  0.000000000000000E+000   1.00000000000000             
    6    3                                                                      
   80.2339004830000       6.368599913400000E-003  0.000000000000000E+000        
  0.000000000000000E+000                                                        
   18.5940107430000       4.430314353000000E-002  0.000000000000000E+000        
  0.000000000000000E+000                                                        
   5.68679026530000       0.168672487080000       0.000000000000000E+000        
  0.000000000000000E+000                                                        
   1.95110062940000       0.361663462550000       0.000000000000000E+000        
  0.000000000000000E+000                                                        
  0.669702112980000       0.000000000000000E+000  0.442029014910000             
  0.000000000000000E+000                                                        
  0.216513004100000       0.000000000000000E+000  0.000000000000000E+000        
  0.243198757300000                                                             
    2    2                                                                      
   3.10700000000000        1.00000000000000       0.000000000000000E+000        
  0.855000000000000       0.000000000000000E+000   1.00000000000000             
    1    1                                                                      
   1.91700000000000        1.00000000000000                                     
FINISH                                                                          
 
********************************************************************************
 One- and two-electron integrals over symmetry-adapted AOs are calculated.

  Spherical harmonics are used.
  
   2 types of atoms
   3 symmetry operations

   Reflection in the YZ-plane
   Reflection in the XZ-plane
   Reflection in the XY-plane
  
  Integrals less than  0.10E-13 are neglected.

  Atomic type number  1 :
  -----------------------

    Nuclear charge:                       12
    number of symmetry independent atoms:  1
    highest orbital type:                  d

      1 groups of CGTOs of s type
      1 groups of CGTOs of p type
      1 groups of CGTOs of d type

    nuclear coordinates (in a.u.) are :

    MG#1        0.000000000000000        0.000000000000000        0.000000000000000
  
   Basis function not normalized: 
   Center (as ordered in MOL file):   1
   Angular Momentum type          : s
   Offset within angular momentum :  1
   <chi|chi>                      :    0.9494021570
   Basis function not normalized: 
   Center (as ordered in MOL file):   1
   Angular Momentum type          : s
   Offset within angular momentum :  2
   <chi|chi>                      :    2.8320342092
   Basis function not normalized: 
   Center (as ordered in MOL file):   1
   Angular Momentum type          : s
   Offset within angular momentum :  3
   <chi|chi>                      :    0.4627677125
   Basis function not normalized: 
   Center (as ordered in MOL file):   1
   Angular Momentum type          : p
   Offset within angular momentum :  1
   <chi|chi>                      :    1.1548886480
   Basis function not normalized: 
   Center (as ordered in MOL file):   1
   Angular Momentum type          : p
   Offset within angular momentum :  2
   <chi|chi>                      :    4.5482593929
  Atomic type number  2 :
  -----------------------

    Nuclear charge:                        9
    number of symmetry independent atoms:  1
    highest orbital type:                  f

      1 groups of CGTOs of s type
      1 groups of CGTOs of p type
      1 groups of CGTOs of d type
      1 groups of CGTOs of f type

    nuclear coordinates (in a.u.) are :

    F #2        0.000000000000000        0.000000000000000       -3.344815240590000
  
   Basis function not normalized: 
   Center (as ordered in MOL file):   2
   Angular Momentum type          : s
   Offset within angular momentum :  1
   <chi|chi>                      :    2.6077954182
   Basis function not normalized: 
   Center (as ordered in MOL file):   2
   Angular Momentum type          : s
   Offset within angular momentum :  2
   <chi|chi>                      :    1.6055721547
   Basis function not normalized: 
   Center (as ordered in MOL file):   2
   Angular Momentum type          : p
   Offset within angular momentum :  1
   <chi|chi>                      :    1.9347023376
   Basis function not normalized: 
   Center (as ordered in MOL file):   2
   Angular Momentum type          : p
   Offset within angular momentum :  2
   <chi|chi>                      :    2.2622949315
   Basis function not normalized: 
   Center (as ordered in MOL file):   2
   Angular Momentum type          : p
   Offset within angular momentum :  3
   <chi|chi>                      :    4.1118631160
   Internuclear distances (A) :

     for atom MG#1 (coordinates :   0.00000   0.00000   0.00000)

     F #2   1     distance is  1.770

     for atom F #2 (coordinates :   0.00000   0.00000  -3.34482)

     F #2   5     distance is  3.540

   Group multiplication table :

         1   2   3   4   5   6   7   8
         2   1   4   3   6   5   8   7
         3   4   1   2   7   8   5   6
         4   3   2   1   8   7   6   5
         5   6   7   8   1   2   3   4
         6   5   8   7   2   1   4   3
         7   8   5   6   3   4   1   2
         8   7   6   5   4   3   2   1

   Gaussian basis information :

   atom                 exponent      coefficients

 MG#1  1    S   
+                 1   31438.349555   0.0006091   0.0000000   0.0000000   0.0000000   0.0000000
                  2    4715.515335   0.0047066   0.0000000   0.0000000   0.0000000   0.0000000
                  3    1073.162925   0.0241358   0.0000000   0.0000000   0.0000000   0.0000000
                  4     303.572388   0.0936290   0.0000000   0.0000000   0.0000000   0.0000000
                  5      98.626251   0.2664674   0.0000000   0.0000000   0.0000000   0.0000000
                  6      34.943808   0.4789093   0.0000000   0.0000000   0.0000000   0.0000000
                  7      12.859785   0.3369849   0.0000000   0.0000000   0.0000000   0.0000000
                  8      64.876913   0.0000000   0.0191809   0.0000000   0.0000000   0.0000000
                  9      19.725521   0.0000000   0.0909137   0.0000000   0.0000000   0.0000000
                 10       2.895180   0.0000000  -0.3956376   0.0000000   0.0000000   0.0000000
                 11       1.196045   0.0000000   0.0000000   1.6827603   0.0000000   0.0000000
                 12       0.543295   0.0000000   0.0000000   0.5214109   0.0000000   0.0000000
                 13       0.100991   0.0000000   0.0000000   0.0000000   1.0000000   0.0000000
                 14       0.036866   0.0000000   0.0000000   0.0000000   0.0000000   1.0000000

 MG#1  1    X   
+                15     179.871896   0.0053800   0.0000000   0.0000000   0.0000000
                 16      42.120069   0.0393180   0.0000000   0.0000000   0.0000000
                 17      13.120503   0.1574013   0.0000000   0.0000000   0.0000000
                 18       4.625750   0.3591909   0.0000000   0.0000000   0.0000000
                 19       1.669521   0.4553338   0.0000000   0.0000000   0.0000000
                 20       0.585510   0.0000000   0.2198643   0.0000000   0.0000000
                 21       0.189148   0.0000000   0.0000000   1.0000000   0.0000000
                 22       0.053769   0.0000000   0.0000000   0.0000000   1.0000000

 MG#1  1    Y   
+                23     179.871896   0.0053800   0.0000000   0.0000000   0.0000000
                 24      42.120069   0.0393180   0.0000000   0.0000000   0.0000000
                 25      13.120503   0.1574013   0.0000000   0.0000000   0.0000000
                 26       4.625750   0.3591909   0.0000000   0.0000000   0.0000000
                 27       1.669521   0.4553338   0.0000000   0.0000000   0.0000000
                 28       0.585510   0.0000000   0.2198643   0.0000000   0.0000000
                 29       0.189148   0.0000000   0.0000000   1.0000000   0.0000000
                 30       0.053769   0.0000000   0.0000000   0.0000000   1.0000000

 MG#1  1    Z   
+                31     179.871896   0.0053800   0.0000000   0.0000000   0.0000000
                 32      42.120069   0.0393180   0.0000000   0.0000000   0.0000000
                 33      13.120503   0.1574013   0.0000000   0.0000000   0.0000000
                 34       4.625750   0.3591909   0.0000000   0.0000000   0.0000000
                 35       1.669521   0.4553338   0.0000000   0.0000000   0.0000000
                 36       0.585510   0.0000000   0.2198643   0.0000000   0.0000000
                 37       0.189148   0.0000000   0.0000000   1.0000000   0.0000000
                 38       0.053769   0.0000000   0.0000000   0.0000000   1.0000000

 MG#1  1    XX  
+                39       3.444000   1.0000000   0.0000000   0.0000000
                 40       0.290000   0.0000000   1.0000000   0.0000000
                 41       0.070000   0.0000000   0.0000000   1.0000000

 MG#1  1    XY  
+                42       3.444000   1.0000000   0.0000000   0.0000000
                 43       0.290000   0.0000000   1.0000000   0.0000000
                 44       0.070000   0.0000000   0.0000000   1.0000000

 MG#1  1    XZ  
+                45       3.444000   1.0000000   0.0000000   0.0000000
                 46       0.290000   0.0000000   1.0000000   0.0000000
                 47       0.070000   0.0000000   0.0000000   1.0000000

 MG#1  1    YY  
+                48       3.444000   1.0000000   0.0000000   0.0000000
                 49       0.290000   0.0000000   1.0000000   0.0000000
                 50       0.070000   0.0000000   0.0000000   1.0000000

 MG#1  1    YZ  
+                51       3.444000   1.0000000   0.0000000   0.0000000
                 52       0.290000   0.0000000   1.0000000   0.0000000
                 53       0.070000   0.0000000   0.0000000   1.0000000

 MG#1  1    ZZ  
+                54       3.444000   1.0000000   0.0000000   0.0000000
                 55       0.290000   0.0000000   1.0000000   0.0000000
                 56       0.070000   0.0000000   0.0000000   1.0000000

 F #2  1    S   
+                57   35479.100441   0.0002155   0.0000000   0.0000000   0.0000000   0.0000000
                 58    5318.472898   0.0016701   0.0000000   0.0000000   0.0000000   0.0000000
                 59    1210.481098   0.0086733   0.0000000   0.0000000   0.0000000   0.0000000
                 60     342.855181   0.0350499   0.0000000   0.0000000   0.0000000   0.0000000
                 61     112.019432   0.1116532   0.0000000   0.0000000   0.0000000   0.0000000
                 62      40.714740   0.2598851   0.0000000   0.0000000   0.0000000   0.0000000
                 63      16.039678   0.0000000   0.3942297   0.0000000   0.0000000   0.0000000
                 64       6.503819   0.0000000   0.2499824   0.0000000   0.0000000   0.0000000
                 65       1.544048   0.0000000   0.0000000   1.0000000   0.0000000   0.0000000
                 66       0.612235   0.0000000   0.0000000   0.0000000   1.0000000   0.0000000
                 67       0.240280   0.0000000   0.0000000   0.0000000   0.0000000   1.0000000

 F #2  5    S   
+                68   35479.100441   0.0002155   0.0000000   0.0000000   0.0000000   0.0000000
                 69    5318.472898   0.0016701   0.0000000   0.0000000   0.0000000   0.0000000
                 70    1210.481098   0.0086733   0.0000000   0.0000000   0.0000000   0.0000000
                 71     342.855181   0.0350499   0.0000000   0.0000000   0.0000000   0.0000000
                 72     112.019432   0.1116532   0.0000000   0.0000000   0.0000000   0.0000000
                 73      40.714740   0.2598851   0.0000000   0.0000000   0.0000000   0.0000000
                 74      16.039678   0.0000000   0.3942297   0.0000000   0.0000000   0.0000000
                 75       6.503819   0.0000000   0.2499824   0.0000000   0.0000000   0.0000000
                 76       1.544048   0.0000000   0.0000000   1.0000000   0.0000000   0.0000000
                 77       0.612235   0.0000000   0.0000000   0.0000000   1.0000000   0.0000000
                 78       0.240280   0.0000000   0.0000000   0.0000000   0.0000000   1.0000000

 F #2  1    X   
+                79      80.233900   0.0063686   0.0000000   0.0000000
                 80      18.594011   0.0443031   0.0000000   0.0000000
                 81       5.686790   0.1686725   0.0000000   0.0000000
                 82       1.951101   0.3616635   0.0000000   0.0000000
                 83       0.669702   0.0000000   0.4420290   0.0000000
                 84       0.216513   0.0000000   0.0000000   0.2431988

 F #2  5    X   
+                85      80.233900   0.0063686   0.0000000   0.0000000
                 86      18.594011   0.0443031   0.0000000   0.0000000
                 87       5.686790   0.1686725   0.0000000   0.0000000
                 88       1.951101   0.3616635   0.0000000   0.0000000
                 89       0.669702   0.0000000   0.4420290   0.0000000
                 90       0.216513   0.0000000   0.0000000   0.2431988

 F #2  1    Y   
+                91      80.233900   0.0063686   0.0000000   0.0000000
                 92      18.594011   0.0443031   0.0000000   0.0000000
                 93       5.686790   0.1686725   0.0000000   0.0000000
                 94       1.951101   0.3616635   0.0000000   0.0000000
                 95       0.669702   0.0000000   0.4420290   0.0000000
                 96       0.216513   0.0000000   0.0000000   0.2431988

 F #2  5    Y   
+                97      80.233900   0.0063686   0.0000000   0.0000000
                 98      18.594011   0.0443031   0.0000000   0.0000000
                 99       5.686790   0.1686725   0.0000000   0.0000000
                100       1.951101   0.3616635   0.0000000   0.0000000
                101       0.669702   0.0000000   0.4420290   0.0000000
                102       0.216513   0.0000000   0.0000000   0.2431988

 F #2  1    Z   
+               103      80.233900   0.0063686   0.0000000   0.0000000
                104      18.594011   0.0443031   0.0000000   0.0000000
                105       5.686790   0.1686725   0.0000000   0.0000000
                106       1.951101   0.3616635   0.0000000   0.0000000
                107       0.669702   0.0000000   0.4420290   0.0000000
                108       0.216513   0.0000000   0.0000000   0.2431988

 F #2  5    Z   
+               109      80.233900   0.0063686   0.0000000   0.0000000
                110      18.594011   0.0443031   0.0000000   0.0000000
                111       5.686790   0.1686725   0.0000000   0.0000000
                112       1.951101   0.3616635   0.0000000   0.0000000
                113       0.669702   0.0000000   0.4420290   0.0000000
                114       0.216513   0.0000000   0.0000000   0.2431988

 F #2  1    XX  
+               115       3.107000   1.0000000   0.0000000
                116       0.855000   0.0000000   1.0000000

 F #2  5    XX  
+               117       3.107000   1.0000000   0.0000000
                118       0.855000   0.0000000   1.0000000

 F #2  1    XY  
+               119       3.107000   1.0000000   0.0000000
                120       0.855000   0.0000000   1.0000000

 F #2  5    XY  
+               121       3.107000   1.0000000   0.0000000
                122       0.855000   0.0000000   1.0000000

 F #2  1    XZ  
+               123       3.107000   1.0000000   0.0000000
                124       0.855000   0.0000000   1.0000000

 F #2  5    XZ  
+               125       3.107000   1.0000000   0.0000000
                126       0.855000   0.0000000   1.0000000

 F #2  1    YY  
+               127       3.107000   1.0000000   0.0000000
                128       0.855000   0.0000000   1.0000000

 F #2  5    YY  
+               129       3.107000   1.0000000   0.0000000
                130       0.855000   0.0000000   1.0000000

 F #2  1    YZ  
+               131       3.107000   1.0000000   0.0000000
                132       0.855000   0.0000000   1.0000000

 F #2  5    YZ  
+               133       3.107000   1.0000000   0.0000000
                134       0.855000   0.0000000   1.0000000

 F #2  1    ZZ  
+               135       3.107000   1.0000000   0.0000000
                136       0.855000   0.0000000   1.0000000

 F #2  5    ZZ  
+               137       3.107000   1.0000000   0.0000000
                138       0.855000   0.0000000   1.0000000

 F #2  1    F300
+               139       1.917000   1.0000000

 F #2  5    F300
+               140       1.917000   1.0000000

 F #2  1    F210
+               141       1.917000   1.0000000

 F #2  5    F210
+               142       1.917000   1.0000000

 F #2  1    F201
+               143       1.917000   1.0000000

 F #2  5    F201
+               144       1.917000   1.0000000

 F #2  1    F120
+               145       1.917000   1.0000000

 F #2  5    F120
+               146       1.917000   1.0000000

 F #2  1    F111
+               147       1.917000   1.0000000

 F #2  5    F111
+               148       1.917000   1.0000000

 F #2  1    F102
+               149       1.917000   1.0000000

 F #2  5    F102
+               150       1.917000   1.0000000

 F #2  1    F030
+               151       1.917000   1.0000000

 F #2  5    F030
+               152       1.917000   1.0000000

 F #2  1    F021
+               153       1.917000   1.0000000

 F #2  5    F021
+               154       1.917000   1.0000000

 F #2  1    F012
+               155       1.917000   1.0000000

 F #2  5    F012
+               156       1.917000   1.0000000

 F #2  1    F003
+               157       1.917000   1.0000000

 F #2  5    F003
+               158       1.917000   1.0000000
107 94
  1  2  3  4  5  6  7  8  9 10 11********* 12 13 14 15 16 17 18 19 20 21 22
 23****** 24 25*** 26 27 28 29 30 31 32 33 34 35 36*** 37 38 39 40 41 42 43
 44 45 46 47*** 48 49 50 51 52 53 54 55 56 57 58 59 60 61 62 63 64 65 66 67
 68 69****** 70 71*** 72 73 74 75 76 77 78 79 80 81*** 82 83 84 85 86 87 88
 89 90 91*** 92 93 94
1

             SYMMETRY TRANSFORMATION INFO
             94 SYMMETRY ADAPTED BASIS FUNCTIONS 


          irreducible representation number 1

    1    1  MG#1     1s     1   1   1.0
    2    2  MG#1     1s     1   2   1.0
    3    3  MG#1     1s     1   3   1.0
    4    4  MG#1     1s     1   4   1.0
    5    5  MG#1     1s     1   5   1.0
    6    6  MG#1     3d2-   3  18  -1.0  27  -1.0  33   2.0
    7    7  MG#1     3d2-   3  19  -1.0  28  -1.0  34   2.0
    8    8  MG#1     3d2-   3  20  -1.0  29  -1.0  35   2.0
    9    9  MG#1     3d1+   2  18   1.0  27  -1.0
   10   10  MG#1     3d1+   2  19   1.0  28  -1.0
   11   11  MG#1     3d1+   2  20   1.0  29  -1.0
   12   12  F #2     1s     2  36   1.0  37   1.0
   13   13  F #2     1s     2  38   1.0  39   1.0
   14   14  F #2     1s     2  40   1.0  41   1.0
   15   15  F #2     1s     2  42   1.0  43   1.0
   16   16  F #2     1s     2  44   1.0  45   1.0
   17   17  F #2     2pz    2  58   1.0  59  -1.0
   18   18  F #2     2pz    2  60   1.0  61  -1.0
   19   19  F #2     2pz    2  62   1.0  63  -1.0
   20   20  F #2     3d2-   6  64  -1.0  76  -1.0  84   2.0  65  -1.0  77  -1.0  85   2.0
   21   21  F #2     3d2-   6  66  -1.0  78  -1.0  86   2.0  67  -1.0  79  -1.0  87   2.0
   22   22  F #2     3d1+   4  64   1.0  76  -1.0  65   1.0  77  -1.0
   23   23  F #2     3d1+   4  66   1.0  78  -1.0  67   1.0  79  -1.0
   24   24  F #2     4f1-   6  92  -3.0 102  -3.0 106   2.0  93   3.0 103   3.0 107  -2.0
   25   25  F #2     4f3+   4  92   1.0 102  -1.0  93  -1.0 103   1.0


          irreducible representation number 2

   26    1  MG#1     2px    1   6   1.0
   27    2  MG#1     2px    1   7   1.0
   28    3  MG#1     2px    1   8   1.0
   29    4  MG#1     2px    1   9   1.0
   30    5  F #2     2px    2  46   1.0  47   1.0
   31    6  F #2     2px    2  48   1.0  49   1.0
   32    7  F #2     2px    2  50   1.0  51   1.0
   33    8  F #2     3d0    2  72   1.0  73  -1.0
   34    9  F #2     3d0    2  74   1.0  75  -1.0
   35   10  F #2     4f3-   6  88  -1.0  94  -1.0  98   4.0  89  -1.0  95  -1.0  99   4.0
   36   11  F #2     4f0    4  88   1.0  94  -3.0  89   1.0  95  -3.0


          irreducible representation number 3

   37    1  MG#1     2py    1  10   1.0
   38    2  MG#1     2py    1  11   1.0
   39    3  MG#1     2py    1  12   1.0
   40    4  MG#1     2py    1  13   1.0
   41    5  F #2     2py    2  52   1.0  53   1.0
   42    6  F #2     2py    2  54   1.0  55   1.0
   43    7  F #2     2py    2  56   1.0  57   1.0
   44    8  F #2     3d2+   2  80   1.0  81  -1.0
   45    9  F #2     3d2+   2  82   1.0  83  -1.0
   46   10  F #2     4f2-   6  90  -1.0 100  -1.0 104   4.0  91  -1.0 101  -1.0 105   4.0
   47   11  F #2     4f2+   4  90   3.0 100  -1.0  91   3.0 101  -1.0


          irreducible representation number 4

   48    1  MG#1     3d1-   1  21   1.0
   49    2  MG#1     3d1-   1  22   1.0
   50    3  MG#1     3d1-   1  23   1.0
   51    4  F #2     3d1-   2  68   1.0  69   1.0
   52    5  F #2     3d1-   2  70   1.0  71   1.0
   53    6  F #2     4f1+   2  96   1.0  97  -1.0


          irreducible representation number 5

   54    1  MG#1     2pz    1  14   1.0
   55    2  MG#1     2pz    1  15   1.0
   56    3  MG#1     2pz    1  16   1.0
   57    4  MG#1     2pz    1  17   1.0
   58    5  F #2     1s     2  36   1.0  37  -1.0
   59    6  F #2     1s     2  38   1.0  39  -1.0
   60    7  F #2     1s     2  40   1.0  41  -1.0
   61    8  F #2     1s     2  42   1.0  43  -1.0
   62    9  F #2     1s     2  44   1.0  45  -1.0
   63   10  F #2     2pz    2  58   1.0  59   1.0
   64   11  F #2     2pz    2  60   1.0  61   1.0
   65   12  F #2     2pz    2  62   1.0  63   1.0
   66   13  F #2     3d2-   6  64  -1.0  76  -1.0  84   2.0  65   1.0  77   1.0  85  -2.0
   67   14  F #2     3d2-   6  66  -1.0  78  -1.0  86   2.0  67   1.0  79   1.0  87  -2.0
   68   15  F #2     3d1+   4  64   1.0  76  -1.0  65  -1.0  77   1.0
   69   16  F #2     3d1+   4  66   1.0  78  -1.0  67  -1.0  79   1.0
   70   17  F #2     4f1-   6  92  -3.0 102  -3.0 106   2.0  93  -3.0 103  -3.0 107   2.0
   71   18  F #2     4f3+   4  92   1.0 102  -1.0  93   1.0 103  -1.0


          irreducible representation number 6

   72    1  MG#1     3d0    1  24   1.0
   73    2  MG#1     3d0    1  25   1.0
   74    3  MG#1     3d0    1  26   1.0
   75    4  F #2     2px    2  46   1.0  47  -1.0
   76    5  F #2     2px    2  48   1.0  49  -1.0
   77    6  F #2     2px    2  50   1.0  51  -1.0
   78    7  F #2     3d0    2  72   1.0  73   1.0
   79    8  F #2     3d0    2  74   1.0  75   1.0
   80    9  F #2     4f3-   6  88  -1.0  94  -1.0  98   4.0  89   1.0  95   1.0  99  -4.0
   81   10  F #2     4f0    4  88   1.0  94  -3.0  89  -1.0  95   3.0


          irreducible representation number 7

   82    1  MG#1     3d2+   1  30   1.0
   83    2  MG#1     3d2+   1  31   1.0
   84    3  MG#1     3d2+   1  32   1.0
   85    4  F #2     2py    2  52   1.0  53  -1.0
   86    5  F #2     2py    2  54   1.0  55  -1.0
   87    6  F #2     2py    2  56   1.0  57  -1.0
   88    7  F #2     3d2+   2  80   1.0  81   1.0
   89    8  F #2     3d2+   2  82   1.0  83   1.0
   90    9  F #2     4f2-   6  90  -1.0 100  -1.0 104   4.0  91   1.0 101   1.0 105  -4.0
   91   10  F #2     4f2+   4  90   3.0 100  -1.0  91  -3.0 101   1.0


          irreducible representation number 8

   92    1  F #2     3d1-   2  68   1.0  69  -1.0
   93    2  F #2     3d1-   2  70   1.0  71  -1.0
   94    3  F #2     4f1+   2  96   1.0  97   1.0
  Nuclear repulsion energy :   76.6858500545 a.u.
  required memory for a1 array                5112368  words 
  required memory for a2 array                2269589  words 
 @GETMEM-I,  Allocated      71 MB of main memory.
  @MOLECU-I, One electron integrals (CPU/WALL):        0.05/       0.11 seconds.
  @TWOEL-I,      44300 integrals of symmetry type  I I I I
  @TWOEL-I,     301590 integrals of symmetry type  I J I J
  @TWOEL-I,     175209 integrals of symmetry type  I I J J
  @TWOEL-I,     561714 integrals of symmetry type  I J K L
  @TWOEL-I, Total number of 2-e integrals    1082813.
  @MOLECU-I, Two electron integrals (CPU/WALL):        0.98/       2.53 seconds.
  @CHECKOUT-I, Total execution time (CPU/WALL):        1.61/       4.61 seconds.
--executable xvmol finished with status     0 in        4.75 seconds (walltime).
 --invoking executable--
/home/nike/cfour_v2.00beta/cfour_v2.00beta/bin/xvmol2ja
 @GETMEM-I,  Allocated   11444 MB of main memory.
  @CHECKOUT-I, Total execution time (CPU/WALL):        0.02/       0.04 seconds.
--executable xvmol2ja finished with status     0 in        0.11 seconds (walltime).
 --invoking executable--
/home/nike/cfour_v2.00beta/cfour_v2.00beta/bin/xvscf
  There are   94 functions in the AO basis.

  There are 8 irreducible representations.

       Irrep        # of functions
         1                 25
         2                 11
         3                 11
         4                  6
         5                 18
         6                 10
         7                 10
         8                  3


  Parameters for SCF calculation: 
        SCF reference function:  RHF  
  Maximum number of iterations: ****
     Full symmetry point group: DXh 
     Computational point group: D2h 
        Initial density matrix: MOREAD                 
     SCF convergence tolerance: 10**(-12)
  DIIS convergence acceleration:  ON
          Latest start for DIIS:   5
                     DIIS order:   6

  Memory information:     402453 words required.
  Fock matrices are constructed from AO integral file.
 @GETMEM-I,  Allocated       3 MB of main memory.
  Initialization and symmetry analysis required      0.033 seconds.

  @INITGES-I, Occupancies from core Hamiltonian:

          Alpha population by irrep:   5    2    2    0    4    1    1    0
           Beta population by irrep:   5    2    2    0    4    1    1    0


 total no. of electrons in initial guess :  0.000000000000000E+000
  --------------------------------------------------------------------
  Iteration         Total Energy            Largest Density Difference
  --------------------------------------------------------------------
       0            76.685850054532565              0.0000000000D+00
   current occupation vector 
     5  2  2  0  4  1  1  0
     5  2  2  0  4  1  1  0
  processed                  44300  ao basis integrals from 
                    74  buffers.
  processed                 175209  ao basis integrals from 
                   293  buffers.
  processed                 301590  ao basis integrals from 
                   503  buffers.
       1          -369.583842619239704              0.2570071289D+01
   current occupation vector 
     5  2  2  0  4  1  1  0
     5  2  2  0  4  1  1  0
  processed                  44300  ao basis integrals from 
                    74  buffers.
  processed                 175209  ao basis integrals from 
                   293  buffers.
  processed                 301590  ao basis integrals from 
                   503  buffers.
       2          -369.531011892947163              0.8575172531D+01
   current occupation vector 
     7  2  2  1  3  0  0  0
     7  2  2  1  3  0  0  0
  processed                  44300  ao basis integrals from 
                    74  buffers.
  processed                 175209  ao basis integrals from 
                   293  buffers.
  processed                 301590  ao basis integrals from 
                   503  buffers.
       3          -388.508681453040026              0.8588146782D+01
   current occupation vector 
     5  2  2  0  4  1  1  0
     5  2  2  0  4  1  1  0
  processed                  44300  ao basis integrals from 
                    74  buffers.
  processed                 175209  ao basis integrals from 
                   293  buffers.
  processed                 301590  ao basis integrals from 
                   503  buffers.
       4          -376.741606815231989              0.8281355709D+01
   current occupation vector 
     7  2  2  1  3  0  0  0
     7  2  2  1  3  0  0  0
 
 sum over diagonal and offdiagdiagonal of C(T)*S*C for irrep
                     1
 -6.661338147750939E-015  1.355515954647305E-013
 reorthoganalization of MOs is carried out
 sum over diagonal and offdiagdiagonal of C(T)*S*C for irrep
                     1
  2.553512956637860E-015 -1.269198417466757E-014
 
 sum over diagonal and offdiagdiagonal of C(T)*S*C for irrep
                     2
  1.865174681370263E-014 -5.164291143838310E-015
 reorthoganalization of MOs is carried out
 sum over diagonal and offdiagdiagonal of C(T)*S*C for irrep
                     2
 -4.440892098500626E-016 -7.395154069699555E-016
 
 sum over diagonal and offdiagdiagonal of C(T)*S*C for irrep
                     3
 -3.885780586188048E-015 -2.212446660170547E-015
 reorthoganalization of MOs is carried out
 sum over diagonal and offdiagdiagonal of C(T)*S*C for irrep
                     3
  1.443289932012704E-015 -7.216825425565823E-017
 
 sum over diagonal and offdiagdiagonal of C(T)*S*C for irrep
                     4
  1.743050148661496E-014 -3.614103333360862E-015
 reorthoganalization of MOs is carried out
 sum over diagonal and offdiagdiagonal of C(T)*S*C for irrep
                     4
 -3.330669073875470E-016  7.619118232325644E-017
 
 sum over diagonal and offdiagdiagonal of C(T)*S*C for irrep
                     5
  3.808064974464287E-014  9.300922085248481E-014
 reorthoganalization of MOs is carried out
 sum over diagonal and offdiagdiagonal of C(T)*S*C for irrep
                     5
  1.110223024625157E-015  3.123596499797994E-016
 
 sum over diagonal and offdiagdiagonal of C(T)*S*C for irrep
                     6
  2.342570581959080E-014  8.314010405621504E-015
 reorthoganalization of MOs is carried out
 sum over diagonal and offdiagdiagonal of C(T)*S*C for irrep
                     6
 -4.440892098500626E-016  2.010265339485056E-015
 
 sum over diagonal and offdiagdiagonal of C(T)*S*C for irrep
                     7
  2.009503674571533E-014 -1.531437835649970E-014
 reorthoganalization of MOs is carried out
 sum over diagonal and offdiagdiagonal of C(T)*S*C for irrep
                     7
 -5.551115123125783E-016 -1.988412191579046E-016
 
 sum over diagonal and offdiagdiagonal of C(T)*S*C for irrep
                     8
 -2.886579864025407E-015  8.225243468115642E-017
 reorthoganalization of MOs is carried out
 sum over diagonal and offdiagdiagonal of C(T)*S*C for irrep
                     8
 -3.330669073875470E-016  9.159141548838624E-017
  processed                  44300  ao basis integrals from 
                    74  buffers.
  processed                 175209  ao basis integrals from 
                   293  buffers.
  processed                 301590  ao basis integrals from 
                   503  buffers.
       5          -390.220782020808542              0.8279297355D+01
   current occupation vector 
     5  2  2  0  4  1  1  0
     5  2  2  0  4  1  1  0
  processed                  44300  ao basis integrals from 
                    74  buffers.
  processed                 175209  ao basis integrals from 
                   293  buffers.
  processed                 301590  ao basis integrals from 
                   503  buffers.
       6          -397.156267821843585              0.3189179942D+00
   current occupation vector 
     5  2  2  0  4  1  1  0
     5  2  2  0  4  1  1  0
  processed                  44300  ao basis integrals from 
                    74  buffers.
  processed                 175209  ao basis integrals from 
                   293  buffers.
  processed                 301590  ao basis integrals from 
                   503  buffers.
       7          -398.526739913829260              0.9986793457D-01
   current occupation vector 
     5  2  2  0  4  1  1  0
     5  2  2  0  4  1  1  0
  processed                  44300  ao basis integrals from 
                    74  buffers.
  processed                 175209  ao basis integrals from 
                   293  buffers.
  processed                 301590  ao basis integrals from 
                   503  buffers.
       8          -398.704812762994266              0.7146851014D-01
   current occupation vector 
     5  2  2  0  4  1  1  0
     5  2  2  0  4  1  1  0
  processed                  44300  ao basis integrals from 
                    74  buffers.
  processed                 175209  ao basis integrals from 
                   293  buffers.
  processed                 301590  ao basis integrals from 
                   503  buffers.
       9          -398.705472069668815              0.5831798973D-02
   current occupation vector 
     5  2  2  0  4  1  1  0
     5  2  2  0  4  1  1  0
 
 sum over diagonal and offdiagdiagonal of C(T)*S*C for irrep
                     1
  6.883382752675971E-015  1.115605226578685E-013
 reorthoganalization of MOs is carried out
 sum over diagonal and offdiagdiagonal of C(T)*S*C for irrep
                     1
  8.659739592076221E-015  1.195682668360370E-014
 
 sum over diagonal and offdiagdiagonal of C(T)*S*C for irrep
                     2
  3.552713678800501E-015  1.179487786097871E-015
 reorthoganalization of MOs is carried out
 sum over diagonal and offdiagdiagonal of C(T)*S*C for irrep
                     2
 -9.992007221626409E-016  2.426500564611365E-016
 
 sum over diagonal and offdiagdiagonal of C(T)*S*C for irrep
                     3
  3.885780586188048E-015 -1.035872251577268E-014
 reorthoganalization of MOs is carried out
 sum over diagonal and offdiagdiagonal of C(T)*S*C for irrep
                     3
 -7.771561172376096E-016  8.794695346311025E-016
 
 sum over diagonal and offdiagdiagonal of C(T)*S*C for irrep
                     4
  1.598721155460225E-014 -1.093335510470040E-015
 reorthoganalization of MOs is carried out
 sum over diagonal and offdiagdiagonal of C(T)*S*C for irrep
                     4
  5.551115123125783E-016  1.721018612507906E-016
 
 sum over diagonal and offdiagdiagonal of C(T)*S*C for irrep
                     5
  3.730349362740526E-014  1.302635917917676E-013
 reorthoganalization of MOs is carried out
 sum over diagonal and offdiagdiagonal of C(T)*S*C for irrep
                     5
  7.771561172376096E-016  1.305733533311030E-015
 
 sum over diagonal and offdiagdiagonal of C(T)*S*C for irrep
                     6
  1.765254609153999E-014  7.554054029793248E-015
 reorthoganalization of MOs is carried out
 sum over diagonal and offdiagdiagonal of C(T)*S*C for irrep
                     6
  7.771561172376096E-016  1.726701100616082E-016
 
 sum over diagonal and offdiagdiagonal of C(T)*S*C for irrep
                     7
  2.442490654175344E-014 -2.952932497730276E-014
 reorthoganalization of MOs is carried out
 sum over diagonal and offdiagdiagonal of C(T)*S*C for irrep
                     7
  3.330669073875470E-016  1.787924666924198E-016
 
 sum over diagonal and offdiagdiagonal of C(T)*S*C for irrep
                     8
 -1.332267629550188E-015  4.378575656748838E-016
 reorthoganalization of MOs is carried out
 sum over diagonal and offdiagdiagonal of C(T)*S*C for irrep
                     8
  0.000000000000000E+000 -5.860913888815123E-018
  processed                  44300  ao basis integrals from 
                    74  buffers.
  processed                 175209  ao basis integrals from 
                   293  buffers.
  processed                 301590  ao basis integrals from 
                   503  buffers.
      10          -398.705578205538984              0.1524707329D-02
   current occupation vector 
     5  2  2  0  4  1  1  0
     5  2  2  0  4  1  1  0
  processed                  44300  ao basis integrals from 
                    74  buffers.
  processed                 175209  ao basis integrals from 
                   293  buffers.
  processed                 301590  ao basis integrals from 
                   503  buffers.
      11          -398.705584119304774              0.8304574457D-03
   current occupation vector 
     5  2  2  0  4  1  1  0
     5  2  2  0  4  1  1  0
  processed                  44300  ao basis integrals from 
                    74  buffers.
  processed                 175209  ao basis integrals from 
                   293  buffers.
  processed                 301590  ao basis integrals from 
                   503  buffers.
      12          -398.705584314696125              0.2741646120D-03
   current occupation vector 
     5  2  2  0  4  1  1  0
     5  2  2  0  4  1  1  0
  processed                  44300  ao basis integrals from 
                    74  buffers.
  processed                 175209  ao basis integrals from 
                   293  buffers.
  processed                 301590  ao basis integrals from 
                   503  buffers.
      13          -398.705584324306983              0.7251402827D-04
   current occupation vector 
     5  2  2  0  4  1  1  0
     5  2  2  0  4  1  1  0
  processed                  44300  ao basis integrals from 
                    74  buffers.
  processed                 175209  ao basis integrals from 
                   293  buffers.
  processed                 301590  ao basis integrals from 
                   503  buffers.
      14          -398.705584324861775              0.1137567098D-04
   current occupation vector 
     5  2  2  0  4  1  1  0
     5  2  2  0  4  1  1  0
 
 sum over diagonal and offdiagdiagonal of C(T)*S*C for irrep
                     1
  6.772360450213455E-015  1.031026502885226E-013
 reorthoganalization of MOs is carried out
 sum over diagonal and offdiagdiagonal of C(T)*S*C for irrep
                     1
 -4.329869796038111E-015  4.977389614665926E-015
 
 sum over diagonal and offdiagdiagonal of C(T)*S*C for irrep
                     2
  2.098321516541546E-014 -8.240237609758420E-016
 reorthoganalization of MOs is carried out
 sum over diagonal and offdiagdiagonal of C(T)*S*C for irrep
                     2
  1.110223024625157E-016  3.923757900704649E-016
 
 sum over diagonal and offdiagdiagonal of C(T)*S*C for irrep
                     3
  1.287858708565182E-014 -6.628027880459890E-015
 reorthoganalization of MOs is carried out
 sum over diagonal and offdiagdiagonal of C(T)*S*C for irrep
                     3
 -2.220446049250313E-016 -2.452399432310213E-016
 
 sum over diagonal and offdiagdiagonal of C(T)*S*C for irrep
                     4
  1.332267629550188E-014 -2.230057296134890E-015
 reorthoganalization of MOs is carried out
 sum over diagonal and offdiagdiagonal of C(T)*S*C for irrep
                     4
  1.110223024625157E-016 -1.121514641516043E-016
 
 sum over diagonal and offdiagdiagonal of C(T)*S*C for irrep
                     5
  7.516209876712310E-014  1.213296539679147E-013
 reorthoganalization of MOs is carried out
 sum over diagonal and offdiagdiagonal of C(T)*S*C for irrep
                     5
  3.885780586188048E-015  7.246172231760941E-015
 
 sum over diagonal and offdiagdiagonal of C(T)*S*C for irrep
                     6
  1.376676550535194E-014  9.333417157004768E-015
 reorthoganalization of MOs is carried out
 sum over diagonal and offdiagdiagonal of C(T)*S*C for irrep
                     6
 -3.330669073875470E-016  7.252947194595336E-016
 
 sum over diagonal and offdiagdiagonal of C(T)*S*C for irrep
                     7
  2.442490654175344E-014 -3.275096674162133E-014
 reorthoganalization of MOs is carried out
 sum over diagonal and offdiagdiagonal of C(T)*S*C for irrep
                     7
  0.000000000000000E+000 -2.076304230660675E-016
 
 sum over diagonal and offdiagdiagonal of C(T)*S*C for irrep
                     8
  7.771561172376096E-016 -1.444898517821287E-016
 reorthoganalization of MOs is carried out
 sum over diagonal and offdiagdiagonal of C(T)*S*C for irrep
                     8
 -3.330669073875470E-016  8.249784866128361E-017
  processed                  44300  ao basis integrals from 
                    74  buffers.
  processed                 175209  ao basis integrals from 
                   293  buffers.
  processed                 301590  ao basis integrals from 
                   503  buffers.
      15          -398.705584324914355              0.2998184718D-05
   current occupation vector 
     5  2  2  0  4  1  1  0
     5  2  2  0  4  1  1  0
  processed                  44300  ao basis integrals from 
                    74  buffers.
  processed                 175209  ao basis integrals from 
                   293  buffers.
  processed                 301590  ao basis integrals from 
                   503  buffers.
      16          -398.705584324916515              0.6838882596D-06
   current occupation vector 
     5  2  2  0  4  1  1  0
     5  2  2  0  4  1  1  0
  processed                  44300  ao basis integrals from 
                    74  buffers.
  processed                 175209  ao basis integrals from 
                   293  buffers.
  processed                 301590  ao basis integrals from 
                   503  buffers.
      17          -398.705584324916629              0.8384157318D-07
   current occupation vector 
     5  2  2  0  4  1  1  0
     5  2  2  0  4  1  1  0
  processed                  44300  ao basis integrals from 
                    74  buffers.
  processed                 175209  ao basis integrals from 
                   293  buffers.
  processed                 301590  ao basis integrals from 
                   503  buffers.
      18          -398.705584324916515              0.1464145247D-07
   current occupation vector 
     5  2  2  0  4  1  1  0
     5  2  2  0  4  1  1  0
  processed                  44300  ao basis integrals from 
                    74  buffers.
  processed                 175209  ao basis integrals from 
                   293  buffers.
  processed                 301590  ao basis integrals from 
                   503  buffers.
      19          -398.705584324915833              0.1986454529D-08
   current occupation vector 
     5  2  2  0  4  1  1  0
     5  2  2  0  4  1  1  0
 
 sum over diagonal and offdiagdiagonal of C(T)*S*C for irrep
                     1
  6.328271240363392E-015  1.238878620769466E-013
 reorthoganalization of MOs is carried out
 sum over diagonal and offdiagdiagonal of C(T)*S*C for irrep
                     1
  1.554312234475219E-015  2.302340246049273E-016
 
 sum over diagonal and offdiagdiagonal of C(T)*S*C for irrep
                     2
  1.332267629550188E-014  2.511291522842936E-015
 reorthoganalization of MOs is carried out
 sum over diagonal and offdiagdiagonal of C(T)*S*C for irrep
                     2
 -1.110223024625157E-016 -1.636178146487577E-018
 
 sum over diagonal and offdiagdiagonal of C(T)*S*C for irrep
                     3
  3.108624468950438E-015 -8.026755457757709E-015
 reorthoganalization of MOs is carried out
 sum over diagonal and offdiagdiagonal of C(T)*S*C for irrep
                     3
 -6.661338147750939E-016  2.316520459463710E-015
 
 sum over diagonal and offdiagdiagonal of C(T)*S*C for irrep
                     4
  1.687538997430238E-014 -1.531538981960720E-015
 reorthoganalization of MOs is carried out
 sum over diagonal and offdiagdiagonal of C(T)*S*C for irrep
                     4
  4.440892098500626E-016  1.223322462143826E-016
 
 sum over diagonal and offdiagdiagonal of C(T)*S*C for irrep
                     5
  5.395683899678261E-014  1.254007571066609E-013
 reorthoganalization of MOs is carried out
 sum over diagonal and offdiagdiagonal of C(T)*S*C for irrep
                     5
  1.554312234475219E-015 -1.663898869835255E-015
 
 sum over diagonal and offdiagdiagonal of C(T)*S*C for irrep
                     6
  1.865174681370263E-014  4.504815484217571E-015
 reorthoganalization of MOs is carried out
 sum over diagonal and offdiagdiagonal of C(T)*S*C for irrep
                     6
  0.000000000000000E+000 -1.405262220050489E-016
 
 sum over diagonal and offdiagdiagonal of C(T)*S*C for irrep
                     7
  1.787459069646502E-014 -3.422115545188739E-014
 reorthoganalization of MOs is carried out
 sum over diagonal and offdiagdiagonal of C(T)*S*C for irrep
                     7
 -4.440892098500626E-016 -4.917473011324718E-016
 
 sum over diagonal and offdiagdiagonal of C(T)*S*C for irrep
                     8
  2.220446049250313E-016 -1.049393595615780E-016
 reorthoganalization of MOs is carried out
 sum over diagonal and offdiagdiagonal of C(T)*S*C for irrep
                     8
 -6.661338147750939E-016 -2.288426900209329E-017
  processed                  44300  ao basis integrals from 
                    74  buffers.
  processed                 175209  ao basis integrals from 
                   293  buffers.
  processed                 301590  ao basis integrals from 
                   503  buffers.
      20          -398.705584324917197              0.9158315772D-10
   current occupation vector 
     5  2  2  0  4  1  1  0
     5  2  2  0  4  1  1  0
  processed                  44300  ao basis integrals from 
                    74  buffers.
  processed                 175209  ao basis integrals from 
                   293  buffers.
[...]
   The total correlation energy is -0.677183552125 a.u.
  Current DIIS expansion coefficients : 
 [   1]-0.0289227647 [   2] 0.1786763817 [   3] 0.8645562106 [   4]-0.0003985376
 [   5]-0.0139112900
  Convergence information after    13 iterations: 
  Largest element of residual vector :  0.12561513E-06.
  Largest element of DIIS residual   :  0.14971272E-06.
  W(mnij) AB contribution =  0.0840117768 a.u.
  W(abef) AB contribution =  0.0861291670 a.u.
  W(mbej) AB contribution = -0.2086945829 a.u.
   After  14 iterations, amplitude changes are:
    -------------------------------------------------------------------
                 Spin      RMS          Max.      Max. change for
     Amplitude   Case     Change       Change       i    j    a    b
    -------------------------------------------------------------------
        T1        AA    0.0000000008 0.0000000922    2        14
        T2        AA    0.0000000000 0.0000000074   11   10   41   32
        T2        AB    0.0000000000-0.0000000311    2    2   12   12
    -------------------------------------------------------------------
   The AA contribution to the correlation energy is:   -0.0826846 a.u.
   The AB contribution to the correlation energy is:   -0.5118143 a.u.
   The total correlation energy is -0.677183557998 a.u.
   The total correlation energy is -0.677183557998 a.u.
  Current DIIS expansion coefficients : 
 [   1]-0.0291354550 [   2]-0.0950638939 [   3] 0.1613466713 [   4] 0.9519863587
 [   5] 0.0108663190
  Convergence information after    14 iterations: 
  Largest element of residual vector :  0.92237940E-07.
  Largest element of DIIS residual   : -0.46730613E-07.
  W(mnij) AB contribution =  0.0840117991 a.u.
  W(abef) AB contribution =  0.0861291804 a.u.
  W(mbej) AB contribution = -0.2086946399 a.u.
   After  15 iterations, amplitude changes are:
    -------------------------------------------------------------------
                 Spin      RMS          Max.      Max. change for
     Amplitude   Case     Change       Change       i    j    a    b
    -------------------------------------------------------------------
        T1        AA    0.0000000004 0.0000000341    2        14
        T2        AA    0.0000000000 0.0000000017   10    2   70   12
        T2        AB    0.0000000000 0.0000000063    4    4   12   12
    -------------------------------------------------------------------
   The AA contribution to the correlation energy is:   -0.0826846 a.u.
   The AB contribution to the correlation energy is:   -0.5118143 a.u.
   The total correlation energy is -0.677183563675 a.u.
   The total correlation energy is -0.677183563675 a.u.
  Current DIIS expansion coefficients : 
 [   1] 0.0032030741 [   2]-0.0162788885 [   3]-0.0397035053 [   4] 0.0631894072
 [   5] 0.9895899124
  Convergence information after    15 iterations: 
  Largest element of residual vector :  0.34106025E-07.
  Largest element of DIIS residual   :  0.30657528E-07.
   Largest T1 amplitudes for spin case AA:
   i       a                 i       a                 i       a    
-----------------------------------------------------------------------------
[  4      32    ] 0.02616 [  6      41    ] 0.02616 [  2      12    ] 0.02531
[  2      14    ] 0.02265 [ 10      70    ] 0.01594 [ 11      79    ] 0.01594
[  6      42    ] 0.00933 [  4      33    ] 0.00933 [  9      63    ] 0.00671
[  6      46    ] 0.00646 [  4      37    ] 0.00646 [ 11      83    ] 0.00637
[ 10      74    ] 0.00637 [  9      57    ] 0.00634 [  2      22    ] 0.00602
-----------------------------------------------------------------------------
   Norm of T1AA vector (      136 symmetry allowed elements):  0.0614855832.
-----------------------------------------------------------------------------
   Largest T2 amplitudes for spin case AB:
       _       _                 _       _                 _       _
   i   j   a   b             i   j   a   b             i   j   a   b
-----------------------------------------------------------------------------
[  3   3  35  35]-0.01955 [  5   5  44  44]-0.01955 [ 11  11  43  43]-0.01755
[ 10  10  34  34]-0.01755 [  6   6  43  43]-0.01749 [  4   4  34  34]-0.01749
[ 11   6  81  43] 0.01495 [  6  11  43  81] 0.01495 [ 10   4  72  34] 0.01495
[  4  10  34  72] 0.01495 [ 11   6  43  81] 0.01472 [  6  11  81  43] 0.01472
[ 10   4  34  72] 0.01472 [  4  10  72  34] 0.01472 [  5   3  44  35]-0.01470
-----------------------------------------------------------------------------
   Norm of T2AB vector (    98411 symmetry allowed elements):  0.3054754733.
-----------------------------------------------------------------------------
  W(mnij) AB contribution =  0.0840117997 a.u.
  W(abef) AB contribution =  0.0861291810 a.u.
  W(mbej) AB contribution = -0.2086946430 a.u.
   After  16 iterations, amplitude changes are:
    -------------------------------------------------------------------
                 Spin      RMS          Max.      Max. change for
     Amplitude   Case     Change       Change       i    j    a    b
    -------------------------------------------------------------------
        T1        AA    0.0000000001-0.0000000127    9        56
        T2        AA    0.0000000000-0.0000000016   11    9   41   14
        T2        AB    0.0000000000-0.0000000040    9    9   14   14
    -------------------------------------------------------------------
   The AA contribution to the correlation energy is:   -0.0826846 a.u.
   The AB contribution to the correlation energy is:   -0.5118144 a.u.
   The total correlation energy is -0.677183566108 a.u.
   The total correlation energy is -0.677183566108 a.u.
  Current DIIS expansion coefficients : 
 [   1] 0.8903713040 [   2] 0.0007014960 [   3]-0.0174201268 [   4]-0.0684250578
 [   5] 0.1947723846
  Convergence information after    16 iterations: 
  Largest element of residual vector : -0.12673745E-07.
  Largest element of DIIS residual   : -0.12447979E-07.
  W(mnij) AB contribution =  0.0840118021 a.u.
  W(abef) AB contribution =  0.0861291821 a.u.
  W(mbej) AB contribution = -0.2086946469 a.u.
   After  17 iterations, amplitude changes are:
    -------------------------------------------------------------------
                 Spin      RMS          Max.      Max. change for
     Amplitude   Case     Change       Change       i    j    a    b
    -------------------------------------------------------------------
        T1        AA    0.0000000001-0.0000000063    9        56
        T2        AA    0.0000000000 0.0000000004    6    2   41   12
        T2        AB    0.0000000000 0.0000000009    2    2   12   12
    -------------------------------------------------------------------
   The AA contribution to the correlation energy is:   -0.0826846 a.u.
   The AB contribution to the correlation energy is:   -0.5118144 a.u.
   The total correlation energy is -0.677183565588 a.u.
   The total correlation energy is -0.677183565588 a.u.
  Current DIIS expansion coefficients : 
 [   1] 0.1009414062 [   2] 0.9918206470 [   3] 0.0029545604 [   4]-0.0129006622
 [   5]-0.0828159514
  Convergence information after    17 iterations: 
  Largest element of residual vector : -0.62553127E-08.
  Largest element of DIIS residual   : -0.52304894E-08.
  W(mnij) AB contribution =  0.0840118015 a.u.
  W(abef) AB contribution =  0.0861291816 a.u.
  W(mbej) AB contribution = -0.2086946454 a.u.
   After  18 iterations, amplitude changes are:
    -------------------------------------------------------------------
                 Spin      RMS          Max.      Max. change for
     Amplitude   Case     Change       Change       i    j    a    b
    -------------------------------------------------------------------
        T1        AA    0.0000000000-0.0000000025    9        56
        T2        AA    0.0000000000-0.0000000004   11   10   41   32
        T2        AB    0.0000000000-0.0000000005   10   10   32   32
    -------------------------------------------------------------------
   The AA contribution to the correlation energy is:   -0.0826846 a.u.
   The AB contribution to the correlation energy is:   -0.5118144 a.u.
   The total correlation energy is -0.677183565941 a.u.
   The total correlation energy is -0.677183565941 a.u.
  Current DIIS expansion coefficients : 
 [   1]-0.0807976084 [   2] 0.0508861472 [   3] 1.0673997046 [   4] 0.0058204821
 [   5]-0.0433087255
  Convergence information after    18 iterations: 
  Largest element of residual vector : -0.25076834E-08.
  Largest element of DIIS residual   : -0.15773374E-08.
  W(mnij) AB contribution =  0.0840118015 a.u.
  W(abef) AB contribution =  0.0861291815 a.u.
  W(mbej) AB contribution = -0.2086946448 a.u.
   After  19 iterations, amplitude changes are:
    -------------------------------------------------------------------
                 Spin      RMS          Max.      Max. change for
     Amplitude   Case     Change       Change       i    j    a    b
    -------------------------------------------------------------------
        T1        AA    0.0000000000-0.0000000009    9        56
        T2        AA    0.0000000000 0.0000000001    6    2   41   12
        T2        AB    0.0000000000 0.0000000004    2    2   12   12
    -------------------------------------------------------------------
   The AA contribution to the correlation energy is:   -0.0826846 a.u.
   The AB contribution to the correlation energy is:   -0.5118144 a.u.
   The total correlation energy is -0.677183565872 a.u.
   The total correlation energy is -0.677183565872 a.u.
  Current DIIS expansion coefficients : 
 [   1] 0.0013687915 [   2]-0.1404795192 [   3] 0.1154306276 [   4] 1.0139641411
 [   5] 0.0097159589
  Convergence information after    19 iterations: 
  Largest element of residual vector : -0.85713992E-09.
  Largest element of DIIS residual   : -0.65375807E-09.
  Amplitude equations converged in    19iterations.
   The AA contribution to the correlation energy is:   -0.0826846 a.u.
   The AB contribution to the correlation energy is:   -0.5118144 a.u.
   The total correlation energy is -0.677183565899 a.u.
   The total correlation energy is -0.677183565899 a.u.
   The CC iterations have converged.

   Largest T1 amplitudes for spin case AA:
   i       a                 i       a                 i       a    
-----------------------------------------------------------------------------
[  4      32    ] 0.02616 [  6      41    ] 0.02616 [  2      12    ] 0.02531
[  2      14    ] 0.02265 [ 11      79    ] 0.01594 [ 10      70    ] 0.01594
[  4      33    ] 0.00933 [  6      42    ] 0.00933 [  9      63    ] 0.00671
[  4      37    ] 0.00646 [  6      46    ] 0.00646 [ 11      83    ] 0.00637
[ 10      74    ] 0.00637 [  9      57    ] 0.00634 [  2      22    ] 0.00602
-----------------------------------------------------------------------------
   Norm of T1AA vector (      136 symmetry allowed elements):  0.0614855943.
-----------------------------------------------------------------------------
   Largest T2 amplitudes for spin case AB:
       _       _                 _       _                 _       _
   i   j   a   b             i   j   a   b             i   j   a   b
-----------------------------------------------------------------------------
[  5   5  44  44]-0.01955 [  3   3  35  35]-0.01955 [ 10  10  34  34]-0.01755
[ 11  11  43  43]-0.01755 [  4   4  34  34]-0.01749 [  6   6  43  43]-0.01749
[ 10   4  72  34] 0.01495 [  4  10  34  72] 0.01495 [ 11   6  81  43] 0.01495
[  6  11  43  81] 0.01495 [ 10   4  34  72] 0.01472 [  4  10  72  34] 0.01472
[ 11   6  43  81] 0.01472 [  6  11  81  43] 0.01472 [  5   3  44  35]-0.01470
-----------------------------------------------------------------------------
   Norm of T2AB vector (    98411 symmetry allowed elements):  0.3054754770.
-----------------------------------------------------------------------------
       Summary of iterative solution of CC equations 
      -----------------------------------------------------------
                       Correlation           Total
       Iteration         Energy              Energy
      -----------------------------------------------------------
            0        -0.677121989660    -399.382706314576  DIIS 
            1        -0.663937480547    -399.369521805463  DIIS 
            2        -0.677331716714    -399.382916041629  DIIS 
            3        -0.676015314878    -399.381599639794  DIIS 
            4        -0.676906469169    -399.382490794085  DIIS 
            5        -0.677189216589    -399.382773541505  DIIS 
            6        -0.677184409562    -399.382768734478  DIIS 
            7        -0.677183939090    -399.382768264006  DIIS 
            8        -0.677185706592    -399.382770031507  DIIS 
            9        -0.677182525104    -399.382766850020  DIIS 
           10        -0.677183391919    -399.382767716835  DIIS 
           11        -0.677183381201    -399.382767706117  DIIS 
           12        -0.677183523492    -399.382767848407  DIIS 
           13        -0.677183552125    -399.382767877041  DIIS 
           14        -0.677183557998    -399.382767882914  DIIS 
           15        -0.677183563675    -399.382767888591  DIIS 
           16        -0.677183566108    -399.382767891023  DIIS 
           17        -0.677183565588    -399.382767890504  DIIS 
           18        -0.677183565941    -399.382767890857  DIIS 
           19        -0.677183565899    -399.382767890814  DIIS 
      -----------------------------------------------------------
      A miracle has come to pass. The CC iterations have converged.
 @DIMT3-I, Dimensions of T3 amplitudes : 
               # abc          # ijk       Symmetry    Spin 
                    10178             22     1          1
                     9912             18     2          1
                     9912             18     3          1
                     9422             22     4          1
                    10350             18     5          1
                     9912             22     6          1
                     9912             22     7          1
                     9481             23     8          1
                    32094             86     1          2
                    30438             74     2          2
                    30438             74     3          2
                    28734             66     4          2
                    32142             84     5          2
                    30438             76     6          2
                    30438             76     7          2
                    28677             69     8          2
                    32094             86     1          3
                    30438             74     2          3
                    30438             74     3          3
                    28734             66     4          3
                    32142             84     5          3
                    30438             76     6          3
                    30438             76     7          3
                    28677             69     8          3
                    10178             22     1          4
                     9912             18     2          4
                     9912             18     3          4
                     9422             22     4          4
                    10350             18     5          4
                     9912             22     6          4
                     9912             22     7          4
                     9481             23     8          4
 @DIMT3-I, Dimensions of T3 amplitudes : 
               # abc          # ijk       Symmetry    Spin 
                    10178             22     1          1
                     9912             18     2          1
                     9912             18     3          1
                     9422             22     4          1
                    10350             18     5          1
                     9912             22     6          1
                     9912             22     7          1
                     9481             23     8          1
                    32094             86     1          2
                    30438             74     2          2
                    30438             74     3          2
                    28734             66     4          2
                    32142             84     5          2
                    30438             76     6          2
                    30438             76     7          2
                    28677             69     8          2
                    32094             86     1          3
                    30438             74     2          3
                    30438             74     3          3
                    28734             66     4          3
                    32142             84     5          3
                    30438             76     6          3
                    30438             76     7          3
                    28677             69     8          3
                    10178             22     1          4
                     9912             18     2          4
                     9912             18     3          4
                     9422             22     4          4
                    10350             18     5          4
                     9912             22     6          4
                     9912             22     7          4
                     9481             23     8          4
 @TRPS-I, Welcome to TRPS. Watch your RUs ! 
 @TRPS-I, Method is CCSD(T) 
 @TRPS-I, Calculation type is energy 
 @TRPS-I, Reference function information : 
          Reference function is Hartree-Fock 
          Reference function is RHF Hartree-Fock 
 @TRPS-I, INT1 is true 
 @TRPS-I, INT2 is false 
 @TRPS-I, Lengths of ijka integrals. #1       6199
                                     #2       6199
                                     #3      13894
                                     #4      13894
                                    Max      13894
 @INITRP-I, Initializing W intermediate lists. 
 @SETOOOV-I, Some OOOV lists are being transposed. 
 @TRPS-I, Available memory in integer words   1499959040
          Number of pre-allocated words for TRPS2        46264
          Number of free words for TRPS2   1499912776
 @TRPS2-I, Spin case AAB 
 @TRPS2-I, Number of free integer words 1499912776
           Number of free double  words 1499912776
           Ratio                                 1
 @TRPS2-I, E4TBAA      -0.008096998673
  @TRPS2-I, E4TAAA  -4.409675423133660E-004
 @TRPS2-I, E5ST A    0.000501043682181
 @TRPS2-I, E5ST B    0.000283756826591
 @SETOOOV-I, Some OOOV lists are being transposed. 
 @CCENRG-I, CCSD/QCISD energy will now be evaluated. 
 @CCENRG-I, Correlation energies. ECCAA       -0.082684607918
                                  ECCBB        0.000000000000
                                  ECCAB       -0.511814350064
                                  Total       -0.677183565899
 @CCENRG-I, Reference   energy    -398.705584324916
            CCSD/QCISD energy     -399.382767890814
          E4T (T(CCSD)) = -0.017075932431
          E5ST          =  0.001569601018
          E4ST          =  0.000000000000
          In other words  
          <T3[2](Dagger) D3  T3[2]> = -0.017075932431
          <T1   (Dagger) Q1 WT3[2]> =  0.001569601018
          <T2   (Dagger) Q2 FT3[2]> =  0.000000000000
        E(CCSD)           =    -399.382767890814
        E(CCSD + T(CCSD)) =    -399.399843823246
        E(CCSD(T))        =    -399.398274222228
  @CHECKOUT-I, Total execution time (CPU/WALL):        8.16/      17.96 seconds.
--executable xvcc finished with status     0 in       18.04 seconds (walltime).
  The final electronic energy is      -399.398274222228224 a.u. 
  This computation required                           32.62 seconds (walltime).
