 --invoking executable--
/home/nike/cfour_v2.00beta/cfour_v2.00beta/bin/xjoda


   *************************************************************************
         <<<     CCCCCC     CCCCCC   |||     CCCCCC     CCCCCC   >>>
       <<<      CCC        CCC       |||    CCC        CCC         >>>
      <<<      CCC        CCC        |||   CCC        CCC            >>>
    <<<        CCC        CCC        |||   CCC        CCC              >>>
      <<<      CCC        CCC        |||   CCC        CCC            >>>
       <<<      CCC        CCC       |||    CCC        CCC         >>>
         <<<     CCCCCC     CCCCCC   |||     CCCCCC     CCCCCC   >>>
   *************************************************************************

     ****************************************************************
     * CFOUR Coupled-Cluster techniques for Computational Chemistry *
     ****************************************************************
 

   Department of Chemistry                Institut fuer Physikalische Chemie
   University of Texas at Austin          Universitaet Mainz
   Austin, TX  78712, USA                 D-55099 Mainz, Germany
 
                       Version 2.00beta
 
                     blg4113.int.ets1.calculquebec.ca                  
                     Sa 7. Mär 15:09:37 EST 2020                      
                     integer*8 version is running
 
********************************************************************************
*                          Input from ZMAT file                                *
********************************************************************************
TITLE                                                                           
Mg                                                                              
F  1 R1                                                                         
X  1 D  2 A90                                                                   
F  1 R2 3 A90 2 D180                                                            
                                                                                
R1=3.34481524059                                                                
R2=3.34481524059                                                                
D=1                                                                             
A90=90                                                                          
D180=180                                                                        
A=180.0                                                                         
                                                                                
*ACES2(CALC=CCSD(T)                                                             
UNITS=BOHR                                                                      
#GEOM=1.770*10/5.29177210903                                                    
#COORD=CARTESIAN                                                                
COORD=INTERNAL                                                                  
PRINT=4                                                                         
JODA_PRINT=4                                                                    
INPUT_MRCC=OFF                                                                  
#CC_PROG=MRCC                                                                   
#FROZEN_CORE=ON                                                                 
DROPMO=1>4                                                                      
CONTRACTION=GENERAL                                                             
#CONTRACTION=SEGMENTED                                                          
RELATIVISTIC=OFF                                                                
#EXCITE=EOMEE                                                                   
#ESTATE_CONV=5                                                                  
#ESTATE_SYM=2/2/2/2/2/2/2/2                                                     
XFORM_TOL=18                                                                    
SAVE_INTS=ON                                                                    
SCF_EXPORDER=6                                                                  
SCF_EXPSTART=5                                                                  
#SCF_DAMPING=1000                                                               
SCF_EXTRAPOLATION=ON                                                            
SCF_CONV=12                                                                     
SCF_MAXCYC=99999                                                                
CC_CONV=9                                                                       
CC_MAXCYC=999                                                                   
T3_EXTRAPOL=ON                                                                  
REFERENCE=RHF                                                                   
CHARGE=+0                                                                       
MULT=1                                                                          
ABCDTYPE=STANDARD                                                               
OCCUPATION=5-2-2-0-4-1-1-0                                                      
#OCCUPATION=3-2-2-0-1-0-0-0/3-1-1-0-1-0-0-0                                     
MEM=12                                                                          
MEM_UNIT=GB                                                                     
BASIS=SPECIAL)                                                                  
                                                                                
MG:def2-TZVPP                                                                   
F:def2-TZVPP                                                                    
F:def2-TZVPP                                                                    
                                                                                
********************************************************************************
  @GTFLGS-W, Keyword #GEOM not known and is ignored.
  @GTFLGS-W, Keyword #COORD not known and is ignored.
  @GTFLGS-W, Keyword #CC_PROG not known and is ignored.
  @GTFLGS-W, Keyword #FROZEN_CORE not known and is ignored.
  @GTFLGS-W, Keyword #CONTRACTION not known and is ignored.
  @GTFLGS-W, Keyword #EXCITE not known and is ignored.
  @GTFLGS-W, Keyword #ESTATE_CONV not known and is ignored.
  @GTFLGS-W, Keyword #ESTATE_SYM not known and is ignored.
  @GTFLGS-W, Keyword #SCF_DAMPING not known and is ignored.
  @GTFLGS-W, Keyword #OCCUPATION not known and is ignored.
    -------------------------------------------------------------------
                    CFOUR Control Parameters 
    -------------------------------------------------------------------
        External           Internal           Value            Units
          Name               Name
    -------------------------------------------------------------------
       ABCDTYPE             IABCDT         STANDARD     [  0]   ***   
       ANHARMONIC           IANHAR         OFF          [  0]   ***   
       ANH_ALGORIT          IANALG         STANDARD     [  0]   ***   
       ANH_DERIVAT          IANDER         SECOND       [  1]   ***   
       ANH_STEPSIZ          ICUBST             50000          x 10-6  
       ANH_SYMMETR          IANHSM         ABELIAN      [  0]   ***   
       AO_LADDERS           IAOLAD         SINGLEPASS   [  1]   ***   
       BASIS                IBASIS         SPECIAL      [  0]   ***   
       BREIT                IBREIT         OFF          [  0]   ***   
       BRUCK_CONV           IBRTOL          10D-  4             ***   
       BRUECKNER            IBRKNR             OFF      [  0]   ***   
       BUFFERSIZE           IBUFFS            600               ***   
       CACHE_RECS           ICHREC             10               ***   
       CALCLEVEL            ICLLVL           CCSD(T)    [ 22]   ***   
       CCORBOPT             ICCORB             OFF      [  0] x 0.01  
       CC_CONV              ICCCNV          10D-  9             ***   
       CC_EXPORDER          ICCEOR              5               ***   
       CC_EXTRAPOL          ICCEXT             DIIS     [  1]   ***   
       CC_MAXCYC            ICCCYC            999              cycles 
       CC_PROGRAM           ICCPRO         VCC          [  0]   ***   
       CHARGE               ICHRGE              0               ***   
       CHOLESKY             ICHOLE         OFF          [  0]   ***   
       CIS_CONV             ICISTL              5               ***   
       COMM_SIZE            IPSIZE            ***               ***   
       CONSTANT             ICONST         OLD          [  1]   ***   
       CONTINUUM            ICONTU         NONE         [  0]   ***   
       CONTRACTION          ICNTYP          GENERAL     [  1]   ***   
       COORDINATES          ICOORD         INTERNAL     [  0]   ***   
       CPHF_CONVER          ICPHFT          10D- 16             ***   
       CPHF_MAXCYC          ICPHFC             64              cycles 
       CUBIC                ICUBIC         OFF          [  0]   ***   
       CURVILINEAR          ICURVY            OFF       [  0]   ***   
       DBOC                 IDBOC          OFF          [  0]   ***   
       DCT                  IDCT           OFF          [  0]   ***   
       DERIV_LEV            IDRLVL            ZERO      [  0]   ***   
       DIAG_MRCC            IEOMST          10D-  0             ***   
       DIFF_TYPE            IDIFTY         RELAXED      [  0]   ***   
       DIRECT               IDIRCT         OFF          [  0]   ***   
       DROPMO               IDRPMO   1,  2,  3,  4,
       ECP                  IECP           OFF          [  0]   ***   
       EIGENVECTOR          IVEC                1               ***   
       EL_ANHARM            IELANH         OFF          [  0]   ***   
       EOMFOLLOW            IEOMSR         ENERGY       [  0]   ***   
       EOM_MRCC             IMRCCE         NEW          [  1]   ***   
       EOM_NONIT            EOMNON         OFF          [  0]   ***   
       EOM_NSING            IEOMSI          10D-  0             ***   
       EOM_NSTATES          IMRCCD         DAVIDSON     [  0]   ***   
       EOM_NTRIP            IEOMTR          10D-  0             ***   
       EOM_ORDER            IEXORD         ENERGY       [  0]   ***   
       ESTATE_CONV          IEXTOL          10D-  5             ***   
       ESTATE_DIAG          IEXDIG         ITERATIVE    [  0]   ***   
       ESTATE_LOCK          IESLOC         ON           [  1]   ***   
       ESTATE_MAXC          IEXMXC             20               ***   
       ESTATE_PROP          IEXPRP         OFF          [  0]   ***   
       EVAL_HESS            IRECAL              0            # of cyc.
       EXCITATION           IEXCIT              0               ***   
       EXCITE               IEXCIT         NONE         [  0]   ***   
       FCGRADNEW            IFCGNW         OFF          [  0]   ***   
       FC_FIELD             IFINFC              0             x 10-6  
       FD_CALTYPE           IFDCAL         GRADONLY     [  0]   ***   
       FD_PROJECT           IFDPRJ         OFF          [  1]   ***   
       FD_STEPSIZE          IDISFD              0            10-4 bohr
       FD_USEGROUP          IFDGRP         FULL         [  0]   ***   
       FILE_RECSIZ          IFLREC              4096           words  
       FINITE_PERT          IFIPER              0             x 10-6  
       FIXGEOM              IFIXGM         OFF          [  0]   ***   
       FOCK                 IFOCK          AO           [  1]   ***   
       FREQ_ALGORI          IVIALG         STANDARD     [  0]   ***   
       FROZEN_CORE          IFROCO         OFF          [  0]   ***   
       FROZEN_VIRT          IFROVI         OFF          [  0]   ***   
       GAMMA_ABCD           IGABCD         STORE        [  0]   ***   
       GAMMA_ABCI           IGABCI         STORE        [  0]   ***   
       GENBAS_1             IGNBS1              0               ***   
       GENBAS_2             IGNBS2              0               ***   
       GENBAS_3             IGNBS3              0               ***   
       GENBAS_4             IGNBS4              0               ***   
       GEO_CONV             ICONTL              5              H/bohr 
       GEO_MAXCYC           IOPTCY             50               ***   
       GEO_MAXSTEP          IMXSTP            300            millibohr
       GEO_METHOD           INR            SINGLE_POINT [  5]   ***   
       GIAO                 IGIAO          OFF          [  1]   ***   
       GIMIC                IGIMIC         OFF          [  0]   ***   
       GRID                 IGRID          OFF          [  0]   ***   
       GRID_ALGO            IGALGO         SERIAL       [  0]   ***   
       GUESS                IGUESS            MOREAD    [  0]   ***   
       HBAR                 IHBAR              OFF      [  0]   ***   
       HESS_TYPE            IHESTP         SCF          [  0]   ***   
       HF2_FILE             IHF2Fl         USE          [  1]   ***   
       HFSTABILITY          ISTABL         OFF          [  0]   ***   
       INCORE               INCORE             OFF      [  0]   ***   
       INPUT_MRCC           IMRCC          OFF          [  0]   ***   
       INTEGRALS            INTTYP             VMOL     [  1]   ***   
       JODA_PRINT           IJPRNT              4               ***   
       LINDEP_TOL           ILINDP              8               ***   
       LINEQ_CONV           IZTACN          10D-  7           cycles  
       LINEQ_EXPOR          ILMAXD              5               ***   
       LINEQ_MAXCY          ILMAXC             50               ***   
       LINEQ_TYPE           ILTYPE         DIIS         [  1]   ***   
       LOCK_ORBOCC          ILOCOC             OFF      [  0]   ***   
       MEMORY_SIZE          IMEMSZ         *********           words  
       MEM_UNIT             IMEMU          GB           [  3]   ***   
       MRCC                 IMRCCC         OFF          [  0]   ***   
       MULTIPLICTY          IMULTP              1               ***   
       NEGEVAL              IDIE             ABORT      [  0]   ***   
       NEWNORM              INEWNO         OFF          [  0]   ***   
       NON-HF               INONHF             OFF      [  0]   ***   
       NTOP_TAMP            ITOPT2             15               ***   
       NUC_MODEL            INUCMO         POINT        [  0]   ***   
       OCCUPATION           IOCCU    5,  2,  2,  0,  4,  1,  1,  0,
       OPEN-SHELL           IOPEN          SPIN-ORBITAL [  0]   ***   
       ORBITALS             IORBTP           STANDARD   [  0]   ***   
       PARALLEL             IPARAL         ON           [  1]   ***   
       PARA_INT             IPINTS         ON           [  1]   ***   
       PARA_PRINT           IPPRIN              0               ***   
       PERT_ORB             IPTORB         STANDARD     [  0]   ***   
       POINTS               IGRDFD              0               ***   
       PRINT                IPRNT               4               ***   
       PROPS                IPROPS             OFF      [  0]   ***   
       PROP_INTEGR          IINTYP         INTERNAL     [  0]   ***   
       PSI                  IPSI           OFF          [  0]   ***   
       QUARTIC              IQUART         OFF          [  0]   ***   
       RAMAN_INT            IRAMIN         OFF          [  0]   ***   
       RAMAN_ORB            IRAMRE         UNRELAXED    [  0]   ***   
       RDO                  IRDOFM             OFF      [  0]   ***   
       REFERENCE            IREFNC             RHF      [  0]   ***   
       RELATIVIST           IRELAT         OFF          [  0]   ***   
       RELAX_DENS           IRDENS             OFF      [  0]   ***   
       RESET_FLAGS          IRESET             OFF      [  0]   ***   
       RESTART_CC           ICCRES         OFF          [  0]   ***   
       ROT_EVEC             ROTVEC              0               ***   
       SAVE_INTS            ISVINT              ON      [  1]   ***   
       SCALE_ON             ISTCRT              0               ***   
       SCF_CONV             ISCFCV          10D- 12             ***   
       SCF_DAMPING          IDAMP               0             x 10-3  
       SCF_EXPORDE          IRPPOR              6               ***   
       SCF_EXPSTAR          IRPPLS              5               ***   
       SCF_EXTRAPO          IRPP                ON      [  1]   ***   
       SCF_MAXCYC           ISCFCY            ***              cycles 
       SCF_NOSTOP           ISCFST         OFF          [  0]   ***   
       SCF_PRINT            ISCFPR              0               ***   
       SD_FIELD             IFINSD              0             x 10-6  
       SEQUENCE             ISEQUE         OFF          [  0]   ***   
       SOPERT               IPERSO         OFF          [  0]   ***   
       SPHERICAL            IDFGHI             ON       [  1]   ***   
       SPINORBIT            ISOCAL         OFF          [  0]   ***   
       SPINROTATIO          ISRCON         OFF          [  0]   ***   
       SPIN_FLIP            ISPFLP         OFF          [  0]   ***   
       SPIN_ORBIT           ISPORB         OFF          [  0]   ***   
       SPIN_SCAL            ISCSMP         OFF          [  0]   ***   
       SUBGROUP             ISUBGP         DEFAULT      [  0]   ***   
       SUBGRPAXIS           ISBXYZ         X            [  0]   ***   
       SYMMETRY             ISYM             ON         [  0]   ***   
       SYM_CHECK            ISYMCK         OVERRIDE     [  1]   ***   
       T3_EXTRAPOL          IT3EXT         ON           [  1]   ***   
       TAMP_SUM             IEVERY              5               ***   
       TESTSUITE            ITESTS         OFF          [  0]   ***   
       THERMOCH             ITHERM         OFF          [  0]   ***   
       TOL_CHOLESK          ITOLCH          10D-  4             ***   
       TRANGRAD             IRESRM         OFF          [  0]   ***   
       TRANS_INV            ITRAIN         USE          [  0]   ***   
       TREAT_PERT           ITREAT         SIMULTANEOUS [  0]   ***   
       UIJ_THRESHO          IUIJTH              1               ***   
       UNITS                IUNITS         BOHR         [  1]   ***   
       UNOS                 IUNOS          OFF          [  0]   ***   
       UPDATE_HESS          IHUPDT         ON           [  1]   ***   
       VIBPHASE             ISETPH         STANDARD     [  0]   ***   
       VIBRATION            IVIB              NO        [  0]   ***   
       VIB_ALGORIT          IGEALG         STANDARD     [  0]   ***   
       VNATORB              IVNORB         OFF          [  0]   ***   
       VTRAN                IVTRAN         FULL/PARTIAL [  0]   ***   
       XFIELD               IXEFLD              0             x 10-6  
       XFORM_TOL            IXFTOL          10D- 18             ***   
       YFIELD               IYEFLD              0             x 10-6  
       ZFIELD               IZEFLD              0             x 10-6  
    -------------------------------------------------------------------
   1 entries found in Z-matrix 
   Job Title : TITLE                                                                           
  1  MG        12    23.98504
   23.9850423000
 After translation to center of mass coordinates 
        0.000000000000    0.000000000000    0.000000000000
  Inertia tensor (amu*bohr**2)
    0.00000    0.00000    0.00000
    0.00000    0.00000    0.00000
    0.00000    0.00000    0.00000
    Inertia tensor:
        0.000000000000    0.000000000000    0.000000000000
        0.000000000000    0.000000000000    0.000000000000
        0.000000000000    0.000000000000    0.000000000000
    Principal axis orientation for molecular system: 
        0.000000000000    0.000000000000    0.000000000000
    Diagonalized inertia tensor:
        0.000000000000    0.000000000000    0.000000000000
        0.000000000000    0.000000000000    0.000000000000
        0.000000000000    0.000000000000    0.000000000000
    Eigenvectors of inertia tensor: 
        0.000000000000    0.000000000000   -1.000000000000
        0.000000000000    1.000000000000    0.000000000000
        1.000000000000    0.000000000000    0.000000000000
 factor:   60.1997200000000     
   Rotational constants (in cm-1): 

   Rotational constants (in MHz): 

  @SYMMETRY-I, Handedness of inertial frame: 1.00000
  @SYMMETRY-I, The symmetry group is 3-fold degenerate.
  @SYMMETRY-I, The molecule belongs to a cubic point group.
   Principal axis orientation for molecule:
        0.000000000000    0.000000000000    0.000000000000
   Reflection in plane  3 is a valid symmetry operation.
   Rotation about  3 is a valid symmetry operation 
   Reflection in plane  2 is a valid symmetry operation.
   Rotation about  2 is a valid symmetry operation 
   Reflection in plane  1 is a valid symmetry operation.
   Rotation about  1 is a valid symmetry operation 
   The molecule possesses an inversion center. 
  Symmetry bits:    7   7   1
********************************************************************************
   The full molecular point group is I h .
   The largest Abelian subgroup of the full molecular point group is D2h .
   The computational point group is D2h .
********************************************************************************
  @GTFLGS-W, Keyword #GEOM not known and is ignored.
  @GTFLGS-W, Keyword #COORD not known and is ignored.
  @GTFLGS-W, Keyword #CC_PROG not known and is ignored.
  @GTFLGS-W, Keyword #FROZEN_CORE not known and is ignored.
  @GTFLGS-W, Keyword #CONTRACTION not known and is ignored.
  @GTFLGS-W, Keyword #EXCITE not known and is ignored.
  @GTFLGS-W, Keyword #ESTATE_CONV not known and is ignored.
  @GTFLGS-W, Keyword #ESTATE_SYM not known and is ignored.
  @GTFLGS-W, Keyword #SCF_DAMPING not known and is ignored.
  @GTFLGS-W, Keyword #OCCUPATION not known and is ignored.
  There are   32 basis functions.
 @GEOPT-W, Archive file not created for single-point calculation.
  @CHECKOUT-I, Total execution time (CPU/WALL):        0.55/       1.40 seconds.
--executable xjoda finished with status     0 in        2.60 seconds (walltime).
 --invoking executable--
/home/nike/cfour_v2.00beta/cfour_v2.00beta/bin/xvmol
 Serial version of molecule started
********************************************************************************
                    Input from MOL file
********************************************************************************
INTGRL        1    0    1    0    0    0    0    0    0                         
         *** CFOUR Program System (Release V0.1) ***                            
TITLE                                                                           
    1    3 X  Y   Z   0.10E-08              0    0                              
   9999.00      3.00                                                            
         12.00000000    1    3    1    1    1                                   
MG#1   0.000000000000000   0.000000000000000   0.000000000000000                
   14    5                                                                      
   31438.3495550000       6.091231132599999E-004  0.000000000000000E+000        
  0.000000000000000E+000  0.000000000000000E+000  0.000000000000000E+000        
   4715.51533540000       4.706619646500000E-003  0.000000000000000E+000        
  0.000000000000000E+000  0.000000000000000E+000  0.000000000000000E+000        
   1073.16292470000       2.413582065700000E-002  0.000000000000000E+000        
  0.000000000000000E+000  0.000000000000000E+000  0.000000000000000E+000        
   303.572387680000       9.362895983400001E-002  0.000000000000000E+000        
  0.000000000000000E+000  0.000000000000000E+000  0.000000000000000E+000        
   98.6262510420000       0.266467420930000       0.000000000000000E+000        
  0.000000000000000E+000  0.000000000000000E+000  0.000000000000000E+000        
   34.9438084170000       0.478909299170000       0.000000000000000E+000        
  0.000000000000000E+000  0.000000000000000E+000  0.000000000000000E+000        
   12.8597851990000       0.336984902860000       0.000000000000000E+000        
  0.000000000000000E+000  0.000000000000000E+000  0.000000000000000E+000        
   64.8769130040000       0.000000000000000E+000  1.918088930700000E-002        
  0.000000000000000E+000  0.000000000000000E+000  0.000000000000000E+000        
   19.7255207770000       0.000000000000000E+000  9.091370439200000E-002        
  0.000000000000000E+000  0.000000000000000E+000  0.000000000000000E+000        
   2.89518043390000       0.000000000000000E+000 -0.395637561250000             
  0.000000000000000E+000  0.000000000000000E+000  0.000000000000000E+000        
   1.19604547100000       0.000000000000000E+000  0.000000000000000E+000        
   1.68276033730000       0.000000000000000E+000  0.000000000000000E+000        
  0.543294511560000       0.000000000000000E+000  0.000000000000000E+000        
  0.521410919540000       0.000000000000000E+000  0.000000000000000E+000        
  0.100991040920000       0.000000000000000E+000  0.000000000000000E+000        
  0.000000000000000E+000   1.00000000000000       0.000000000000000E+000        
  3.686572808500000E-002  0.000000000000000E+000  0.000000000000000E+000        
  0.000000000000000E+000  0.000000000000000E+000   1.00000000000000             
    8    4                                                                      
   179.871896120000       5.379954901800000E-003  0.000000000000000E+000        
  0.000000000000000E+000  0.000000000000000E+000                                
   42.1200693760000       3.931801409800000E-002  0.000000000000000E+000        
  0.000000000000000E+000  0.000000000000000E+000                                
   13.1205030320000       0.157401294760000       0.000000000000000E+000        
  0.000000000000000E+000  0.000000000000000E+000                                
   4.62575036090000       0.359190941280000       0.000000000000000E+000        
  0.000000000000000E+000  0.000000000000000E+000                                
   1.66952110160000       0.455333793100000       0.000000000000000E+000        
  0.000000000000000E+000  0.000000000000000E+000                                
  0.585510121050000       0.000000000000000E+000  0.219864329100000             
  0.000000000000000E+000  0.000000000000000E+000                                
  0.189147961950000       0.000000000000000E+000  0.000000000000000E+000        
   1.00000000000000       0.000000000000000E+000                                
  5.376875518700000E-002  0.000000000000000E+000  0.000000000000000E+000        
  0.000000000000000E+000   1.00000000000000                                     
    3    3                                                                      
   3.44400000000000        1.00000000000000       0.000000000000000E+000        
  0.000000000000000E+000                                                        
  0.290000000000000       0.000000000000000E+000   1.00000000000000             
  0.000000000000000E+000                                                        
  7.000000000000001E-002  0.000000000000000E+000  0.000000000000000E+000        
   1.00000000000000                                                             
FINISH                                                                          
 
********************************************************************************
 One- and two-electron integrals over symmetry-adapted AOs are calculated.

  Spherical harmonics are used.
  
   1 types of atoms
   3 symmetry operations

   Reflection in the YZ-plane
   Reflection in the XZ-plane
   Reflection in the XY-plane
  
  Integrals less than  0.10E-13 are neglected.

  Atomic type number  1 :
  -----------------------

    Nuclear charge:                       12
    number of symmetry independent atoms:  1
    highest orbital type:                  d

      1 groups of CGTOs of s type
      1 groups of CGTOs of p type
      1 groups of CGTOs of d type

    nuclear coordinates (in a.u.) are :

    MG#1        0.000000000000000        0.000000000000000        0.000000000000000
  
   Basis function not normalized: 
   Center (as ordered in MOL file):   1
   Angular Momentum type          : s
   Offset within angular momentum :  1
   <chi|chi>                      :    0.9494021570
   Basis function not normalized: 
   Center (as ordered in MOL file):   1
   Angular Momentum type          : s
   Offset within angular momentum :  2
   <chi|chi>                      :    2.8320342092
   Basis function not normalized: 
   Center (as ordered in MOL file):   1
   Angular Momentum type          : s
   Offset within angular momentum :  3
   <chi|chi>                      :    0.4627677125
   Basis function not normalized: 
   Center (as ordered in MOL file):   1
   Angular Momentum type          : p
   Offset within angular momentum :  1
   <chi|chi>                      :    1.1548886480
   Basis function not normalized: 
   Center (as ordered in MOL file):   1
   Angular Momentum type          : p
   Offset within angular momentum :  2
   <chi|chi>                      :    4.5482593929
   Internuclear distances (A) :

     for atom MG#1 (coordinates :   0.00000   0.00000   0.00000)


   Group multiplication table :

         1   2   3   4   5   6   7   8
         2   1   4   3   6   5   8   7
         3   4   1   2   7   8   5   6
         4   3   2   1   8   7   6   5
         5   6   7   8   1   2   3   4
         6   5   8   7   2   1   4   3
         7   8   5   6   3   4   1   2
         8   7   6   5   4   3   2   1

   Gaussian basis information :

   atom                 exponent      coefficients

 MG#1  1    S   
+                 1   31438.349555   0.0006091   0.0000000   0.0000000   0.0000000   0.0000000
                  2    4715.515335   0.0047066   0.0000000   0.0000000   0.0000000   0.0000000
                  3    1073.162925   0.0241358   0.0000000   0.0000000   0.0000000   0.0000000
                  4     303.572388   0.0936290   0.0000000   0.0000000   0.0000000   0.0000000
                  5      98.626251   0.2664674   0.0000000   0.0000000   0.0000000   0.0000000
                  6      34.943808   0.4789093   0.0000000   0.0000000   0.0000000   0.0000000
                  7      12.859785   0.3369849   0.0000000   0.0000000   0.0000000   0.0000000
                  8      64.876913   0.0000000   0.0191809   0.0000000   0.0000000   0.0000000
                  9      19.725521   0.0000000   0.0909137   0.0000000   0.0000000   0.0000000
                 10       2.895180   0.0000000  -0.3956376   0.0000000   0.0000000   0.0000000
                 11       1.196045   0.0000000   0.0000000   1.6827603   0.0000000   0.0000000
                 12       0.543295   0.0000000   0.0000000   0.5214109   0.0000000   0.0000000
                 13       0.100991   0.0000000   0.0000000   0.0000000   1.0000000   0.0000000
                 14       0.036866   0.0000000   0.0000000   0.0000000   0.0000000   1.0000000

 MG#1  1    X   
+                15     179.871896   0.0053800   0.0000000   0.0000000   0.0000000
                 16      42.120069   0.0393180   0.0000000   0.0000000   0.0000000
                 17      13.120503   0.1574013   0.0000000   0.0000000   0.0000000
                 18       4.625750   0.3591909   0.0000000   0.0000000   0.0000000
                 19       1.669521   0.4553338   0.0000000   0.0000000   0.0000000
                 20       0.585510   0.0000000   0.2198643   0.0000000   0.0000000
                 21       0.189148   0.0000000   0.0000000   1.0000000   0.0000000
                 22       0.053769   0.0000000   0.0000000   0.0000000   1.0000000

 MG#1  1    Y   
+                23     179.871896   0.0053800   0.0000000   0.0000000   0.0000000
                 24      42.120069   0.0393180   0.0000000   0.0000000   0.0000000
                 25      13.120503   0.1574013   0.0000000   0.0000000   0.0000000
                 26       4.625750   0.3591909   0.0000000   0.0000000   0.0000000
                 27       1.669521   0.4553338   0.0000000   0.0000000   0.0000000
                 28       0.585510   0.0000000   0.2198643   0.0000000   0.0000000
                 29       0.189148   0.0000000   0.0000000   1.0000000   0.0000000
                 30       0.053769   0.0000000   0.0000000   0.0000000   1.0000000

 MG#1  1    Z   
+                31     179.871896   0.0053800   0.0000000   0.0000000   0.0000000
                 32      42.120069   0.0393180   0.0000000   0.0000000   0.0000000
                 33      13.120503   0.1574013   0.0000000   0.0000000   0.0000000
                 34       4.625750   0.3591909   0.0000000   0.0000000   0.0000000
                 35       1.669521   0.4553338   0.0000000   0.0000000   0.0000000
                 36       0.585510   0.0000000   0.2198643   0.0000000   0.0000000
                 37       0.189148   0.0000000   0.0000000   1.0000000   0.0000000
                 38       0.053769   0.0000000   0.0000000   0.0000000   1.0000000

 MG#1  1    XX  
+                39       3.444000   1.0000000   0.0000000   0.0000000
                 40       0.290000   0.0000000   1.0000000   0.0000000
                 41       0.070000   0.0000000   0.0000000   1.0000000

 MG#1  1    XY  
+                42       3.444000   1.0000000   0.0000000   0.0000000
                 43       0.290000   0.0000000   1.0000000   0.0000000
                 44       0.070000   0.0000000   0.0000000   1.0000000

 MG#1  1    XZ  
+                45       3.444000   1.0000000   0.0000000   0.0000000
                 46       0.290000   0.0000000   1.0000000   0.0000000
                 47       0.070000   0.0000000   0.0000000   1.0000000

 MG#1  1    YY  
+                48       3.444000   1.0000000   0.0000000   0.0000000
                 49       0.290000   0.0000000   1.0000000   0.0000000
                 50       0.070000   0.0000000   0.0000000   1.0000000

 MG#1  1    YZ  
+                51       3.444000   1.0000000   0.0000000   0.0000000
                 52       0.290000   0.0000000   1.0000000   0.0000000
                 53       0.070000   0.0000000   0.0000000   1.0000000

 MG#1  1    ZZ  
+                54       3.444000   1.0000000   0.0000000   0.0000000
                 55       0.290000   0.0000000   1.0000000   0.0000000
                 56       0.070000   0.0000000   0.0000000   1.0000000
 35 32
  1  2  3  4  5  6  7  8  9 10 11********* 12 13 14 15 16 17 18 19 20 21 22
 23 24 25 26 27 28 29 30 31 32
1

             SYMMETRY TRANSFORMATION INFO
             32 SYMMETRY ADAPTED BASIS FUNCTIONS 


          irreducible representation number 1

    1    1  MG#1     1s     1   1   1.0
    2    2  MG#1     1s     1   2   1.0
    3    3  MG#1     1s     1   3   1.0
    4    4  MG#1     1s     1   4   1.0
    5    5  MG#1     1s     1   5   1.0
    6    6  MG#1     3d2-   3  18  -1.0  27  -1.0  33   2.0
    7    7  MG#1     3d2-   3  19  -1.0  28  -1.0  34   2.0
    8    8  MG#1     3d2-   3  20  -1.0  29  -1.0  35   2.0
    9    9  MG#1     3d1+   2  18   1.0  27  -1.0
   10   10  MG#1     3d1+   2  19   1.0  28  -1.0
   11   11  MG#1     3d1+   2  20   1.0  29  -1.0


          irreducible representation number 2

   12    1  MG#1     2px    1   6   1.0
   13    2  MG#1     2px    1   7   1.0
   14    3  MG#1     2px    1   8   1.0
   15    4  MG#1     2px    1   9   1.0


          irreducible representation number 3

   16    1  MG#1     2py    1  10   1.0
   17    2  MG#1     2py    1  11   1.0
   18    3  MG#1     2py    1  12   1.0
   19    4  MG#1     2py    1  13   1.0


          irreducible representation number 4

   20    1  MG#1     3d1-   1  21   1.0
   21    2  MG#1     3d1-   1  22   1.0
   22    3  MG#1     3d1-   1  23   1.0


          irreducible representation number 5

   23    1  MG#1     2pz    1  14   1.0
   24    2  MG#1     2pz    1  15   1.0
   25    3  MG#1     2pz    1  16   1.0
   26    4  MG#1     2pz    1  17   1.0


          irreducible representation number 6

   27    1  MG#1     3d0    1  24   1.0
   28    2  MG#1     3d0    1  25   1.0
   29    3  MG#1     3d0    1  26   1.0


          irreducible representation number 7

   30    1  MG#1     3d2+   1  30   1.0
   31    2  MG#1     3d2+   1  31   1.0
   32    3  MG#1     3d2+   1  32   1.0
  Nuclear repulsion energy :    0.0000000000 a.u.
  required memory for a1 array                5077458  words 
  required memory for a2 array                2269589  words 
 @GETMEM-I,  Allocated      71 MB of main memory.
  @MOLECU-I, One electron integrals (CPU/WALL):        0.03/       0.04 seconds.
  @TWOEL-I,       1206 integrals of symmetry type  I I I I
  @TWOEL-I,       5298 integrals of symmetry type  I J I J
  @TWOEL-I,       3732 integrals of symmetry type  I I J J
  @TWOEL-I,       6714 integrals of symmetry type  I J K L
  @TWOEL-I, Total number of 2-e integrals      16950.
  @MOLECU-I, Two electron integrals (CPU/WALL):        0.03/       0.06 seconds.
  @CHECKOUT-I, Total execution time (CPU/WALL):        0.23/       0.70 seconds.
--executable xvmol finished with status     0 in        0.78 seconds (walltime).
 --invoking executable--
/home/nike/cfour_v2.00beta/cfour_v2.00beta/bin/xvmol2ja
 @GETMEM-I,  Allocated   11444 MB of main memory.
  @CHECKOUT-I, Total execution time (CPU/WALL):        0.01/       0.02 seconds.
--executable xvmol2ja finished with status     0 in        0.07 seconds (walltime).
 --invoking executable--
/home/nike/cfour_v2.00beta/cfour_v2.00beta/bin/xvscf
  There are   32 functions in the AO basis.

  There are 8 irreducible representations.

       Irrep        # of functions
         1                 11
         2                  4
         3                  4
         4                  3
         5                  4
         6                  3
         7                  3
         8                  0


  Parameters for SCF calculation: 
        SCF reference function:  RHF  
  Maximum number of iterations: ****
     Full symmetry point group: I h 
     Computational point group: D2h 
        Initial density matrix: MOREAD                 
     SCF convergence tolerance: 10**(-12)
  DIIS convergence acceleration:  ON
          Latest start for DIIS:   5
                     DIIS order:   6

     Alpha population by irrep:   5    2    2    0    4    1    1    0
      Beta population by irrep:   5    2    2    0    4    1    1    0


  Memory information:      81388 words required.
  Fock matrices are constructed from AO integral file.
 @GETMEM-I,  Allocated       0 MB of main memory.
  Initialization and symmetry analysis required      0.027 seconds.

 total no. of electrons in initial guess :  0.000000000000000E+000
  --------------------------------------------------------------------
  Iteration         Total Energy            Largest Density Difference
  --------------------------------------------------------------------
       0             0.000000000000000              0.0000000000D+00
   current occupation vector 
     5  2  2  0  4  1  1  0
     5  2  2  0  4  1  1  0
  processed                   1206  ao basis integrals from 
                     3  buffers.
  processed                   3732  ao basis integrals from 
                     7  buffers.
  processed                   5298  ao basis integrals from 
                     9  buffers.
       1           -15.432256805393816              0.7324585158D+01
   current occupation vector 
     5  2  2  0  4  1  1  0
     5  2  2  0  4  1  1  0
  processed                   1206  ao basis integrals from 
                     3  buffers.
  processed                   3732  ao basis integrals from 
                     7  buffers.
  processed                   5298  ao basis integrals from 
                     9  buffers.
       2          -143.336791161598711              0.8694055923D+01
   current occupation vector 
     5  2  2  0  4  1  1  0
     5  2  2  0  4  1  1  0
  processed                   1206  ao basis integrals from 
                     3  buffers.
  processed                   3732  ao basis integrals from 
                     7  buffers.
  processed                   5298  ao basis integrals from 
                     9  buffers.
       3          -160.732876995408986              0.5612899498D+01
   current occupation vector 
     5  2  2  0  4  1  1  0
     5  2  2  0  4  1  1  0
  processed                   1206  ao basis integrals from 
                     3  buffers.
  processed                   3732  ao basis integrals from 
                     7  buffers.
  processed                   5298  ao basis integrals from 
                     9  buffers.
       4          -164.638942457979226              0.4119820246D+01
   current occupation vector 
     5  2  2  0  4  1  1  0
     5  2  2  0  4  1  1  0
 
 sum over diagonal and offdiagdiagonal of C(T)*S*C for irrep
                     1
 -2.442490654175344E-014 -1.469791275527673E-014
 reorthoganalization of MOs is carried out
 sum over diagonal and offdiagdiagonal of C(T)*S*C for irrep
                     1
 -1.110223024625157E-015 -6.156596899654258E-016
 
 sum over diagonal and offdiagdiagonal of C(T)*S*C for irrep
                     2
 -7.993605777301127E-015 -1.975887884768328E-015
 reorthoganalization of MOs is carried out
 sum over diagonal and offdiagdiagonal of C(T)*S*C for irrep
                     2
  0.000000000000000E+000 -3.402272049190554E-017
 
 sum over diagonal and offdiagdiagonal of C(T)*S*C for irrep
                     3
 -7.105427357601002E-015 -1.727567461737928E-015
 reorthoganalization of MOs is carried out
 sum over diagonal and offdiagdiagonal of C(T)*S*C for irrep
                     3
  5.551115123125783E-016  1.404186933597428E-016
 
 sum over diagonal and offdiagdiagonal of C(T)*S*C for irrep
                     4
 -6.994405055138486E-015  2.071519214900287E-015
 reorthoganalization of MOs is carried out
 sum over diagonal and offdiagdiagonal of C(T)*S*C for irrep
                     4
 -1.110223024625157E-015 -1.231092693749580E-016
 
 sum over diagonal and offdiagdiagonal of C(T)*S*C for irrep
                     5
 -1.254552017826427E-014 -3.227335208155870E-015
 reorthoganalization of MOs is carried out
 sum over diagonal and offdiagdiagonal of C(T)*S*C for irrep
                     5
  2.220446049250313E-016  4.848316659964170E-016
 
 sum over diagonal and offdiagdiagonal of C(T)*S*C for irrep
                     6
 -9.103828801926284E-015  1.387837864008345E-015
 reorthoganalization of MOs is carried out
 sum over diagonal and offdiagdiagonal of C(T)*S*C for irrep
                     6
  0.000000000000000E+000 -4.609914472101156E-017
 
 sum over diagonal and offdiagdiagonal of C(T)*S*C for irrep
                     7
 -7.549516567451064E-015  1.565329315530537E-015
 reorthoganalization of MOs is carried out
 sum over diagonal and offdiagdiagonal of C(T)*S*C for irrep
                     7
 -5.551115123125783E-016 -1.246609209881785E-016
  processed                   1206  ao basis integrals from 
                     3  buffers.
  processed                   3732  ao basis integrals from 
                     7  buffers.
  processed                   5298  ao basis integrals from 
                     9  buffers.
       5          -164.935241862993195              0.3339572844D+00
   current occupation vector 
     5  2  2  0  4  1  1  0
     5  2  2  0  4  1  1  0
  processed                   1206  ao basis integrals from 
                     3  buffers.
  processed                   3732  ao basis integrals from 
                     7  buffers.
  processed                   5298  ao basis integrals from 
                     9  buffers.
       6          -164.945197992220841              0.1072940747D+00
   current occupation vector 
     5  2  2  0  4  1  1  0
     5  2  2  0  4  1  1  0
  processed                   1206  ao basis integrals from 
                     3  buffers.
  processed                   3732  ao basis integrals from 
                     7  buffers.
  processed                   5298  ao basis integrals from 
                     9  buffers.
       7          -164.949173964560629              0.4007611415D-01
   current occupation vector 
     5  2  2  0  4  1  1  0
     5  2  2  0  4  1  1  0
  processed                   1206  ao basis integrals from 
                     3  buffers.
  processed                   3732  ao basis integrals from 
                     7  buffers.
  processed                   5298  ao basis integrals from 
                     9  buffers.
       8          -164.949206803947447              0.3162774524D-02
   current occupation vector 
     5  2  2  0  4  1  1  0
     5  2  2  0  4  1  1  0
  processed                   1206  ao basis integrals from 
                     3  buffers.
  processed                   3732  ao basis integrals from 
                     7  buffers.
  processed                   5298  ao basis integrals from 
                     9  buffers.
       9          -164.949206887236954              0.1434739200D-03
   current occupation vector 
     5  2  2  0  4  1  1  0
     5  2  2  0  4  1  1  0
 
 sum over diagonal and offdiagdiagonal of C(T)*S*C for irrep
                     1
 -1.554312234475219E-014 -1.522442056865535E-014
 reorthoganalization of MOs is carried out
 sum over diagonal and offdiagdiagonal of C(T)*S*C for irrep
                     1
 -7.771561172376096E-016 -2.871582229204913E-016
 
 sum over diagonal and offdiagdiagonal of C(T)*S*C for irrep
                     2
 -1.065814103640150E-014 -5.256313840204951E-015
 reorthoganalization of MOs is carried out
 sum over diagonal and offdiagdiagonal of C(T)*S*C for irrep
                     2
  1.110223024625157E-016 -6.587751234899548E-017
 
 sum over diagonal and offdiagdiagonal of C(T)*S*C for irrep
                     3
 -8.992806499463768E-015 -4.008449313917591E-015
 reorthoganalization of MOs is carried out
 sum over diagonal and offdiagdiagonal of C(T)*S*C for irrep
                     3
  2.220446049250313E-016  4.779980405479600E-016
 
 sum over diagonal and offdiagdiagonal of C(T)*S*C for irrep
                     4
 -7.882583474838611E-015  1.649208565022177E-015
 reorthoganalization of MOs is carried out
 sum over diagonal and offdiagdiagonal of C(T)*S*C for irrep
                     4
  1.110223024625157E-016 -7.492620223750765E-018
 
 sum over diagonal and offdiagdiagonal of C(T)*S*C for irrep
                     5
 -1.543210004228968E-014 -5.014280903150264E-015
 reorthoganalization of MOs is carried out
 sum over diagonal and offdiagdiagonal of C(T)*S*C for irrep
                     5
  2.220446049250313E-016 -7.181326776717182E-016
 
 sum over diagonal and offdiagdiagonal of C(T)*S*C for irrep
                     6
 -7.438494264988549E-015  5.533332385068383E-016
 reorthoganalization of MOs is carried out
 sum over diagonal and offdiagdiagonal of C(T)*S*C for irrep
                     6
 -8.881784197001252E-016 -8.279658570791044E-017
 
 sum over diagonal and offdiagdiagonal of C(T)*S*C for irrep
                     7
 -5.329070518200751E-015  1.586560397292001E-015
 reorthoganalization of MOs is carried out
 sum over diagonal and offdiagdiagonal of C(T)*S*C for irrep
                     7
 -4.440892098500626E-016 -1.061095580436785E-016
  processed                   1206  ao basis integrals from 
                     3  buffers.
  processed                   3732  ao basis integrals from 
                     7  buffers.
  processed                   5298  ao basis integrals from 
                     9  buffers.
      10          -164.949206887249744              0.2663298488D-05
   current occupation vector 
     5  2  2  0  4  1  1  0
     5  2  2  0  4  1  1  0
  processed                   1206  ao basis integrals from 
                     3  buffers.
  processed                   3732  ao basis integrals from 
                     7  buffers.
  processed                   5298  ao basis integrals from 
                     9  buffers.
      11          -164.949206887250256              0.3083232373D-06
   current occupation vector 
     5  2  2  0  4  1  1  0
     5  2  2  0  4  1  1  0
  processed                   1206  ao basis integrals from 
                     3  buffers.
  processed                   3732  ao basis integrals from 
                     7  buffers.
  processed                   5298  ao basis integrals from 
                     9  buffers.
      12          -164.949206887250227              0.3651421455D-07
   current occupation vector 
     5  2  2  0  4  1  1  0
     5  2  2  0  4  1  1  0
  processed                   1206  ao basis integrals from 
                     3  buffers.
  processed                   3732  ao basis integrals from 
                     7  buffers.
  processed                   5298  ao basis integrals from 
                     9  buffers.
      13          -164.949206887249915              0.2561651856D-08
   current occupation vector 
     5  2  2  0  4  1  1  0
     5  2  2  0  4  1  1  0
  processed                   1206  ao basis integrals from 
                     3  buffers.
  processed                   3732  ao basis integrals from 
                     7  buffers.
  processed                   5298  ao basis integrals from 
                     9  buffers.
      14          -164.949206887250170              0.7020384274D-10
   current occupation vector 
     5  2  2  0  4  1  1  0
     5  2  2  0  4  1  1  0
 
 sum over diagonal and offdiagdiagonal of C(T)*S*C for irrep
                     1
 -1.654232306691483E-014 -7.529495524667150E-015
 reorthoganalization of MOs is carried out
 sum over diagonal and offdiagdiagonal of C(T)*S*C for irrep
                     1
  8.881784197001252E-016 -7.722505043547616E-016
 
 sum over diagonal and offdiagdiagonal of C(T)*S*C for irrep
                     2
 -9.880984919163893E-015 -6.426258538470553E-015
 reorthoganalization of MOs is carried out
 sum over diagonal and offdiagdiagonal of C(T)*S*C for irrep
                     2
  5.551115123125783E-016  3.540694144856203E-016
 
 sum over diagonal and offdiagdiagonal of C(T)*S*C for irrep
                     3
 -1.187938636348917E-014 -6.942393679526254E-015
 reorthoganalization of MOs is carried out
 sum over diagonal and offdiagdiagonal of C(T)*S*C for irrep
                     3
  0.000000000000000E+000  4.502338778471295E-016
 
 sum over diagonal and offdiagdiagonal of C(T)*S*C for irrep
                     4
 -4.996003610813204E-015  8.859406129752009E-016
 reorthoganalization of MOs is carried out
 sum over diagonal and offdiagdiagonal of C(T)*S*C for irrep
                     4
 -1.443289932012704E-015  4.070140754355932E-017
 
 sum over diagonal and offdiagdiagonal of C(T)*S*C for irrep
                     5
 -8.326672684688674E-015 -4.302774758240726E-015
 reorthoganalization of MOs is carried out
 sum over diagonal and offdiagdiagonal of C(T)*S*C for irrep
                     5
 -2.220446049250313E-016  1.048504203576712E-016
 
 sum over diagonal and offdiagdiagonal of C(T)*S*C for irrep
                     6
 -8.104628079763643E-015  1.965029096305766E-015
 reorthoganalization of MOs is carried out
 sum over diagonal and offdiagdiagonal of C(T)*S*C for irrep
                     6
 -3.330669073875470E-016 -2.183007912685279E-016
 
 sum over diagonal and offdiagdiagonal of C(T)*S*C for irrep
                     7
 -6.217248937900877E-015  9.574429987666454E-016
 reorthoganalization of MOs is carried out
 sum over diagonal and offdiagdiagonal of C(T)*S*C for irrep
                     7
 -3.330669073875470E-016 -1.807380208688651E-016
  processed                   1206  ao basis integrals from 
                     3  buffers.
  processed                   3732  ao basis integrals from 
                     7  buffers.
  processed                   5298  ao basis integrals from 
                     9  buffers.
      15          -164.949206887250142              0.6576517109D-11
   current occupation vector 
     5  2  2  0  4  1  1  0
     5  2  2  0  4  1  1  0

  SCF has converged.

 Density matrix saved to file den.dat
 total electron number:   29.9999999999999     
  processed                   1206  ao basis integrals from 
                     3  buffers.
  processed                   3732  ao basis integrals from 
                     7  buffers.
  processed                   5298  ao basis integrals from 
                     9  buffers.
     E(SCF)=      -164.949206887250426              0.2109423747D-12


  ORBITAL EIGENVECTORS

  SYMMETRY BLOCK 1 (ALPHA)

                          MO #  1       MO #  2       MO #  3       MO #  4

    BASIS/ORB E          -43.91010       1.01070       2.72397       3.12003
                        ----------    ----------    ----------    ----------
    1; MG#1                0.99613       0.26075       0.01606      -0.00000
    2; MG#1               -0.02326       0.34046      -0.04488      -0.00000
    3; MG#1               -0.00561      -0.71003      -0.17913      -0.00000
    4; MG#1                0.00147      -0.05090       1.23031       0.00000
    5; MG#1               -0.00073       0.02510      -1.76736      -0.00000
    6; MG#1                0.00006       0.00228       0.00012      -0.00000
    7; MG#1               -0.00003       0.00220      -0.00662       0.00000
    8; MG#1                0.00001      -0.00063       0.02708      -0.00000
    9; MG#1                0.00000       0.00000       0.00000       0.00111
   10; MG#1                0.00000      -0.00000       0.00000      -0.11765
   11; MG#1               -0.00000       0.00000      -0.00000       0.54065


                          MO #  5       MO #  6       MO #  7       MO #  8

    BASIS/ORB E            3.19140       4.03191       4.77969       4.87206
                        ----------    ----------    ----------    ----------
    1; MG#1                0.00274       0.08157      -0.00000       0.00225
    2; MG#1               -0.00457       0.02100       0.00000       0.00097
    3; MG#1               -0.02593      -0.55591      -0.00000      -0.02112
    4; MG#1                0.13577       1.65349       0.00000       0.08945
    5; MG#1               -0.16463      -0.66208       0.00000      -0.03876
    6; MG#1               -0.00064       0.00003       0.00000       0.00629
    7; MG#1                0.06794      -0.01775       0.00000       0.31296
    8; MG#1               -0.31101       0.00952      -0.00000      -0.07683
    9; MG#1               -0.00000       0.00000       0.01177      -0.00000
   10; MG#1                0.00000      -0.00000       0.54293      -0.00000
   11; MG#1               -0.00000      -0.00000      -0.13430       0.00000


                          MO #  9       MO # 10       MO # 11

    BASIS\ORB E            9.36158      11.70638      11.82028
                        ----------    ----------    ----------
    1; MG#1                0.04416      -0.00000       0.00276
    2; MG#1               -1.98200      -0.00000      -0.01786
    3; MG#1               -2.10233      -0.00000      -0.02790
    4; MG#1                0.73988       0.00000       0.00959
    5; MG#1               -0.35208      -0.00000      -0.00474
    6; MG#1                0.00301      -0.00000      -0.29068
    7; MG#1               -0.00007       0.00000       0.04532
    8; MG#1                0.00019      -0.00000      -0.01468
    9; MG#1               -0.00000       0.50350      -0.00000
   10; MG#1                0.00000      -0.07945       0.00000
   11; MG#1               -0.00000       0.02570      -0.00000


  SYMMETRY BLOCK 2 (ALPHA)

                          MO # 12       MO # 13       MO # 14       MO # 15

    BASIS/ORB E            2.48302       2.91609       4.31092       6.49595
                        ----------    ----------    ----------    ----------
   12; MG#1                0.80593       0.04914       0.18968       0.91666
   13; MG#1                0.28362      -0.18164       0.46811      -1.67234
   14; MG#1                0.03291       0.67327      -1.49627       0.98442
   15; MG#1                0.01339      -1.29045       0.42525      -0.26754


  SYMMETRY BLOCK 3 (ALPHA)

                          MO # 16       MO # 17       MO # 18       MO # 19

    BASIS/ORB E            2.48302       2.91609       4.31092       6.49595
                        ----------    ----------    ----------    ----------
   16; MG#1                0.80593       0.04914       0.18968       0.91666
   17; MG#1                0.28362      -0.18164       0.46811      -1.67234
   18; MG#1                0.03291       0.67327      -1.49627       0.98442
   19; MG#1                0.01339      -1.29045       0.42525      -0.26754


  SYMMETRY BLOCK 4 (ALPHA)

                          MO # 20       MO # 21       MO # 22

    BASIS\ORB E            3.28278       4.77494      11.70631
                        ----------    ----------    ----------
   20; MG#1                0.00229       0.02348       1.00699
   21; MG#1               -0.24001       1.08484      -0.15877
   22; MG#1                1.08246      -0.26393       0.05120


  SYMMETRY BLOCK 5 (ALPHA)

                          MO # 23       MO # 24       MO # 25       MO # 26

    BASIS/ORB E            2.45077       2.96029       4.10264       5.97662
                        ----------    ----------    ----------    ----------
   23; MG#1                0.85986       0.04099       0.21360       0.86111
   24; MG#1                0.21162      -0.18291       0.34961      -1.71138
   25; MG#1                0.03513       0.65957      -1.43699       1.07753
   26; MG#1               -0.00114      -1.28670       0.41940      -0.29388


  SYMMETRY BLOCK 6 (ALPHA)

                          MO # 27       MO # 28       MO # 29

    BASIS\ORB E            3.17112       4.84707      11.79118
                        ----------    ----------    ----------
   27; MG#1                0.00225       0.02226       1.00702
   28; MG#1               -0.23668       1.08576      -0.15750
   29; MG#1                1.08164      -0.26730       0.05100


  SYMMETRY BLOCK 7 (ALPHA)

                          MO # 30       MO # 31       MO # 32

    BASIS\ORB E            3.17112       4.84707      11.79118
                        ----------    ----------    ----------
   30; MG#1                0.00225       0.02226       1.00702
   31; MG#1               -0.23668       1.08576      -0.15750
   32; MG#1                1.08164      -0.26730       0.05100


  SYMMETRY BLOCK 8 (ALPHA)

 @PUTMOS-I, Writing converged MOs to NEWMOS. 
 @PUTMOS-I, Symmetry   1 Full Blocks  2 Partial Blocksize   3
 @PUTMOS-I, Symmetry   2 Full Blocks  1 Partial Blocksize   0
 @PUTMOS-I, Symmetry   3 Full Blocks  1 Partial Blocksize   0
 @PUTMOS-I, Symmetry   4 Full Blocks  0 Partial Blocksize   3
 @PUTMOS-I, Symmetry   5 Full Blocks  1 Partial Blocksize   0
 @PUTMOS-I, Symmetry   6 Full Blocks  0 Partial Blocksize   3
 @PUTMOS-I, Symmetry   7 Full Blocks  0 Partial Blocksize   3
 @PUTMOS-I, Symmetry   8 Full Blocks  0 Partial Blocksize   0
--------------------------------------------------------------------------------
Eigenvalue    -43.910104      1.010701      2.450770      2.483016      2.483016
 Symmetry          Ag            Ag            Au             u             u    
--------------------------------------------------------------------------------
   1 S         0.9961326     0.2607520     0.0000000     0.0000000     0.0000000
   1 S        -0.0232639     0.3404562     0.0000000     0.0000000     0.0000000
   1 S        -0.0056114    -0.7100337     0.0000000     0.0000000     0.0000000
   1 S         0.0014690    -0.0509004     0.0000000     0.0000000     0.0000000
   1 S        -0.0007266     0.0251047     0.0000000     0.0000000     0.0000000
   1 PX        0.0000000     0.0000000     0.0000000     0.8059265     0.0000000
   1 PY        0.0000000     0.0000000     0.0000000     0.0000000     0.8059265
   1 PZ        0.0000000     0.0000000     0.8598639     0.0000000     0.0000000
   1 PX        0.0000000     0.0000000     0.0000000     0.2836154     0.0000000
   1 PY        0.0000000     0.0000000     0.0000000     0.0000000     0.2836154
   1 PZ        0.0000000     0.0000000     0.2116222     0.0000000     0.0000000
   1 PX        0.0000000     0.0000000     0.0000000     0.0329067     0.0000000
   1 PY        0.0000000     0.0000000     0.0000000     0.0000000     0.0329067
   1 PZ        0.0000000     0.0000000     0.0351345     0.0000000     0.0000000
   1 PX        0.0000000     0.0000000     0.0000000     0.0133886     0.0000000
   1 PY        0.0000000     0.0000000     0.0000000     0.0000000     0.0133886
   1 PZ        0.0000000     0.0000000    -0.0011446     0.0000000     0.0000000
   1 DX2      -0.0000563    -0.0022831     0.0000000     0.0000000     0.0000000
   1 DXY       0.0000000     0.0000000     0.0000000     0.0000000     0.0000000
   1 DXZ       0.0000000     0.0000000     0.0000000     0.0000000     0.0000000
   1 DY2      -0.0000563    -0.0022831     0.0000000     0.0000000     0.0000000
   1 DYZ       0.0000000     0.0000000     0.0000000     0.0000000     0.0000000
   1 DZZ       0.0001126     0.0045662     0.0000000     0.0000000     0.0000000
   1 DX2       0.0000320    -0.0022044     0.0000000     0.0000000     0.0000000
   1 DXY       0.0000000     0.0000000     0.0000000     0.0000000     0.0000000
   1 DXZ       0.0000000     0.0000000     0.0000000     0.0000000     0.0000000
   1 DY2       0.0000320    -0.0022044     0.0000000     0.0000000     0.0000000
   1 DYZ       0.0000000     0.0000000     0.0000000     0.0000000     0.0000000
   1 DZZ      -0.0000641     0.0044089     0.0000000     0.0000000     0.0000000
   1 DX2      -0.0000109     0.0006333     0.0000000     0.0000000     0.0000000
   1 DXY       0.0000000     0.0000000     0.0000000     0.0000000     0.0000000
   1 DXZ       0.0000000     0.0000000     0.0000000     0.0000000     0.0000000
   1 DY2      -0.0000109     0.0006333     0.0000000     0.0000000     0.0000000
   1 DYZ       0.0000000     0.0000000     0.0000000     0.0000000     0.0000000
   1 DZZ       0.0000218    -0.0012665     0.0000000     0.0000000     0.0000000
--------------------------------------------------------------------------------
Eigenvalue      2.723970      2.916088      2.916088      2.960294      3.120033
 Symmetry          Ag             u             u            Au            Ag    
--------------------------------------------------------------------------------
   1 S         0.0160614     0.0000000     0.0000000     0.0000000    -0.0000000
   1 S        -0.0448766     0.0000000     0.0000000     0.0000000    -0.0000000
   1 S        -0.1791326     0.0000000     0.0000000     0.0000000    -0.0000000
   1 S         1.2303110     0.0000000     0.0000000     0.0000000     0.0000000
   1 S        -1.7673642     0.0000000     0.0000000     0.0000000    -0.0000000
   1 PX        0.0000000     0.0491381     0.0000000     0.0000000     0.0000000
   1 PY        0.0000000     0.0000000     0.0491381     0.0000000     0.0000000
   1 PZ        0.0000000     0.0000000     0.0000000     0.0409878     0.0000000
   1 PX        0.0000000    -0.1816415     0.0000000     0.0000000     0.0000000
   1 PY        0.0000000     0.0000000    -0.1816415     0.0000000     0.0000000
   1 PZ        0.0000000     0.0000000     0.0000000    -0.1829119     0.0000000
   1 PX        0.0000000     0.6732697     0.0000000     0.0000000     0.0000000
   1 PY        0.0000000     0.0000000     0.6732697     0.0000000     0.0000000
   1 PZ        0.0000000     0.0000000     0.0000000     0.6595700     0.0000000
   1 PX        0.0000000    -1.2904490     0.0000000     0.0000000     0.0000000
   1 PY        0.0000000     0.0000000    -1.2904490     0.0000000     0.0000000
   1 PZ        0.0000000     0.0000000     0.0000000    -1.2866988     0.0000000
   1 DX2      -0.0001238     0.0000000     0.0000000     0.0000000     0.0011101
   1 DXY       0.0000000     0.0000000     0.0000000     0.0000000     0.0000000
   1 DXZ       0.0000000     0.0000000     0.0000000     0.0000000     0.0000000
   1 DY2      -0.0001238     0.0000000     0.0000000     0.0000000    -0.0011101
   1 DYZ       0.0000000     0.0000000     0.0000000     0.0000000     0.0000000
   1 DZZ       0.0002475     0.0000000     0.0000000     0.0000000    -0.0000000
   1 DX2       0.0066202     0.0000000     0.0000000     0.0000000    -0.1176513
   1 DXY       0.0000000     0.0000000     0.0000000     0.0000000     0.0000000
   1 DXZ       0.0000000     0.0000000     0.0000000     0.0000000     0.0000000
   1 DY2       0.0066202     0.0000000     0.0000000     0.0000000     0.1176513
   1 DYZ       0.0000000     0.0000000     0.0000000     0.0000000     0.0000000
   1 DZZ      -0.0132404     0.0000000     0.0000000     0.0000000     0.0000000
   1 DX2      -0.0270803     0.0000000     0.0000000     0.0000000     0.5406516
   1 DXY       0.0000000     0.0000000     0.0000000     0.0000000     0.0000000
   1 DXZ       0.0000000     0.0000000     0.0000000     0.0000000     0.0000000
   1 DY2      -0.0270803     0.0000000     0.0000000     0.0000000    -0.5406516
   1 DYZ       0.0000000     0.0000000     0.0000000     0.0000000     0.0000000
   1 DZZ       0.0541606     0.0000000     0.0000000     0.0000000    -0.0000000
--------------------------------------------------------------------------------
Eigenvalue      3.171118      3.171118      3.191399      3.282780      4.031909
 Symmetry           g             g            Ag            Ag            Ag    
--------------------------------------------------------------------------------
   1 S         0.0000000     0.0000000     0.0027426     0.0000000     0.0815681
   1 S         0.0000000     0.0000000    -0.0045670     0.0000000     0.0209993
   1 S         0.0000000     0.0000000    -0.0259282     0.0000000    -0.5559078
   1 S         0.0000000     0.0000000     0.1357711     0.0000000     1.6534879
   1 S         0.0000000     0.0000000    -0.1646340     0.0000000    -0.6620818
   1 PX        0.0000000     0.0000000     0.0000000     0.0000000     0.0000000
   1 PY        0.0000000     0.0000000     0.0000000     0.0000000     0.0000000
   1 PZ        0.0000000     0.0000000     0.0000000     0.0000000     0.0000000
   1 PX        0.0000000     0.0000000     0.0000000     0.0000000     0.0000000
   1 PY        0.0000000     0.0000000     0.0000000     0.0000000     0.0000000
   1 PZ        0.0000000     0.0000000     0.0000000     0.0000000     0.0000000
   1 PX        0.0000000     0.0000000     0.0000000     0.0000000     0.0000000
   1 PY        0.0000000     0.0000000     0.0000000     0.0000000     0.0000000
   1 PZ        0.0000000     0.0000000     0.0000000     0.0000000     0.0000000
   1 PX        0.0000000     0.0000000     0.0000000     0.0000000     0.0000000
   1 PY        0.0000000     0.0000000     0.0000000     0.0000000     0.0000000
   1 PZ        0.0000000     0.0000000     0.0000000     0.0000000     0.0000000
   1 DX2       0.0000000     0.0000000     0.0006439     0.0000000    -0.0000286
   1 DXY       0.0000000     0.0000000     0.0000000     0.0022934     0.0000000
   1 DXZ       0.0022532     0.0000000     0.0000000     0.0000000     0.0000000
   1 DY2       0.0000000     0.0000000     0.0006439     0.0000000    -0.0000286
   1 DYZ       0.0000000     0.0022532     0.0000000     0.0000000     0.0000000
   1 DZZ       0.0000000     0.0000000    -0.0012878     0.0000000     0.0000572
   1 DX2       0.0000000     0.0000000    -0.0679385     0.0000000     0.0177453
   1 DXY       0.0000000     0.0000000     0.0000000    -0.2400124     0.0000000
   1 DXZ      -0.2366800     0.0000000     0.0000000     0.0000000     0.0000000
   1 DY2       0.0000000     0.0000000    -0.0679385     0.0000000     0.0177453
   1 DYZ       0.0000000    -0.2366800     0.0000000     0.0000000     0.0000000
   1 DZZ       0.0000000     0.0000000     0.1358770     0.0000000    -0.0354906
   1 DX2       0.0000000     0.0000000     0.3110053     0.0000000    -0.0095242
   1 DXY       0.0000000     0.0000000     0.0000000     1.0824607     0.0000000
   1 DXZ       1.0816438     0.0000000     0.0000000     0.0000000     0.0000000
   1 DY2       0.0000000     0.0000000     0.3110053     0.0000000    -0.0095242
   1 DYZ       0.0000000     1.0816438     0.0000000     0.0000000     0.0000000
   1 DZZ       0.0000000     0.0000000    -0.6220107     0.0000000     0.0190484
--------------------------------------------------------------------------------
Eigenvalue      4.102644      4.310918      4.310918      4.774936      4.779690
 Symmetry          Au             u             u            Ag            Ag    
--------------------------------------------------------------------------------
   1 S         0.0000000     0.0000000     0.0000000     0.0000000    -0.0000000
   1 S         0.0000000     0.0000000     0.0000000     0.0000000     0.0000000
   1 S         0.0000000     0.0000000     0.0000000     0.0000000    -0.0000000
   1 S         0.0000000     0.0000000     0.0000000     0.0000000     0.0000000
   1 S         0.0000000     0.0000000     0.0000000     0.0000000     0.0000000
   1 PX        0.0000000     0.1896810     0.0000000     0.0000000     0.0000000
   1 PY        0.0000000     0.0000000     0.1896810     0.0000000     0.0000000
   1 PZ        0.2136038     0.0000000     0.0000000     0.0000000     0.0000000
   1 PX        0.0000000     0.4681082     0.0000000     0.0000000     0.0000000
   1 PY        0.0000000     0.0000000     0.4681082     0.0000000     0.0000000
   1 PZ        0.3496149     0.0000000     0.0000000     0.0000000     0.0000000
   1 PX        0.0000000    -1.4962732     0.0000000     0.0000000     0.0000000
   1 PY        0.0000000     0.0000000    -1.4962732     0.0000000     0.0000000
   1 PZ       -1.4369934     0.0000000     0.0000000     0.0000000     0.0000000
   1 PX        0.0000000     0.4252515     0.0000000     0.0000000     0.0000000
   1 PY        0.0000000     0.0000000     0.4252515     0.0000000     0.0000000
   1 PZ        0.4193964     0.0000000     0.0000000     0.0000000     0.0000000
   1 DX2       0.0000000     0.0000000     0.0000000     0.0000000     0.0117736
   1 DXY       0.0000000     0.0000000     0.0000000     0.0234780     0.0000000
   1 DXZ       0.0000000     0.0000000     0.0000000     0.0000000     0.0000000
   1 DY2       0.0000000     0.0000000     0.0000000     0.0000000    -0.0117736
   1 DYZ       0.0000000     0.0000000     0.0000000     0.0000000     0.0000000
   1 DZZ       0.0000000     0.0000000     0.0000000     0.0000000     0.0000000
   1 DX2       0.0000000     0.0000000     0.0000000     0.0000000     0.5429283
   1 DXY       0.0000000     0.0000000     0.0000000     1.0848437     0.0000000
   1 DXZ       0.0000000     0.0000000     0.0000000     0.0000000     0.0000000
   1 DY2       0.0000000     0.0000000     0.0000000     0.0000000    -0.5429283
   1 DYZ       0.0000000     0.0000000     0.0000000     0.0000000     0.0000000
   1 DZZ       0.0000000     0.0000000     0.0000000     0.0000000     0.0000000
   1 DX2       0.0000000     0.0000000     0.0000000     0.0000000    -0.1342983
   1 DXY       0.0000000     0.0000000     0.0000000    -0.2639334     0.0000000
   1 DXZ       0.0000000     0.0000000     0.0000000     0.0000000     0.0000000
   1 DY2       0.0000000     0.0000000     0.0000000     0.0000000     0.1342983
   1 DYZ       0.0000000     0.0000000     0.0000000     0.0000000     0.0000000
   1 DZZ       0.0000000     0.0000000     0.0000000     0.0000000    -0.0000000
--------------------------------------------------------------------------------
Eigenvalue      4.847071      4.847071      4.872063      5.976619      6.495954
 Symmetry           g             g            Ag            Au             u    
--------------------------------------------------------------------------------
   1 S         0.0000000     0.0000000     0.0022455     0.0000000     0.0000000
   1 S         0.0000000     0.0000000     0.0009704     0.0000000     0.0000000
   1 S         0.0000000     0.0000000    -0.0211162     0.0000000     0.0000000
   1 S         0.0000000     0.0000000     0.0894452     0.0000000     0.0000000
   1 S         0.0000000     0.0000000    -0.0387576     0.0000000     0.0000000
   1 PX        0.0000000     0.0000000     0.0000000     0.0000000     0.0000000
   1 PY        0.0000000     0.0000000     0.0000000     0.0000000     0.9166619
   1 PZ        0.0000000     0.0000000     0.0000000     0.8611083     0.0000000
   1 PX        0.0000000     0.0000000     0.0000000     0.0000000     0.0000000
   1 PY        0.0000000     0.0000000     0.0000000     0.0000000    -1.6723411
   1 PZ        0.0000000     0.0000000     0.0000000    -1.7113767     0.0000000
   1 PX        0.0000000     0.0000000     0.0000000     0.0000000     0.0000000
   1 PY        0.0000000     0.0000000     0.0000000     0.0000000     0.9844207
   1 PZ        0.0000000     0.0000000     0.0000000     1.0775322     0.0000000
   1 PX        0.0000000     0.0000000     0.0000000     0.0000000     0.0000000
   1 PY        0.0000000     0.0000000     0.0000000     0.0000000    -0.2675401
   1 PZ        0.0000000     0.0000000     0.0000000    -0.2938809     0.0000000
   1 DX2       0.0000000     0.0000000    -0.0062872     0.0000000     0.0000000
   1 DXY       0.0000000     0.0000000     0.0000000     0.0000000     0.0000000
   1 DXZ       0.0000000     0.0222618     0.0000000     0.0000000     0.0000000
   1 DY2       0.0000000     0.0000000    -0.0062872     0.0000000     0.0000000
   1 DYZ       0.0222618     0.0000000     0.0000000     0.0000000     0.0000000
   1 DZZ       0.0000000     0.0000000     0.0125744     0.0000000     0.0000000
   1 DX2       0.0000000     0.0000000    -0.3129564     0.0000000     0.0000000
   1 DXY       0.0000000     0.0000000     0.0000000     0.0000000     0.0000000
   1 DXZ       0.0000000     1.0857616     0.0000000     0.0000000     0.0000000
   1 DY2       0.0000000     0.0000000    -0.3129564     0.0000000     0.0000000
   1 DYZ       1.0857616     0.0000000     0.0000000     0.0000000     0.0000000
   1 DZZ       0.0000000     0.0000000     0.6259128     0.0000000     0.0000000
   1 DX2       0.0000000     0.0000000     0.0768288     0.0000000     0.0000000
   1 DXY       0.0000000     0.0000000     0.0000000     0.0000000     0.0000000
   1 DXZ       0.0000000    -0.2672999     0.0000000     0.0000000     0.0000000
   1 DY2       0.0000000     0.0000000     0.0768288     0.0000000     0.0000000
   1 DYZ      -0.2672999     0.0000000     0.0000000     0.0000000     0.0000000
   1 DZZ       0.0000000     0.0000000    -0.1536576     0.0000000     0.0000000
--------------------------------------------------------------------------------
Eigenvalue      6.495954      9.361585     11.706314     11.706382     11.791176
 Symmetry           u            Ag            Ag            Ag             g    
--------------------------------------------------------------------------------
   1 S         0.0000000     0.0441600     0.0000000    -0.0000000     0.0000000
   1 S         0.0000000    -1.9819952     0.0000000    -0.0000000     0.0000000
   1 S         0.0000000    -2.1023295     0.0000000    -0.0000000     0.0000000
   1 S         0.0000000     0.7398785     0.0000000     0.0000000     0.0000000
   1 S         0.0000000    -0.3520783     0.0000000    -0.0000000     0.0000000
   1 PX        0.9166619     0.0000000     0.0000000     0.0000000     0.0000000
   1 PY        0.0000000     0.0000000     0.0000000     0.0000000     0.0000000
   1 PZ        0.0000000     0.0000000     0.0000000     0.0000000     0.0000000
   1 PX       -1.6723411     0.0000000     0.0000000     0.0000000     0.0000000
   1 PY        0.0000000     0.0000000     0.0000000     0.0000000     0.0000000
   1 PZ        0.0000000     0.0000000     0.0000000     0.0000000     0.0000000
   1 PX        0.9844207     0.0000000     0.0000000     0.0000000     0.0000000
   1 PY        0.0000000     0.0000000     0.0000000     0.0000000     0.0000000
   1 PZ        0.0000000     0.0000000     0.0000000     0.0000000     0.0000000
   1 PX       -0.2675401     0.0000000     0.0000000     0.0000000     0.0000000
   1 PY        0.0000000     0.0000000     0.0000000     0.0000000     0.0000000
   1 PZ        0.0000000     0.0000000     0.0000000     0.0000000     0.0000000
   1 DX2       0.0000000    -0.0030132     0.0000000     0.5034962     0.0000000
   1 DXY       0.0000000     0.0000000     1.0069938     0.0000000     0.0000000
   1 DXZ       0.0000000     0.0000000     0.0000000     0.0000000     0.0000000
   1 DY2       0.0000000    -0.0030132     0.0000000    -0.5034962     0.0000000
   1 DYZ       0.0000000     0.0000000     0.0000000     0.0000000     1.0070215
   1 DZZ       0.0000000     0.0060265     0.0000000    -0.0000000     0.0000000
   1 DX2       0.0000000     0.0000708     0.0000000    -0.0794493     0.0000000
   1 DXY       0.0000000     0.0000000    -0.1587724     0.0000000     0.0000000
   1 DXZ       0.0000000     0.0000000     0.0000000     0.0000000     0.0000000
   1 DY2       0.0000000     0.0000708     0.0000000     0.0794493     0.0000000
   1 DYZ       0.0000000     0.0000000     0.0000000     0.0000000    -0.1574952
   1 DZZ       0.0000000    -0.0001417     0.0000000     0.0000000     0.0000000
   1 DX2       0.0000000    -0.0001902     0.0000000     0.0257047     0.0000000
   1 DXY       0.0000000     0.0000000     0.0512007     0.0000000     0.0000000
   1 DXZ       0.0000000     0.0000000     0.0000000     0.0000000     0.0000000
   1 DY2       0.0000000    -0.0001902     0.0000000    -0.0257047     0.0000000
   1 DYZ       0.0000000     0.0000000     0.0000000     0.0000000     0.0510001
   1 DZZ       0.0000000     0.0003803     0.0000000    -0.0000000     0.0000000
--------------------------------------------------------------------------------
Eigenvalue     11.791176     11.820279
 Symmetry           g            Ag    
--------------------------------------------------------------------------------
   1 S         0.0000000     0.0027561
   1 S         0.0000000    -0.0178621
   1 S         0.0000000    -0.0279014
   1 S         0.0000000     0.0095907
   1 S         0.0000000    -0.0047439
   1 PX        0.0000000     0.0000000
   1 PY        0.0000000     0.0000000
   1 PZ        0.0000000     0.0000000
   1 PX        0.0000000     0.0000000
   1 PY        0.0000000     0.0000000
   1 PZ        0.0000000     0.0000000
   1 PX        0.0000000     0.0000000
   1 PY        0.0000000     0.0000000
   1 PZ        0.0000000     0.0000000
   1 PX        0.0000000     0.0000000
   1 PY        0.0000000     0.0000000
   1 PZ        0.0000000     0.0000000
   1 DX2       0.0000000     0.2906805
   1 DXY       0.0000000     0.0000000
   1 DXZ       1.0070215     0.0000000
   1 DY2       0.0000000     0.2906805
   1 DYZ       0.0000000     0.0000000
   1 DZZ       0.0000000    -0.5813610
   1 DX2       0.0000000    -0.0453223
[...]
 [   5]-0.0000000000
  Convergence information after    37 iterations: 
  Largest element of residual vector : -0.71724571E+66.
  Largest element of DIIS residual   :  0.20310697E+26.
  W(mnij) AB contribution =************** a.u.
  W(abef) AB contribution =************** a.u.
  W(mbej) AB contribution =************** a.u.
   After  38 iterations, amplitude changes are:
    -------------------------------------------------------------------
                 Spin      RMS          Max.      Max. change for
     Amplitude   Case     Change       Change       i    j    a    b
    -------------------------------------------------------------------
        T1        AA   **************************    3        12
        T2        AA   **************************    6    3   20   12
        T2        AB   **************************    3    3   12   12
    -------------------------------------------------------------------
   The AA contribution to the correlation energy is: ************ a.u.
   The AB contribution to the correlation energy is: ************ a.u.
   The total correlation energy is *************** a.u.
   The total correlation energy is *************** a.u.
  Current DIIS expansion coefficients : 
 [   1]-0.0000000000 [   2]-0.0000000000 [   3] 0.0000000000 [   4] 1.0000000000
 [   5]-0.0000000000
  Convergence information after    38 iterations: 
  Largest element of residual vector : -0.13353012E+67.
  Largest element of DIIS residual   :  0.32200569E+26.
  W(mnij) AB contribution =************** a.u.
  W(abef) AB contribution =************** a.u.
  W(mbej) AB contribution =************** a.u.
   After  39 iterations, amplitude changes are:
    -------------------------------------------------------------------
                 Spin      RMS          Max.      Max. change for
     Amplitude   Case     Change       Change       i    j    a    b
    -------------------------------------------------------------------
        T1        AA   **************************    3        12
        T2        AA   **************************    6    3   20   12
        T2        AB   **************************    3    3   12   12
    -------------------------------------------------------------------
   The AA contribution to the correlation energy is: ************ a.u.
   The AB contribution to the correlation energy is: ************ a.u.
   The total correlation energy is *************** a.u.
   The total correlation energy is *************** a.u.
  Current DIIS expansion coefficients : 
 [   1] 0.0052106891 [   2] 0.0000000000 [   3]-0.0000000000 [   4] 0.0000000000
 [   5] 0.9947893109
  Convergence information after    39 iterations: 
  Largest element of residual vector : -0.41987591E+66.
  Largest element of DIIS residual   : -0.24968190E+36.
  W(mnij) AB contribution =************** a.u.
  W(abef) AB contribution =************** a.u.
  W(mbej) AB contribution =************** a.u.
   After  40 iterations, amplitude changes are:
    -------------------------------------------------------------------
                 Spin      RMS          Max.      Max. change for
     Amplitude   Case     Change       Change       i    j    a    b
    -------------------------------------------------------------------
        T1        AA   **************************    3        12
        T2        AA   **************************    6    3   20   12
        T2        AB   **************************    3    3   12   12
    -------------------------------------------------------------------
   The AA contribution to the correlation energy is: ************ a.u.
   The AB contribution to the correlation energy is: ************ a.u.
   The total correlation energy is *************** a.u.
   The total correlation energy is *************** a.u.
  Current DIIS expansion coefficients : 
 [   1] 1.0000000000 [   2]-0.0000000000 [   3] 0.0000000000 [   4] 0.0000000000
 [   5]-0.0000000000
  Convergence information after    40 iterations: 
  Largest element of residual vector : -0.84683841+100.
  Largest element of DIIS residual   :  0.87344357E+37.
   Largest T1 amplitudes for spin case AA:
   i       a                 i       a                 i       a    
-----------------------------------------------------------------------------
[  3      12    ]******** [  3      14    ]******** [  2      12    ]********
[  3      13    ]******** [  6      20    ]******** [  2      14    ]********
[  1      12    ]******** [  4      18    ]******** [  2      13    ]********
[  1      14    ]******** [ 11      27    ]******** [  5      20    ]********
[  6      21    ]******** [  4      19    ]******** [  1      13    ]********
-----------------------------------------------------------------------------
   Norm of T1AA vector (       28 symmetry allowed elements):**************.
-----------------------------------------------------------------------------
   Largest T2 amplitudes for spin case AB:
       _       _                 _       _                 _       _
   i   j   a   b             i   j   a   b             i   j   a   b
-----------------------------------------------------------------------------
[  9   3  27  20]******** [  3   9  20  27]******** [  9   6  12  27]********
[  6   9  27  12]******** [  9   4  12  25]******** [  4   9  25  12]********
[  9   6  27  12]******** [  6   9  12  27]******** [  9   3  18  25]********
[  3   9  25  18]******** [  9   3  25  18]******** [  3   9  18  25]********
[  9   4  25  12]******** [  4   9  12  25]******** [  9   3  20  27]********
-----------------------------------------------------------------------------
   Norm of T2AB vector (     4477 symmetry allowed elements):**************.
-----------------------------------------------------------------------------
  W(mnij) AB contribution =************** a.u.
  W(abef) AB contribution =************** a.u.
  W(mbej) AB contribution =************** a.u.
   After  41 iterations, amplitude changes are:
    -------------------------------------------------------------------
                 Spin      RMS          Max.      Max. change for
     Amplitude   Case     Change       Change       i    j    a    b
    -------------------------------------------------------------------
        T1        AA   **************************    3        12
        T2        AA   **************************    6    3   20   12
        T2        AB   **************************    3    3   12   12
    -------------------------------------------------------------------
   The AA contribution to the correlation energy is: ************ a.u.
   The AB contribution to the correlation energy is: ************ a.u.
   The total correlation energy is *************** a.u.
   The total correlation energy is *************** a.u.
  Current DIIS expansion coefficients : 
 [   1]          NaN [   2]          NaN [   3]          NaN [   4]          NaN
 [   5]          NaN
  Convergence information after    41 iterations: 
  Largest element of residual vector : -0.21043439+108.
  Largest element of DIIS residual   :  0.00000000E+00.
  W(mnij) AB contribution =           NaN a.u.
  W(abef) AB contribution =           NaN a.u.
  W(mbej) AB contribution =           NaN a.u.
   After  42 iterations, amplitude changes are:
    -------------------------------------------------------------------
                 Spin      RMS          Max.      Max. change for
     Amplitude   Case     Change       Change       i    j    a    b
    -------------------------------------------------------------------
        T1        AA             NaN 0.0000000000    3        22
        T2        AA             NaN          NaN    9    3   28   21
        T2        AB             NaN          NaN    9    7   23   23
    -------------------------------------------------------------------
   The AA contribution to the correlation energy is:          NaN a.u.
   The AB contribution to the correlation energy is:          NaN a.u.
   The total correlation energy is             NaN a.u.
   The total correlation energy is             NaN a.u.
  Current DIIS expansion coefficients : 
 [   1]          NaN [   2]          NaN [   3]          NaN [   4]          NaN
 [   5]          NaN
  Convergence information after    42 iterations: 
  Largest element of residual vector :  0.00000000E+00.
  Largest element of DIIS residual   :  0.00000000E+00.
  Amplitude equations converged in    42iterations.
   The AA contribution to the correlation energy is:          NaN a.u.
   The AB contribution to the correlation energy is:          NaN a.u.
   The total correlation energy is             NaN a.u.
   The total correlation energy is             NaN a.u.
   The CC iterations have converged.

   Largest T1 amplitudes for spin case AA:
   i       a                 i       a                 i       a    
-----------------------------------------------------------------------------
[  1      12    ]     NaN [  1      11    ] 0.00000 [  1      11    ] 0.00000
[  1      11    ] 0.00000 [  1      11    ] 0.00000 [  1      11    ] 0.00000
[  1      11    ] 0.00000 [  1      11    ] 0.00000 [  1      11    ] 0.00000
[  1      11    ] 0.00000 [  1      11    ] 0.00000 [  1      11    ] 0.00000
[  1      11    ] 0.00000 [  1      11    ] 0.00000 [  1      11    ] 0.00000
-----------------------------------------------------------------------------
   Norm of T1AA vector (       28 symmetry allowed elements):           NaN.
-----------------------------------------------------------------------------
   Largest T2 amplitudes for spin case AB:
       _       _                 _       _                 _       _
   i   j   a   b             i   j   a   b             i   j   a   b
-----------------------------------------------------------------------------
[  1   1  12  12]     NaN [  0   0   0   0] 0.00000 [  0   0   0   0] 0.00000
[  0   0   0   0] 0.00000 [  0   0   0   0] 0.00000 [  0   0   0   0] 0.00000
[  0   0   0   0] 0.00000 [  0   0   0   0] 0.00000 [  0   0   0   0] 0.00000
[  0   0   0   0] 0.00000 [  0   0   0   0] 0.00000 [  0   0   0   0] 0.00000
[  0   0   0   0] 0.00000 [  0   0   0   0] 0.00000 [  0   0   0   0] 0.00000
-----------------------------------------------------------------------------
   Norm of T2AB vector (     4477 symmetry allowed elements):           NaN.
-----------------------------------------------------------------------------
       Summary of iterative solution of CC equations 
      -----------------------------------------------------------
                       Correlation           Total
       Iteration         Energy              Energy
      -----------------------------------------------------------
            0        -0.037256226110    -164.986463113360  DIIS 
            1        -0.257678349353    -165.206885236603  DIIS 
            2         1.522562176240    -163.426644711011  DIIS 
            3         0.050970310974    -164.898236576277  DIIS 
            4         0.081621025520    -164.867585861730  DIIS 
            5         0.080353314734    -164.868853572517  DIIS 
            6         0.104461328476    -164.844745558774  DIIS 
            7        -1.525786560345    -166.474993447595  DIIS 
            8        -1.116397394377    -166.065604281627  DIIS 
            9        -1.283944518505    -166.233151405755  DIIS 
           10        -1.349253690936    -166.298460578186  DIIS 
           11        -1.086805149583    -166.036012036834  DIIS 
           12        -5.069821291562    -170.019028178812  DIIS 
           13        -5.292640347123    -170.241847234373  DIIS 
           14         0.614634081154    -164.334572806096  DIIS 
           15        -5.681849518294    -170.631056405545  DIIS 
           16        -1.279293699851    -166.228500587101  DIIS 
           17       -56.707496759836    -221.656703647086  DIIS 
           18       -62.799989587268    -227.749196474519  DIIS 
           19       -69.991331517411    -234.940538404661  DIIS 
           20      -591.434105535509    -756.383312422760  DIIS 
           21      -247.446566762216    -412.395773649466  DIIS 
           22     32757.322806158201   32592.373599270952  DIIS 
           23     35453.659944607854   35288.710737720605  DIIS 
           24     ******************  -27644.842559547324  DIIS 
           25     ******************  *******************  DIIS 
           26     ******************  *******************  DIIS 
           27     ******************  *******************  DIIS 
           28     ******************  *******************  DIIS 
           29     ******************  *******************  DIIS 
           30     ******************  *******************  DIIS 
           31     ******************  *******************  DIIS 
           32     ******************  *******************  DIIS 
           33     ******************  *******************  DIIS 
           34     ******************  *******************  DIIS 
           35     ******************  *******************  DIIS 
           36     ******************  *******************  DIIS 
           37     ******************  *******************  DIIS 
           38     ******************  *******************  DIIS 
           39     ******************  *******************  DIIS 
           40     ******************  *******************  DIIS 
           41     ******************  *******************  DIIS 
           42                    NaN                  NaN  DIIS 
      -----------------------------------------------------------
      A miracle has come to pass. The CC iterations have converged.
 @DIMT3-I, Dimensions of T3 amplitudes : 
               # abc          # ijk       Symmetry    Spin 
                       86             22     1          1
                       86             18     2          1
                       86             22     3          1
                      106             18     4          1
                       72             22     5          1
                       86             18     6          1
                       86             27     7          1
                       72             18     8          1
                      354             96     1          2
                      290             64     2          2
                      290             86     3          2
                      366             54     4          2
                      216             96     5          2
                      290             64     6          2
                      290             91     7          2
                      216             54     8          2
                      354             96     1          3
                      290             64     2          3
                      290             86     3          3
                      366             54     4          3
                      216             96     5          3
                      290             64     6          3
                      290             91     7          3
                      216             54     8          3
                       86             22     1          4
                       86             18     2          4
                       86             22     3          4
                      106             18     4          4
                       72             22     5          4
                       86             18     6          4
                       86             27     7          4
                       72             18     8          4
 @DIMT3-I, Dimensions of T3 amplitudes : 
               # abc          # ijk       Symmetry    Spin 
                       86             22     1          1
                       86             18     2          1
                       86             22     3          1
                      106             18     4          1
                       72             22     5          1
                       86             18     6          1
                       86             27     7          1
                       72             18     8          1
                      354             96     1          2
                      290             64     2          2
                      290             86     3          2
                      366             54     4          2
                      216             96     5          2
                      290             64     6          2
                      290             91     7          2
                      216             54     8          2
                      354             96     1          3
                      290             64     2          3
                      290             86     3          3
                      366             54     4          3
                      216             96     5          3
                      290             64     6          3
                      290             91     7          3
                      216             54     8          3
                       86             22     1          4
                       86             18     2          4
                       86             22     3          4
                      106             18     4          4
                       72             22     5          4
                       86             18     6          4
                       86             27     7          4
                       72             18     8          4
 @TRPS-I, Welcome to TRPS. Watch your RUs ! 
 @TRPS-I, Method is CCSD(T) 
 @TRPS-I, Calculation type is energy 
 @TRPS-I, Reference function information : 
          Reference function is Hartree-Fock 
          Reference function is RHF Hartree-Fock 
 @TRPS-I, INT1 is true 
 @TRPS-I, INT2 is false 
 @TRPS-I, Lengths of ijka integrals. #1       1348
                                     #2       1348
                                     #3       3004
                                     #4       3004
                                    Max       3004
 @INITRP-I, Initializing W intermediate lists. 
 @SETOOOV-I, Some OOOV lists are being transposed. 
 @TRPS-I, Available memory in integer words   1499959040
          Number of pre-allocated words for TRPS2         3186
          Number of free words for TRPS2   1499955854
 @TRPS2-I, Spin case AAB 
 @TRPS2-I, Number of free integer words 1499955854
           Number of free double  words 1499955854
           Ratio                                 1
 @TRPS2-I, E4TBAA                  NaN
  @TRPS2-I, E4TAAA                      NaN
 @TRPS2-I, E5ST A                  NaN
 @TRPS2-I, E5ST B                  NaN
 @SETOOOV-I, Some OOOV lists are being transposed. 
 @CCENRG-I, CCSD/QCISD energy will now be evaluated. 
 @CCENRG-I, Correlation energies. ECCAA                   NaN
                                  ECCBB        0.000000000000
                                  ECCAB                   NaN
                                  Total                   NaN
 @CCENRG-I, Reference   energy    -164.949206887250
            CCSD/QCISD energy                   NaN
          E4T (T(CCSD)) =             NaN
          E5ST          =             NaN
          E4ST          =  0.000000000000
          In other words  
          <T3[2](Dagger) D3  T3[2]> =             NaN
          <T1   (Dagger) Q1 WT3[2]> =             NaN
          <T2   (Dagger) Q2 FT3[2]> =  0.000000000000
        E(CCSD)           =                  NaN
        E(CCSD + T(CCSD)) =                  NaN
        E(CCSD(T))        =                  NaN
  @CHECKOUT-I, Total execution time (CPU/WALL):        1.30/       2.43 seconds.
--executable xvcc finished with status     0 in        2.51 seconds (walltime).
  The final electronic energy is                       NaN a.u. 
  This computation required                            8.06 seconds (walltime).
