 --invoking executable--
/home/nike/cfour_v2.00beta/bin/xjoda


   *************************************************************************
         <<<     CCCCCC     CCCCCC   |||     CCCCCC     CCCCCC   >>>
       <<<      CCC        CCC       |||    CCC        CCC         >>>
      <<<      CCC        CCC        |||   CCC        CCC            >>>
    <<<        CCC        CCC        |||   CCC        CCC              >>>
      <<<      CCC        CCC        |||   CCC        CCC            >>>
       <<<      CCC        CCC       |||    CCC        CCC         >>>
         <<<     CCCCCC     CCCCCC   |||     CCCCCC     CCCCCC   >>>
   *************************************************************************

     ****************************************************************
     * CFOUR Coupled-Cluster techniques for Computational Chemistry *
     ****************************************************************
 

   Department of Chemistry                Institut fuer Physikalische Chemie
   University of Texas at Austin          Universitaet Mainz
   Austin, TX  78712, USA                 D-55099 Mainz, Germany
 
                       Version 2.00beta
 
                     wob141                                            
                     Wed Mar 27 22:21:50 EDT 2019                      
                     integer*8 version is running
 
********************************************************************************
*                          Input from ZMAT file                                *
********************************************************************************
TITLE                                                                           
O                                                                               
H 1 R                                                                           
H 1 R 2 A                                                                       
                                                                                
R=0.9576257                                                                     
A=104.51                                                                        
                                                                                
*ACES2(CALC=CCSD                                                                
PRINT=4                                                                         
JODA_PRINT=4                                                                    
INPUT_MRCC=OFF                                                                  
CC_PROG=MRCC                                                                    
FROZEN_CORE=ON                                                                  
#DROPMO=1>5                                                                     
CONTRACTION=GENERAL                                                             
RELATIVISTIC=OFF                                                                
EXCITE=EOMEE                                                                    
ESTATE_CONV=5                                                                   
ESTATE_SYM=2/2/2/2/2/2/2/2                                                      
XFORM_TOL=18                                                                    
SAVE_INTS=ON                                                                    
SCF_EXPORDER=6                                                                  
SCF_EXPSTART=5                                                                  
#SCF_DAMPING=1000                                                               
SCF_EXTRAPOLATION=ON                                                            
SCF_CONV=12                                                                     
SCF_MAXCYC=9999                                                                 
CC_CONV=10                                                                      
CC_MAXCYC=999                                                                   
T3_EXTRAPOL=ON                                                                  
REFERENCE=RHF                                                                   
CHARGE=+0                                                                       
MULT=1                                                                          
ABCDTYPE=STANDARD                                                               
#OCCUPATION=3-2-2-0-1-0-0-0/3-1-1-0-1-0-0-0                                     
MEM=4                                                                           
MEM_UNIT=GB                                                                     
BASIS=SPECIAL)                                                                  
                                                                                
O:VTZ-EMSL                                                                      
H:VTZ-EMSL                                                                      
H:VTZ-EMSL                                                                      
                                                                                
********************************************************************************
  @GTFLGS-W, Keyword #DROPMO not known and is ignored.
  @GTFLGS-W, Keyword #SCF_DAMPING not known and is ignored.
  @GTFLGS-W, Keyword #OCCUPATION not known and is ignored.
    -------------------------------------------------------------------
                    CFOUR Control Parameters 
    -------------------------------------------------------------------
        External           Internal           Value            Units
          Name               Name
    -------------------------------------------------------------------
       ABCDTYPE             IABCDT         STANDARD     [  0]   ***   
       ANHARMONIC           IANHAR         OFF          [  0]   ***   
       ANH_ALGORIT          IANALG         STANDARD     [  0]   ***   
       ANH_DERIVAT          IANDER         SECOND       [  1]   ***   
       ANH_STEPSIZ          ICUBST             50000          x 10-6  
       ANH_SYMMETR          IANHSM         ABELIAN      [  0]   ***   
       AO_LADDERS           IAOLAD         SINGLEPASS   [  1]   ***   
       BASIS                IBASIS         SPECIAL      [  0]   ***   
       BREIT                IBREIT         OFF          [  0]   ***   
       BRUCK_CONV           IBRTOL          10D-  4             ***   
       BRUECKNER            IBRKNR             OFF      [  0]   ***   
       BUFFERSIZE           IBUFFS            600               ***   
       CACHE_RECS           ICHREC             10               ***   
       CALCLEVEL            ICLLVL           CCSD       [ 10]   ***   
       CCORBOPT             ICCORB             OFF      [  0] x 0.01  
       CC_CONV              ICCCNV          10D- 10             ***   
       CC_EXPORDER          ICCEOR              5               ***   
       CC_EXTRAPOL          ICCEXT             DIIS     [  1]   ***   
       CC_MAXCYC            ICCCYC            999              cycles 
       CC_PROGRAM           ICCPRO         MRCC         [  2]   ***   
       CHARGE               ICHRGE              0               ***   
       CHOLESKY             ICHOLE         OFF          [  0]   ***   
       CIS_CONV             ICISTL              5               ***   
       COMM_SIZE            IPSIZE            ***               ***   
       CONSTANT             ICONST         OLD          [  1]   ***   
       CONTINUUM            ICONTU         NONE         [  0]   ***   
       CONTRACTION          ICNTYP          GENERAL     [  1]   ***   
       COORDINATES          ICOORD         INTERNAL     [  0]   ***   
       CPHF_CONVER          ICPHFT          10D- 16             ***   
       CPHF_MAXCYC          ICPHFC             64              cycles 
       CUBIC                ICUBIC         OFF          [  0]   ***   
       CURVILINEAR          ICURVY            OFF       [  0]   ***   
       DBOC                 IDBOC          OFF          [  0]   ***   
       DCT                  IDCT           OFF          [  0]   ***   
       DERIV_LEV            IDRLVL            ZERO      [  0]   ***   
       DIAG_MRCC            IEOMST          10D-  0             ***   
       DIFF_TYPE            IDIFTY         RELAXED      [  0]   ***   
       DIRECT               IDIRCT         OFF          [  0]   ***   
       DROPMO               IDRPMO      NONE         
       ECP                  IECP           OFF          [  0]   ***   
       EIGENVECTOR          IVEC                1               ***   
       EL_ANHARM            IELANH         OFF          [  0]   ***   
       EOMFOLLOW            IEOMSR         ENERGY       [  0]   ***   
       EOM_MRCC             IMRCCE         NEW          [  1]   ***   
       EOM_NONIT            EOMNON         OFF          [  0]   ***   
       EOM_NSING            IEOMSI          10D-  0             ***   
       EOM_NSTATES          IMRCCD         DAVIDSON     [  0]   ***   
       EOM_NTRIP            IEOMTR          10D-  0             ***   
       EOM_ORDER            IEXORD         ENERGY       [  0]   ***   
       ESTATE_CONV          IEXTOL          10D-  5             ***   
       ESTATE_DIAG          IEXDIG         ITERATIVE    [  0]   ***   
       ESTATE_LOCK          IESLOC         ON           [  1]   ***   
       ESTATE_MAXC          IEXMXC             20               ***   
       ESTATE_PROP          IEXPRP         OFF          [  0]   ***   
       ESTATE_SYM           IEXSYM   2,  2,  2,  2,  2,  2,  2,  2,
       EVAL_HESS            IRECAL              0            # of cyc.
       EXCITATION           IEXCIT              0               ***   
       EXCITE               IEXCIT         EOMEE        [  3]   ***   
       FCGRADNEW            IFCGNW         OFF          [  0]   ***   
       FC_FIELD             IFINFC              0             x 10-6  
       FD_CALTYPE           IFDCAL         GRADONLY     [  0]   ***   
       FD_PROJECT           IFDPRJ         OFF          [  1]   ***   
       FD_STEPSIZE          IDISFD              0            10-4 bohr
       FD_USEGROUP          IFDGRP         FULL         [  0]   ***   
       FILE_RECSIZ          IFLREC              4096           words  
       FINITE_PERT          IFIPER              0             x 10-6  
       FIXGEOM              IFIXGM         OFF          [  0]   ***   
       FOCK                 IFOCK          AO           [  1]   ***   
       FREQ_ALGORI          IVIALG         STANDARD     [  0]   ***   
       FROZEN_CORE          IFROCO         ON           [  1]   ***   
       FROZEN_VIRT          IFROVI         OFF          [  0]   ***   
       GAMMA_ABCD           IGABCD         STORE        [  0]   ***   
       GAMMA_ABCI           IGABCI         STORE        [  0]   ***   
       GENBAS_1             IGNBS1              0               ***   
       GENBAS_2             IGNBS2              0               ***   
       GENBAS_3             IGNBS3              0               ***   
       GENBAS_4             IGNBS4              0               ***   
       GEO_CONV             ICONTL              5              H/bohr 
       GEO_MAXCYC           IOPTCY             50               ***   
       GEO_MAXSTEP          IMXSTP            300            millibohr
       GEO_METHOD           INR            SINGLE_POINT [  5]   ***   
       GIAO                 IGIAO          OFF          [  1]   ***   
       GIMIC                IGIMIC         OFF          [  0]   ***   
       GRID                 IGRID          OFF          [  0]   ***   
       GRID_ALGO            IGALGO         SERIAL       [  0]   ***   
       GUESS                IGUESS            MOREAD    [  0]   ***   
       HBAR                 IHBAR               ON      [  1]   ***   
       HESS_TYPE            IHESTP         SCF          [  0]   ***   
       HF2_FILE             IHF2Fl         USE          [  1]   ***   
       HFSTABILITY          ISTABL         OFF          [  0]   ***   
       INCORE               INCORE             OFF      [  0]   ***   
       INPUT_MRCC           IMRCC          OFF          [  0]   ***   
       INTEGRALS            INTTYP             VMOL     [  1]   ***   
       JODA_PRINT           IJPRNT              4               ***   
       LINDEP_TOL           ILINDP              8               ***   
       LINEQ_CONV           IZTACN          10D-  7           cycles  
       LINEQ_EXPOR          ILMAXD              5               ***   
       LINEQ_MAXCY          ILMAXC             50               ***   
       LINEQ_TYPE           ILTYPE         DIIS         [  1]   ***   
       LOCK_ORBOCC          ILOCOC             OFF      [  0]   ***   
       MEMORY_SIZE          IMEMSZ         500000000           words  
       MEM_UNIT             IMEMU          GB           [  3]   ***   
       MRCC                 IMRCCC         OFF          [  0]   ***   
       MULTIPLICTY          IMULTP              1               ***   
       NEGEVAL              IDIE             ABORT      [  0]   ***   
       NEWNORM              INEWNO         OFF          [  0]   ***   
       NON-HF               INONHF             OFF      [  0]   ***   
       NTOP_TAMP            ITOPT2             15               ***   
       NUC_MODEL            INUCMO         POINT        [  0]   ***   
       OCCUPATION           IOCCU   ESTIMATED BY SCF 
       OPEN-SHELL           IOPEN          SPIN-ORBITAL [  0]   ***   
       ORBITALS             IORBTP           STANDARD   [  0]   ***   
       PARALLEL             IPARAL         ON           [  1]   ***   
       PARA_INT             IPINTS         ON           [  1]   ***   
       PARA_PRINT           IPPRIN              0               ***   
       PERT_ORB             IPTORB         STANDARD     [  0]   ***   
       POINTS               IGRDFD              0               ***   
       PRINT                IPRNT               4               ***   
       PROPS                IPROPS             OFF      [  0]   ***   
       PROP_INTEGR          IINTYP         INTERNAL     [  0]   ***   
       PSI                  IPSI           OFF          [  0]   ***   
       QUARTIC              IQUART         OFF          [  0]   ***   
       RAMAN_INT            IRAMIN         OFF          [  0]   ***   
       RAMAN_ORB            IRAMRE         UNRELAXED    [  0]   ***   
       RDO                  IRDOFM             OFF      [  0]   ***   
       REFERENCE            IREFNC             RHF      [  0]   ***   
       RELATIVIST           IRELAT         OFF          [  0]   ***   
       RELAX_DENS           IRDENS             OFF      [  0]   ***   
       RESET_FLAGS          IRESET             OFF      [  0]   ***   
       RESTART_CC           ICCRES         OFF          [  0]   ***   
       ROT_EVEC             ROTVEC              0               ***   
       SAVE_INTS            ISVINT              ON      [  1]   ***   
       SCALE_ON             ISTCRT              0               ***   
       SCF_CONV             ISCFCV          10D- 12             ***   
       SCF_DAMPING          IDAMP               0             x 10-3  
       SCF_EXPORDE          IRPPOR              6               ***   
       SCF_EXPSTAR          IRPPLS              5               ***   
       SCF_EXTRAPO          IRPP                ON      [  1]   ***   
       SCF_MAXCYC           ISCFCY            ***              cycles 
       SCF_NOSTOP           ISCFST         OFF          [  0]   ***   
       SCF_PRINT            ISCFPR              0               ***   
       SD_FIELD             IFINSD              0             x 10-6  
       SEQUENCE             ISEQUE         OFF          [  0]   ***   
       SOPERT               IPERSO         OFF          [  0]   ***   
       SPHERICAL            IDFGHI             ON       [  1]   ***   
       SPINORBIT            ISOCAL         OFF          [  0]   ***   
       SPINROTATIO          ISRCON         OFF          [  0]   ***   
       SPIN_FLIP            ISPFLP         OFF          [  0]   ***   
       SPIN_ORBIT           ISPORB         OFF          [  0]   ***   
       SPIN_SCAL            ISCSMP         OFF          [  0]   ***   
       SUBGROUP             ISUBGP         DEFAULT      [  0]   ***   
       SUBGRPAXIS           ISBXYZ         X            [  0]   ***   
       SYMMETRY             ISYM             ON         [  0]   ***   
       SYM_CHECK            ISYMCK         OVERRIDE     [  1]   ***   
       T3_EXTRAPOL          IT3EXT         ON           [  1]   ***   
       TAMP_SUM             IEVERY              5               ***   
       TESTSUITE            ITESTS         OFF          [  0]   ***   
       THERMOCH             ITHERM         OFF          [  0]   ***   
       TOL_CHOLESK          ITOLCH          10D-  4             ***   
       TRANGRAD             IRESRM         OFF          [  0]   ***   
       TRANS_INV            ITRAIN         USE          [  0]   ***   
       TREAT_PERT           ITREAT         SIMULTANEOUS [  0]   ***   
       UIJ_THRESHO          IUIJTH              1               ***   
       UNITS                IUNITS         ANGSTROM     [  0]   ***   
       UNOS                 IUNOS          OFF          [  0]   ***   
       UPDATE_HESS          IHUPDT         ON           [  1]   ***   
       VIBPHASE             ISETPH         STANDARD     [  0]   ***   
       VIBRATION            IVIB              NO        [  0]   ***   
       VIB_ALGORIT          IGEALG         STANDARD     [  0]   ***   
       VNATORB              IVNORB         OFF          [  0]   ***   
       VTRAN                IVTRAN         FULL/PARTIAL [  0]   ***   
       XFIELD               IXEFLD              0             x 10-6  
       XFORM_TOL            IXFTOL          10D- 18             ***   
       YFIELD               IYEFLD              0             x 10-6  
       ZFIELD               IZEFLD              0             x 10-6  
    -------------------------------------------------------------------
   3 entries found in Z-matrix 
   Job Title : TITLE                                                                           
 Variable names read by FETCHZ
  1           
  2           
  3           
  4 R         
  5           
  6           
  7 R         
  8 A         
  9           
 Atomic symbols read by FETCHZ
  1 O    
  2 H    
  3 H    
 Connectivity matrix read by FETCHZ
  1   0
  2   0
  3   0
  4   1
  5   0
  6   0
  7   1
  8   2
  9   0
   There are  2 unique internal coordinates.
   Of these,  0 will be optimized.
   User supplied Z-matrix: 
--------------------------------------------------------------------------------
       SYMBOL    BOND      LENGTH    ANGLE     ANGLE     DIHED     ANGLE
                  TO      (ANGST)    WRT      (DEG)      WRT      (DEG)
--------------------------------------------------------------------------------
        O    
        H          1         R    
        H          1         R          2        A    
                  *Initial values for internal coordinates* 
                      Name             Value
                        R               0.9576257000
                        A             104.5100000000
--------------------------------------------------------------------------------
  1  O          8    15.99491
  2  H          1     1.00783
  3  H          1     1.00783
   15.9949146300
    1.0078250350
    1.0078250350
 After translation to center of mass coordinates 
       -0.098033508258    0.000000000000   -0.075891969219
       -0.098033508258    0.000000000000    1.733758712944
        1.653896421974    0.000000000000   -0.529298090715
  Inertia tensor (amu*bohr**2)
    3.40391    0.00000    0.93455
    0.00000    6.32410    0.00000
    0.93455    0.00000    2.92018
    Inertia tensor:
        3.403913567470    0.000000000000    0.934549268627
        0.000000000000    6.324097332824    0.000000000000
        0.934549268627    0.000000000000    2.920183765354
    Principal axis orientation for molecular system: 
        0.000000000000   -0.123976448301    0.000000000000
       -1.430968603519    0.983798098796    0.000000000000
        1.430968603519    0.983798098796    0.000000000000
    Diagonalized inertia tensor:
        2.196708847563    0.000000000000    0.000000000000
        0.000000000000    4.127388485261    0.000000000000
        0.000000000000    0.000000000000    6.324097332824
    Eigenvectors of inertia tensor: 
        0.612148277021    0.790742996769    0.000000000000
        0.000000000000    0.000000000000    1.000000000000
       -0.790742996769    0.612148277021    0.000000000000
 factor:   60.1997200000000     
   Rotational constants (in cm-1): 
          9.5191008031            14.5854261635            27.4045056389
   Rotational constants (in MHz): 
     285375.5027524238        437260.1373131822        821566.5256739719
  @SYMMETRY-I, Handedness of inertial frame:-1.00000
  @SYMMETRY-I, Sense of inertial frame y-axis will be changed.
  @SYMMETRY-I, The symmetry group is 1-fold degenerate.
  @SYMMETRY-I, The molecule belongs to an Abelian group.
   Principal axis orientation for molecule:
        0.000000000000    0.123976448301    0.000000000000
       -1.430968603519   -0.983798098796    0.000000000000
        1.430968603519   -0.983798098796    0.000000000000
   Reflection in plane  3 is a valid symmetry operation.
   Rotation about  2 is a valid symmetry operation 
   Reflection in plane  1 is a valid symmetry operation.
  Symmetry bits:    5   2   0
********************************************************************************
   The full molecular point group is C2v .
   The largest Abelian subgroup of the full molecular point group is C2v .
   The computational point group is C2v .
********************************************************************************
--------------------------------------------------------------------------------
   Analysis of internal coordinates specified by Z-matrix 
--------------------------------------------------------------------------------
   *The nuclear repulsion energy is    9.190899028787090 a.u.
   *There are   2 degrees of freedom within the tot. symm. molecular subspace.
   *Z-matrix requests optimization of   0 coordinates.
   *The optimization is constrained.
   *The following   2 parameters can have non-zero 
    derivatives within the totally symmetric subspace:
             A    [ 3]  R    [ 1]
   *The following   0 parameters are to be optimized:

   *The following coordinates must be varied in an  unconstrained optimization.
             A    [ 3]  R    [ 1]
--------------------------------------------------------------------------------
 ----------------------------------------------------------------
 Z-matrix   Atomic            Coordinates (in bohr)
  Symbol    Number           X              Y              Z
 ----------------------------------------------------------------
     O         8         0.00000000     0.00000000     0.12397645
     H         1         0.00000000    -1.43096860    -0.98379810
     H         1         0.00000000     1.43096860    -0.98379810
 ----------------------------------------------------------------
   Interatomic distance matrix (Angstroms) 
 
                 O             H             H    
                [ 1]        [ 2]        [ 3]
  O    [ 1]     0.00000
  H    [ 2]     0.95763     0.00000
  H    [ 3]     0.95763     1.51447     0.00000
  Inertia tensor (amu*bohr**2)
    6.32410    0.00000    0.00000
    0.00000    2.19671    0.00000
    0.00000    0.00000    4.12739
   Rotational constants (in cm-1): 
          9.5191008031            27.4045056389            14.5854261635
   Rotational constants (in MHz): 
     285375.5027524236        821566.5256739716        437260.1373131821
  @GTFLGS-W, Keyword #DROPMO not known and is ignored.
  @GTFLGS-W, Keyword #SCF_DAMPING not known and is ignored.
  @GTFLGS-W, Keyword #OCCUPATION not known and is ignored.
  There is   1 frozen-core orbital.
  There are   58 basis functions.
 @GEOPT-W, Archive file not created for single-point calculation.
  @CHECKOUT-I, Total execution time (CPU/WALL):        0.17/       0.38 seconds.
--executable xjoda finished with status     0 in        0.51 seconds (walltime).
 --invoking executable--
/home/nike/cfour_v2.00beta/bin/xvmol
 Serial version of molecule started
********************************************************************************
                    Input from MOL file
********************************************************************************
INTGRL        1    0    1    0    0    0    0    0    0                         
         *** CFOUR Program System (Release V0.1) ***                            
TITLE                                                                           
    2    2 X  Y       0.10E-08              0    0                              
   9999.00      3.00                                                            
          8.00000000    1    4    1    1    1    1                              
O #1   0.000000000000000   0.000000000000000   0.123976448300873                
   10    4                                                                      
   15330.0000000000       5.080000000000000E-004 -1.150000000000000E-004        
  0.000000000000000E+000  0.000000000000000E+000                                
   2299.00000000000       3.929000000000000E-003 -8.950000000000000E-004        
  0.000000000000000E+000  0.000000000000000E+000                                
   522.400000000000       2.024300000000000E-002 -4.636000000000000E-003        
  0.000000000000000E+000  0.000000000000000E+000                                
   147.300000000000       7.918100000000000E-002 -1.872400000000000E-002        
  0.000000000000000E+000  0.000000000000000E+000                                
   47.5500000000000       0.230687000000000      -5.846300000000000E-002        
  0.000000000000000E+000  0.000000000000000E+000                                
   16.7600000000000       0.433118000000000      -0.136463000000000             
  0.000000000000000E+000  0.000000000000000E+000                                
   6.20700000000000       0.350260000000000      -0.175740000000000             
  0.000000000000000E+000  0.000000000000000E+000                                
   1.75200000000000       4.272800000000000E-002  0.160934000000000             
   1.00000000000000       0.000000000000000E+000                                
  0.688200000000000      -8.154000000000000E-003  0.603418000000000             
  0.000000000000000E+000  0.000000000000000E+000                                
  0.238400000000000       2.381000000000000E-003  0.378765000000000             
  0.000000000000000E+000   1.00000000000000                                     
    5    3                                                                      
   34.4600000000000       1.592800000000000E-002  0.000000000000000E+000        
  0.000000000000000E+000                                                        
   7.74900000000000       9.974000000000000E-002  0.000000000000000E+000        
  0.000000000000000E+000                                                        
   2.28000000000000       0.310492000000000       0.000000000000000E+000        
  0.000000000000000E+000                                                        
  0.715600000000000       0.491026000000000        1.00000000000000             
  0.000000000000000E+000                                                        
  0.214000000000000       0.336337000000000       0.000000000000000E+000        
   1.00000000000000                                                             
    2    2                                                                      
   2.31400000000000        1.00000000000000       0.000000000000000E+000        
  0.645000000000000       0.000000000000000E+000   1.00000000000000             
    1    1                                                                      
   1.42800000000000        1.00000000000000                                     
          1.00000000    1    3    1    1    1                                   
H #2   0.000000000000000  -1.430968603519347  -0.983798098795531                
    5    3                                                                      
   33.8700000000000       6.068000000000000E-003  0.000000000000000E+000        
  0.000000000000000E+000                                                        
   5.09500000000000       4.530800000000000E-002  0.000000000000000E+000        
  0.000000000000000E+000                                                        
   1.15900000000000       0.202822000000000       0.000000000000000E+000        
  0.000000000000000E+000                                                        
  0.325800000000000       0.503903000000000        1.00000000000000             
  0.000000000000000E+000                                                        
  0.102700000000000       0.383421000000000       0.000000000000000E+000        
   1.00000000000000                                                             
    2    2                                                                      
   1.40700000000000        1.00000000000000       0.000000000000000E+000        
  0.388000000000000       0.000000000000000E+000   1.00000000000000             
    1    1                                                                      
   1.05700000000000        1.00000000000000                                     
FINISH                                                                          
 
********************************************************************************
 One- and two-electron integrals over symmetry-adapted AOs are calculated.

  Spherical harmonics are used.
  
   2 types of atoms
   2 symmetry operations

   Reflection in the YZ-plane
   Reflection in the XZ-plane
  
  Integrals less than  0.10E-13 are neglected.

  Atomic type number  1 :
  -----------------------

    Nuclear charge:                        8
    number of symmetry independent atoms:  1
    highest orbital type:                  f

      1 groups of CGTOs of s type
      1 groups of CGTOs of p type
      1 groups of CGTOs of d type
      1 groups of CGTOs of f type

    nuclear coordinates (in a.u.) are :

    O #1        0.000000000000000        0.000000000000000        0.123976448300873
  
  Atomic type number  2 :
  -----------------------

    Nuclear charge:                        1
    number of symmetry independent atoms:  1
    highest orbital type:                  d

      1 groups of CGTOs of s type
      1 groups of CGTOs of p type
      1 groups of CGTOs of d type

    nuclear coordinates (in a.u.) are :

    H #2        0.000000000000000       -1.430968603519347       -0.983798098795531
  
   Internuclear distances (A) :

     for atom O #1 (coordinates :   0.00000   0.00000   0.12398)

     H #2   1     distance is  0.958

     for atom H #2 (coordinates :   0.00000  -1.43097  -0.98380)

     H #2   3     distance is  1.514

   Group multiplication table :

         1   2   3   4
         2   1   4   3
         3   4   1   2
         4   3   2   1

   Gaussian basis information :

   atom                 exponent      coefficients

 O #1  1    S   
+                 1   15330.000000   0.0005080  -0.0001150   0.0000000   0.0000000
                  2    2299.000000   0.0039290  -0.0008950   0.0000000   0.0000000
                  3     522.400000   0.0202430  -0.0046360   0.0000000   0.0000000
                  4     147.300000   0.0791810  -0.0187240   0.0000000   0.0000000
                  5      47.550000   0.2306870  -0.0584630   0.0000000   0.0000000
                  6      16.760000   0.4331180  -0.1364630   0.0000000   0.0000000
                  7       6.207000   0.3502600  -0.1757400   0.0000000   0.0000000
                  8       1.752000   0.0427280   0.1609340   1.0000000   0.0000000
                  9       0.688200  -0.0081540   0.6034180   0.0000000   0.0000000
                 10       0.238400   0.0023810   0.3787650   0.0000000   1.0000000

 O #1  1    X   
+                11      34.460000   0.0159280   0.0000000   0.0000000
                 12       7.749000   0.0997400   0.0000000   0.0000000
                 13       2.280000   0.3104920   0.0000000   0.0000000
                 14       0.715600   0.4910260   1.0000000   0.0000000
                 15       0.214000   0.3363370   0.0000000   1.0000000

 O #1  1    Y   
+                16      34.460000   0.0159280   0.0000000   0.0000000
                 17       7.749000   0.0997400   0.0000000   0.0000000
                 18       2.280000   0.3104920   0.0000000   0.0000000
                 19       0.715600   0.4910260   1.0000000   0.0000000
                 20       0.214000   0.3363370   0.0000000   1.0000000

 O #1  1    Z   
+                21      34.460000   0.0159280   0.0000000   0.0000000
                 22       7.749000   0.0997400   0.0000000   0.0000000
                 23       2.280000   0.3104920   0.0000000   0.0000000
                 24       0.715600   0.4910260   1.0000000   0.0000000
                 25       0.214000   0.3363370   0.0000000   1.0000000

 O #1  1    XX  
+                26       2.314000   1.0000000   0.0000000
                 27       0.645000   0.0000000   1.0000000

 O #1  1    XY  
+                28       2.314000   1.0000000   0.0000000
                 29       0.645000   0.0000000   1.0000000

 O #1  1    XZ  
+                30       2.314000   1.0000000   0.0000000
                 31       0.645000   0.0000000   1.0000000

 O #1  1    YY  
+                32       2.314000   1.0000000   0.0000000
                 33       0.645000   0.0000000   1.0000000

 O #1  1    YZ  
+                34       2.314000   1.0000000   0.0000000
                 35       0.645000   0.0000000   1.0000000

 O #1  1    ZZ  
+                36       2.314000   1.0000000   0.0000000
                 37       0.645000   0.0000000   1.0000000

 O #1  1    F300
+                38       1.428000   1.0000000

 O #1  1    F210
+                39       1.428000   1.0000000

 O #1  1    F201
+                40       1.428000   1.0000000

 O #1  1    F120
+                41       1.428000   1.0000000

 O #1  1    F111
+                42       1.428000   1.0000000

 O #1  1    F102
+                43       1.428000   1.0000000

 O #1  1    F030
+                44       1.428000   1.0000000

 O #1  1    F021
+                45       1.428000   1.0000000

 O #1  1    F012
+                46       1.428000   1.0000000

 O #1  1    F003
+                47       1.428000   1.0000000

 H #2  1    S   
+                48      33.870000   0.0060680   0.0000000   0.0000000
                 49       5.095000   0.0453080   0.0000000   0.0000000
                 50       1.159000   0.2028220   0.0000000   0.0000000
                 51       0.325800   0.5039030   1.0000000   0.0000000
                 52       0.102700   0.3834210   0.0000000   1.0000000

 H #2  3    S   
+                53      33.870000   0.0060680   0.0000000   0.0000000
                 54       5.095000   0.0453080   0.0000000   0.0000000
                 55       1.159000   0.2028220   0.0000000   0.0000000
                 56       0.325800   0.5039030   1.0000000   0.0000000
                 57       0.102700   0.3834210   0.0000000   1.0000000

 H #2  1    X   
+                58       1.407000   1.0000000   0.0000000
                 59       0.388000   0.0000000   1.0000000

 H #2  3    X   
+                60       1.407000   1.0000000   0.0000000
                 61       0.388000   0.0000000   1.0000000

 H #2  1    Y   
+                62       1.407000   1.0000000   0.0000000
                 63       0.388000   0.0000000   1.0000000

 H #2  3    Y   
+                64       1.407000   1.0000000   0.0000000
                 65       0.388000   0.0000000   1.0000000

 H #2  1    Z   
+                66       1.407000   1.0000000   0.0000000
                 67       0.388000   0.0000000   1.0000000

 H #2  3    Z   
+                68       1.407000   1.0000000   0.0000000
                 69       0.388000   0.0000000   1.0000000

 H #2  1    XX  
+                70       1.057000   1.0000000

 H #2  3    XX  
+                71       1.057000   1.0000000

 H #2  1    XY  
+                72       1.057000   1.0000000

 H #2  3    XY  
+                73       1.057000   1.0000000

 H #2  1    XZ  
+                74       1.057000   1.0000000

 H #2  3    XZ  
+                75       1.057000   1.0000000

 H #2  1    YY  
+                76       1.057000   1.0000000

 H #2  3    YY  
+                77       1.057000   1.0000000

 H #2  1    YZ  
+                78       1.057000   1.0000000

 H #2  3    YZ  
+                79       1.057000   1.0000000

 H #2  1    ZZ  
+                80       1.057000   1.0000000

 H #2  3    ZZ  
+                81       1.057000   1.0000000
 65 58
  1  2  3  4  5  6  7  8  9 10 11****** 12 13*** 14 15 16 17 18 19 20 21 22
 23*** 24 25 26 27 28 29 30*** 31 32 33 34 35 36 37 38 39 40 41*** 42 43 44
 45 46 47 48 49 50 51*** 52 53 54 55 56 57 58
1

             SYMMETRY TRANSFORMATION INFO
             58 SYMMETRY ADAPTED BASIS FUNCTIONS 


          irreducible representation number 1

    1    1  O #1     1s     1   1   1.0
    2    2  O #1     1s     1   2   1.0
    3    3  O #1     1s     1   3   1.0
    4    4  O #1     1s     1   4   1.0
    5    5  O #1     2pz    1  11   1.0
    6    6  O #1     2pz    1  12   1.0
    7    7  O #1     2pz    1  13   1.0
    8    8  O #1     3d2-   3  14  -1.0  20  -1.0  24   2.0
    9    9  O #1     3d2-   3  15  -1.0  21  -1.0  25   2.0
   10   10  O #1     3d1+   2  14   1.0  20  -1.0
   11   11  O #1     3d1+   2  15   1.0  21  -1.0
   12   12  O #1     4f1-   3  28  -3.0  33  -3.0  35   2.0
   13   13  O #1     4f3+   2  28   1.0  33  -1.0
   14   14  H #2     1s     2  36   1.0  37   1.0
   15   15  H #2     1s     2  38   1.0  39   1.0
   16   16  H #2     1s     2  40   1.0  41   1.0
   17   17  H #2     2py    2  46   1.0  47  -1.0
   18   18  H #2     2py    2  48   1.0  49  -1.0
   19   19  H #2     2pz    2  50   1.0  51   1.0
   20   20  H #2     2pz    2  52   1.0  53   1.0
   21   21  H #2     3d2-   6  54  -1.0  60  -1.0  64   2.0  55  -1.0  61  -1.0  65   2.0
   22   22  H #2     3d1+   4  54   1.0  60  -1.0  55   1.0  61  -1.0
   23   23  H #2     3d2+   2  62   1.0  63  -1.0


          irreducible representation number 2

   24    1  O #1     2px    1   5   1.0
   25    2  O #1     2px    1   6   1.0
   26    3  O #1     2px    1   7   1.0
   27    4  O #1     3d0    1  18   1.0
   28    5  O #1     3d0    1  19   1.0
   29    6  O #1     4f3-   3  26  -1.0  29  -1.0  31   4.0
   30    7  O #1     4f0    2  26   1.0  29  -3.0
   31    8  H #2     2px    2  42   1.0  43   1.0
   32    9  H #2     2px    2  44   1.0  45   1.0
   33   10  H #2     3d1-   2  56   1.0  57  -1.0
   34   11  H #2     3d0    2  58   1.0  59   1.0


          irreducible representation number 3

   35    1  O #1     2py    1   8   1.0
   36    2  O #1     2py    1   9   1.0
   37    3  O #1     2py    1  10   1.0
   38    4  O #1     3d2+   1  22   1.0
   39    5  O #1     3d2+   1  23   1.0
   40    6  O #1     4f2-   3  27  -1.0  32  -1.0  34   4.0
   41    7  O #1     4f2+   2  27   3.0  32  -1.0
   42    8  H #2     1s     2  36   1.0  37  -1.0
   43    9  H #2     1s     2  38   1.0  39  -1.0
   44   10  H #2     1s     2  40   1.0  41  -1.0
   45   11  H #2     2py    2  46   1.0  47   1.0
   46   12  H #2     2py    2  48   1.0  49   1.0
   47   13  H #2     2pz    2  50   1.0  51  -1.0
   48   14  H #2     2pz    2  52   1.0  53  -1.0
   49   15  H #2     3d2-   6  54  -1.0  60  -1.0  64   2.0  55   1.0  61   1.0  65  -2.0
   50   16  H #2     3d1+   4  54   1.0  60  -1.0  55  -1.0  61   1.0
   51   17  H #2     3d2+   2  62   1.0  63   1.0


          irreducible representation number 4

   52    1  O #1     3d1-   1  16   1.0
   53    2  O #1     3d1-   1  17   1.0
   54    3  O #1     4f1+   1  30   1.0
   55    4  H #2     2px    2  42   1.0  43  -1.0
   56    5  H #2     2px    2  44   1.0  45  -1.0
   57    6  H #2     3d1-   2  56   1.0  57   1.0
   58    7  H #2     3d0    2  58   1.0  59  -1.0
  Nuclear repulsion energy :    9.1908990288 a.u.
  required memory for a1 array                5020257  words 
  required memory for a2 array                2070308  words 
 @GETMEM-I,  Allocated      69 MB of main memory.
  @MOLECU-I, One electron integrals (CPU/WALL):        0.01/       0.02 seconds.
  @TWOEL-I,      47637 integrals of symmetry type  I I I I
  @TWOEL-I,     139313 integrals of symmetry type  I J I J
  @TWOEL-I,      78167 integrals of symmetry type  I I J J
  @TWOEL-I,      84950 integrals of symmetry type  I J K L
  @TWOEL-I, Total number of 2-e integrals     350067.
  @MOLECU-I, Two electron integrals (CPU/WALL):        0.13/       0.13 seconds.
  @CHECKOUT-I, Total execution time (CPU/WALL):        0.16/       0.18 seconds.
--executable xvmol finished with status     0 in        0.34 seconds (walltime).
 --invoking executable--
/home/nike/cfour_v2.00beta/bin/xvmol2ja
 @GETMEM-I,  Allocated    3814 MB of main memory.
  @CHECKOUT-I, Total execution time (CPU/WALL):        0.00/       0.00 seconds.
--executable xvmol2ja finished with status     0 in        0.11 seconds (walltime).
 --invoking executable--
/home/nike/cfour_v2.00beta/bin/xvscf
  There are   58 functions in the AO basis.

  There are 4 irreducible representations.

       Irrep        # of functions
         1                 23
         2                 11
         3                 17
         4                  7


  Parameters for SCF calculation: 
        SCF reference function:  RHF  
  Maximum number of iterations: 9999
     Full symmetry point group: C2v 
     Computational point group: C2v 
        Initial density matrix: MOREAD                 
     SCF convergence tolerance: 10**(-12)
  DIIS convergence acceleration:  ON
          Latest start for DIIS:   5
                     DIIS order:   6

  Memory information:     179852 words required.
  Fock matrices are constructed from AO integral file.
 @GETMEM-I,  Allocated       1 MB of main memory.
  Initialization and symmetry analysis required      0.001 seconds.

  @INITGES-I, Occupancies from core Hamiltonian:

          Alpha population by irrep:   3    1    1    0
           Beta population by irrep:   3    1    1    0


 total no. of electrons in initial guess :  0.000000000000000E+000
  --------------------------------------------------------------------
  Iteration         Total Energy            Largest Density Difference
  --------------------------------------------------------------------
       0             9.190899028787092              0.0000000000D+00
   current occupation vector 
     3  1  1  0
     3  1  1  0
  processed                  47637  ao basis integrals from 
                    80  buffers.
  processed                  78167  ao basis integrals from 
                   131  buffers.
  processed                 139313  ao basis integrals from 
                   233  buffers.
       1           -61.408253584616340              0.1204443817D+02
   current occupation vector 
     3  1  1  0
     3  1  1  0
  processed                  47637  ao basis integrals from 
                    80  buffers.
  processed                  78167  ao basis integrals from 
                   131  buffers.
  processed                 139313  ao basis integrals from 
                   233  buffers.
       2           -66.717704365452477              0.1199066001D+02
   current occupation vector 
     3  0  2  0
     3  0  2  0
  processed                  47637  ao basis integrals from 
                    80  buffers.
  processed                  78167  ao basis integrals from 
                   131  buffers.
  processed                 139313  ao basis integrals from 
                   233  buffers.
       3           -71.760637076725487              0.1037749880D+02
   current occupation vector 
     3  1  1  0
     3  1  1  0
  processed                  47637  ao basis integrals from 
                    80  buffers.
  processed                  78167  ao basis integrals from 
                   131  buffers.
  processed                 139313  ao basis integrals from 
                   233  buffers.
       4           -70.216862482358138              0.8604010226D+01
   current occupation vector 
     3  0  2  0
     3  0  2  0
 
 sum over diagonal and offdiagdiagonal of C(T)*S*C for irrep
                     1
  1.640909630395981E-013  1.520013955617036E-013
 reorthoganalization of MOs is carried out
 sum over diagonal and offdiagdiagonal of C(T)*S*C for irrep
                     1
 -2.287059430727822E-014  7.095815608880386E-014
 
 sum over diagonal and offdiagdiagonal of C(T)*S*C for irrep
                     2
  5.329070518200751E-014  3.035966999174501E-014
 reorthoganalization of MOs is carried out
 sum over diagonal and offdiagdiagonal of C(T)*S*C for irrep
                     2
 -2.886579864025407E-015 -4.350469637315335E-015
 
 sum over diagonal and offdiagdiagonal of C(T)*S*C for irrep
                     3
  1.039168751049147E-013  5.283297535357487E-013
 reorthoganalization of MOs is carried out
 sum over diagonal and offdiagdiagonal of C(T)*S*C for irrep
                     3
 -8.659739592076221E-015 -3.381965389161190E-016
 
 sum over diagonal and offdiagdiagonal of C(T)*S*C for irrep
                     4
  4.440892098500626E-016 -1.005619199023755E-014
 reorthoganalization of MOs is carried out
 sum over diagonal and offdiagdiagonal of C(T)*S*C for irrep
                     4
  1.332267629550188E-015 -3.161533534967731E-016
  processed                  47637  ao basis integrals from 
                    80  buffers.
  processed                  78167  ao basis integrals from 
                   131  buffers.
  processed                 139313  ao basis integrals from 
                   233  buffers.
       5           -73.107769204418787              0.8578842831D+01
   current occupation vector 
     3  1  1  0
     3  1  1  0
  processed                  47637  ao basis integrals from 
                    80  buffers.
  processed                  78167  ao basis integrals from 
                   131  buffers.
  processed                 139313  ao basis integrals from 
                   233  buffers.
       6           -75.875832172654484              0.2531053573D+01
   current occupation vector 
     3  1  1  0
     3  1  1  0
  processed                  47637  ao basis integrals from 
                    80  buffers.
  processed                  78167  ao basis integrals from 
                   131  buffers.
  processed                 139313  ao basis integrals from 
                   233  buffers.
       7           -76.056074460797632              0.4458789303D+00
   current occupation vector 
     3  1  1  0
     3  1  1  0
  processed                  47637  ao basis integrals from 
                    80  buffers.
  processed                  78167  ao basis integrals from 
                   131  buffers.
  processed                 139313  ao basis integrals from 
                   233  buffers.
       8           -76.057014337096447              0.3365194806D-01
   current occupation vector 
     3  1  1  0
     3  1  1  0
  processed                  47637  ao basis integrals from 
                    80  buffers.
  processed                  78167  ao basis integrals from 
                   131  buffers.
  processed                 139313  ao basis integrals from 
                   233  buffers.
       9           -76.057136293568220              0.1098087583D-01
   current occupation vector 
     3  1  1  0
     3  1  1  0
 
 sum over diagonal and offdiagdiagonal of C(T)*S*C for irrep
                     1
  1.791899961745003E-013 -4.781103965967488E-013
 reorthoganalization of MOs is carried out
 sum over diagonal and offdiagdiagonal of C(T)*S*C for irrep
                     1
 -3.508304757815495E-014 -1.102702845890867E-013
 
 sum over diagonal and offdiagdiagonal of C(T)*S*C for irrep
                     2
  8.770761894538737E-014  4.323268275357095E-014
 reorthoganalization of MOs is carried out
 sum over diagonal and offdiagdiagonal of C(T)*S*C for irrep
                     2
 -8.881784197001252E-016 -1.084713780385646E-015
 
 sum over diagonal and offdiagdiagonal of C(T)*S*C for irrep
                     3
  1.286748485540556E-013  2.088462637488239E-013
 reorthoganalization of MOs is carried out
 sum over diagonal and offdiagdiagonal of C(T)*S*C for irrep
                     3
 -2.886579864025407E-015  8.173252995084292E-015
 
 sum over diagonal and offdiagdiagonal of C(T)*S*C for irrep
                     4
  2.886579864025407E-015  1.273547239888373E-014
 reorthoganalization of MOs is carried out
 sum over diagonal and offdiagdiagonal of C(T)*S*C for irrep
                     4
 -2.220446049250313E-016 -4.260914537868032E-017
  processed                  47637  ao basis integrals from 
                    80  buffers.
  processed                  78167  ao basis integrals from 
                   131  buffers.
  processed                 139313  ao basis integrals from 
                   233  buffers.
      10           -76.057138924614705              0.2148480366D-02
   current occupation vector 
     3  1  1  0
     3  1  1  0
  processed                  47637  ao basis integrals from 
                    80  buffers.
  processed                  78167  ao basis integrals from 
                   131  buffers.
  processed                 139313  ao basis integrals from 
                   233  buffers.
      11           -76.057139145856283              0.8841140019D-03
   current occupation vector 
     3  1  1  0
     3  1  1  0
  processed                  47637  ao basis integrals from 
                    80  buffers.
  processed                  78167  ao basis integrals from 
                   131  buffers.
  processed                 139313  ao basis integrals from 
                   233  buffers.
      12           -76.057139157634438              0.1889545339D-03
   current occupation vector 
     3  1  1  0
     3  1  1  0
  processed                  47637  ao basis integrals from 
                    80  buffers.
  processed                  78167  ao basis integrals from 
                   131  buffers.
  processed                 139313  ao basis integrals from 
                   233  buffers.
      13           -76.057139157715170              0.1650781640D-04
   current occupation vector 
     3  1  1  0
     3  1  1  0
  processed                  47637  ao basis integrals from 
                    80  buffers.
  processed                  78167  ao basis integrals from 
                   131  buffers.
  processed                 139313  ao basis integrals from 
                   233  buffers.
      14           -76.057139157717742              0.2678899731D-05
   current occupation vector 
     3  1  1  0
     3  1  1  0
 
 sum over diagonal and offdiagdiagonal of C(T)*S*C for irrep
                     1
  1.370015212387443E-013 -6.463486857854388E-013
 reorthoganalization of MOs is carried out
 sum over diagonal and offdiagdiagonal of C(T)*S*C for irrep
                     1
 -2.309263891220326E-014  1.889662344583079E-013
 
 sum over diagonal and offdiagdiagonal of C(T)*S*C for irrep
                     2
  5.462297281155770E-014  1.803095043742932E-014
 reorthoganalization of MOs is carried out
 sum over diagonal and offdiagdiagonal of C(T)*S*C for irrep
                     2
  1.110223024625157E-015  1.601542791614119E-015
 
 sum over diagonal and offdiagdiagonal of C(T)*S*C for irrep
                     3
  7.749356711883593E-014  2.327688712825261E-013
 reorthoganalization of MOs is carried out
 sum over diagonal and offdiagdiagonal of C(T)*S*C for irrep
                     3
 -2.220446049250313E-015  1.692086886730636E-014
 
 sum over diagonal and offdiagdiagonal of C(T)*S*C for irrep
                     4
  3.219646771412954E-015  1.886837040776523E-014
 reorthoganalization of MOs is carried out
 sum over diagonal and offdiagdiagonal of C(T)*S*C for irrep
                     4
 -7.771561172376096E-016 -1.275401225603323E-015
  processed                  47637  ao basis integrals from 
                    80  buffers.
  processed                  78167  ao basis integrals from 
                   131  buffers.
  processed                 139313  ao basis integrals from 
                   233  buffers.
      15           -76.057139157717927              0.3578775378D-06
   current occupation vector 
     3  1  1  0
     3  1  1  0
  processed                  47637  ao basis integrals from 
                    80  buffers.
  processed                  78167  ao basis integrals from 
                   131  buffers.
  processed                 139313  ao basis integrals from 
                   233  buffers.
      16           -76.057139157717742              0.6584955714D-07
   current occupation vector 
     3  1  1  0
     3  1  1  0
  processed                  47637  ao basis integrals from 
                    80  buffers.
  processed                  78167  ao basis integrals from 
                   131  buffers.
  processed                 139313  ao basis integrals from 
                   233  buffers.
      17           -76.057139157717970              0.2065903093D-07
   current occupation vector 
     3  1  1  0
     3  1  1  0
  processed                  47637  ao basis integrals from 
                    80  buffers.
  processed                  78167  ao basis integrals from 
                   131  buffers.
  processed                 139313  ao basis integrals from 
                   233  buffers.
      18           -76.057139157717842              0.2312655845D-08
   current occupation vector 
     3  1  1  0
     3  1  1  0
  processed                  47637  ao basis integrals from 
                    80  buffers.
  processed                  78167  ao basis integrals from 
                   131  buffers.
  processed                 139313  ao basis integrals from 
                   233  buffers.
      19           -76.057139157717870              0.5915576917D-09
   current occupation vector 
     3  1  1  0
     3  1  1  0
 
 sum over diagonal and offdiagdiagonal of C(T)*S*C for irrep
                     1
  1.367794766338193E-013 -3.273906304409701E-013
 reorthoganalization of MOs is carried out
 sum over diagonal and offdiagdiagonal of C(T)*S*C for irrep
                     1
  2.253752739989068E-014 -9.249234839871635E-014
 
 sum over diagonal and offdiagdiagonal of C(T)*S*C for irrep
                     2
  5.428990590417015E-014  3.191091173178643E-014
 reorthoganalization of MOs is carried out
 sum over diagonal and offdiagdiagonal of C(T)*S*C for irrep
                     2
  9.992007221626409E-016 -3.022027208554948E-016
 
 sum over diagonal and offdiagdiagonal of C(T)*S*C for irrep
                     3
  1.372235658436693E-013  2.028403037914839E-013
 reorthoganalization of MOs is carried out
 sum over diagonal and offdiagdiagonal of C(T)*S*C for irrep
                     3
 -8.659739592076221E-015 -4.088134216188258E-015
 
 sum over diagonal and offdiagdiagonal of C(T)*S*C for irrep
                     4
  1.465494392505207E-014  2.020931165469531E-014
 reorthoganalization of MOs is carried out
 sum over diagonal and offdiagdiagonal of C(T)*S*C for irrep
                     4
 -3.330669073875470E-016  5.688266697945199E-016
  processed                  47637  ao basis integrals from 
                    80  buffers.
  processed                  78167  ao basis integrals from 
                   131  buffers.
  processed                 139313  ao basis integrals from 
                   233  buffers.
      20           -76.057139157717870              0.7681100200D-10
   current occupation vector 
     3  1  1  0
     3  1  1  0
  processed                  47637  ao basis integrals from 
                    80  buffers.
  processed                  78167  ao basis integrals from 
                   131  buffers.
  processed                 139313  ao basis integrals from 
                   233  buffers.
      21           -76.057139157717927              0.1249333970D-10
   current occupation vector 
     3  1  1  0
     3  1  1  0
  processed                  47637  ao basis integrals from 
                    80  buffers.
  processed                  78167  ao basis integrals from 
                   131  buffers.
  processed                 139313  ao basis integrals from 
                   233  buffers.
      22           -76.057139157717856              0.5278000259D-11
   current occupation vector 
     3  1  1  0
     3  1  1  0
  processed                  47637  ao basis integrals from 
                    80  buffers.
  processed                  78167  ao basis integrals from 
                   131  buffers.
  processed                 139313  ao basis integrals from 
                   233  buffers.
      23           -76.057139157717842              0.2111255615D-11
   current occupation vector 
     3  1  1  0
     3  1  1  0
  processed                  47637  ao basis integrals from 
                    80  buffers.
  processed                  78167  ao basis integrals from 
                   131  buffers.
  processed                 139313  ao basis integrals from 
                   233  buffers.
      24           -76.057139157717771              0.1135758154D-11
   current occupation vector 
     3  1  1  0
     3  1  1  0
 
 sum over diagonal and offdiagdiagonal of C(T)*S*C for irrep
                     1
  1.609823385706477E-013 -3.054795478565615E-013
 reorthoganalization of MOs is carried out
 sum over diagonal and offdiagdiagonal of C(T)*S*C for irrep
                     1
 -5.329070518200751E-015 -1.498902130039404E-013
 
 sum over diagonal and offdiagdiagonal of C(T)*S*C for irrep
                     2
  3.952393967665557E-014  2.912732514491652E-014
 reorthoganalization of MOs is carried out
 sum over diagonal and offdiagdiagonal of C(T)*S*C for irrep
                     2
  1.110223024625157E-015 -1.205471879543903E-016
 
 sum over diagonal and offdiagdiagonal of C(T)*S*C for irrep
                     3
  1.151301276536287E-013  2.042581429245304E-013
 reorthoganalization of MOs is carried out
 sum over diagonal and offdiagdiagonal of C(T)*S*C for irrep
                     3
 -5.329070518200751E-015 -6.540206507062944E-015
 
 sum over diagonal and offdiagdiagonal of C(T)*S*C for irrep
                     4
  8.881784197001252E-016  2.168697079557580E-014
 reorthoganalization of MOs is carried out
 sum over diagonal and offdiagdiagonal of C(T)*S*C for irrep
                     4
 -3.330669073875470E-016 -5.102797524803027E-016

  SCF has converged.

 Density matrix saved to file den.dat
 total electron number:   10.0000000000000     
  processed                  47637  ao basis integrals from 
                    80  buffers.
  processed                  78167  ao basis integrals from 
                   131  buffers.
  processed                 139313  ao basis integrals from 
                   233  buffers.
     E(SCF)=       -76.057139157717828              0.7234213228D-12


  ORBITAL EIGENVECTORS

  SYMMETRY BLOCK 1 (ALPHA)

                          MO #  1       MO #  2       MO #  3       MO #  4

    BASIS/ORB E          -20.55481      -1.34546      -0.57765       0.14223
                        ----------    ----------    ----------    ----------
    1; O #1                0.99930       0.00879       0.00223       0.03046
    2; O #1               -0.00104      -0.86472       0.30698      -0.17758
    3; O #1                0.00098       0.00662       0.00404      -0.01136
    4; O #1               -0.00079       0.04377       0.16118      -1.48613
    5; O #1               -0.00489       0.11493       0.80883       0.20417
    6; O #1                0.00389       0.00731      -0.01455       0.09360
    7; O #1                0.00180      -0.02623       0.00533       0.39272
    8; O #1                0.00001      -0.00029      -0.00160      -0.00029
    9; O #1               -0.00005      -0.00083      -0.00525      -0.00254
   10; O #1               -0.00002       0.00191       0.00163      -0.00121
   11; O #1                0.00025       0.00381       0.00289       0.02587
   12; O #1                0.00000      -0.00011       0.00009      -0.00055
   13; O #1               -0.00005      -0.00143      -0.00157      -0.00430
   14; H #2                0.00212      -0.37537      -0.36158       0.11449
   15; H #2               -0.00006       0.11626       0.04311       0.22673
   16; H #2               -0.00107       0.13768       0.11255       0.87753
   17; H #2                0.00024      -0.01050      -0.00954      -0.00564
   18; H #2                0.00045      -0.00984      -0.02141       0.14457
   19; H #2                0.00013      -0.00742       0.00072      -0.00146
   20; H #2                0.00031      -0.00492       0.01233       0.11061
   21; H #2               -0.00002       0.00002       0.00064       0.00113
   22; H #2                0.00001       0.00068       0.00164      -0.00420
   23; H #2               -0.00012      -0.00196      -0.00071       0.01758


                          MO #  5       MO #  6       MO #  7       MO #  8

    BASIS/ORB E            0.60206       0.66829       0.80069       1.13202
                        ----------    ----------    ----------    ----------
    1; O #1                0.02462       0.03570       0.01806       0.26450
    2; O #1                0.34459       0.12624       0.21132       1.43290
    3; O #1               -0.02845      -0.06323      -0.01350       0.02085
    4; O #1                0.64945       4.57901       0.53965      -7.59558
    5; O #1               -0.23764       0.63899      -0.14148       0.13780
    6; O #1               -0.04163      -0.20747      -0.07979       0.98911
    7; O #1               -0.60995      -2.88201      -1.26590       1.66074
    8; O #1                0.00177      -0.00468      -0.01058      -0.00017
    9; O #1               -0.00306       0.02494       0.04106       0.01175
   10; O #1                0.01006       0.01123      -0.00475      -0.00551
   11; O #1               -0.01993      -0.13994       0.03565       0.14637
   12; O #1                0.00126       0.00143      -0.00211      -0.00536
   13; O #1                0.00874       0.01558       0.00095      -0.03893
   14; H #2               -0.34092       0.14369       0.03886      -0.11354
   15; H #2               -1.28140      -2.36530      -0.95330       3.00141
   16; H #2                0.70798      -0.52877       0.24511       0.65481
   17; H #2               -0.03157      -0.02332       0.02228       0.07800
   18; H #2                0.19644      -0.95496      -0.52627       1.16679
   19; H #2               -0.01784      -0.01371      -0.03750       0.07982
   20; H #2               -0.07185      -0.61161       0.69509       0.73168
   21; H #2               -0.00378       0.00105       0.01254       0.01122
   22; H #2                0.00463       0.02599       0.01546      -0.05007
   23; H #2               -0.01077      -0.06368       0.02617       0.15282


                          MO #  9       MO # 10       MO # 11       MO # 12

    BASIS/ORB E            1.56574       2.17119       2.23427       2.59000
                        ----------    ----------    ----------    ----------
    1; O #1                0.33018       0.19684       0.14458       0.21448
    2; O #1                1.58065       0.78030       0.53894       0.68568
    3; O #1               -0.01340      -0.07299      -0.12291      -0.10488
    4; O #1                1.30426       2.25428       6.66813       0.05754
    5; O #1               -0.46941      -0.14132      -0.30794       0.54271
    6; O #1               -0.38129      -0.36136      -0.78965      -0.58508
    7; O #1               -0.11901      -0.27154      -2.63402      -0.46510
    8; O #1                0.00063       0.00261      -0.00054      -0.00120
    9; O #1                0.00216      -0.29413       0.25720       0.07089
   10; O #1                0.00506       0.00138       0.00119      -0.01125
   11; O #1                0.13063      -0.45957      -0.57311       0.22037
   12; O #1               -0.00334       0.00588       0.00320       0.00654
   13; O #1               -0.02709       0.03077       0.04057       0.05739
   14; H #2               -0.46236       1.06061       0.95953       3.90692
   15; H #2               -0.66975      -2.33861      -4.73676      -3.26963
   16; H #2               -0.10268      -0.41960      -0.51909      -1.14569
   17; H #2                0.13208      -0.10269      -0.05758      -0.10838
   18; H #2               -1.04955      -0.27942      -1.55943      -0.18704
   19; H #2                0.10116       0.04284      -0.06022      -0.09469
   20; H #2               -0.81125      -1.02616      -0.73041       0.05168
   21; H #2               -0.00045      -0.01502       0.00417      -0.01057
   22; H #2               -0.00416       0.00533       0.03284       0.07502
   23; H #2                0.03874      -0.05849      -0.11680       0.08201


                          MO # 13       MO # 14       MO # 15       MO # 16

    BASIS/ORB E            3.49097       3.88489       4.19235       4.38773
                        ----------    ----------    ----------    ----------
    1; O #1                0.01693       0.10007       0.30582       0.21241
    2; O #1                0.07197       0.39077       1.10852       0.44151
    3; O #1               -0.02265       0.01731       0.05842      -0.12438
    4; O #1                0.91965      -0.01611       3.21880      -1.67059
    5; O #1                0.17840       0.02057       1.92514      -1.43146
    6; O #1               -0.09821       0.13223      -2.39971       1.18907
    7; O #1               -0.37038       0.34042      -1.32477       0.55189
    8; O #1                0.01007       0.00387       0.00950      -0.02375
    9; O #1               -0.12309      -0.09609      -0.04381       0.21379
   10; O #1                0.01421      -0.00221      -0.06344      -0.03867
   11; O #1                0.04692      -0.10751      -0.09952       0.50739
   12; O #1               -0.00475       0.02233      -0.00477       0.00797
   13; O #1                0.04432       0.02125       0.03941       0.06597
   14; H #2                1.30320      -0.13384       0.41764       0.74007
   15; H #2               -1.47245       0.02999      -2.20144       0.38930
   16; H #2               -0.44856      -0.00417      -0.44231      -0.26905
   17; H #2               -0.08144      -0.34298       0.55617       0.13745
   18; H #2               -0.12191       0.21071      -1.29501      -0.07601
   19; H #2               -0.07758       0.58198       0.18144       0.50309
   20; H #2               -0.17316      -0.63488      -0.92358       0.27985
   21; H #2                0.03463      -0.14826      -0.01575       0.17882
   22; H #2               -0.30312      -0.05213       0.08284       0.12380
   23; H #2               -0.32054      -0.19861      -0.44820      -0.14459


                          MO # 17       MO # 18       MO # 19       MO # 20

    BASIS/ORB E            5.15750       5.25225       6.56933       7.02062
                        ----------    ----------    ----------    ----------
    1; O #1                0.31262       0.05336       0.44127       0.55230
    2; O #1                1.97289      -0.63821       1.08420       1.23068
    3; O #1                0.40224      -0.43604      -0.37325      -0.61536
    4; O #1                2.44936      -3.28516      -0.02113      -0.73141
    5; O #1               -0.98575      -1.71126      -1.10759      -0.10916
    6; O #1               -0.32973       3.06964       1.39979       0.05492
    7; O #1               -0.50843       1.52870       0.30155       0.19522
    8; O #1                0.01053       0.02141      -0.07255       0.23965
    9; O #1               -0.09917      -0.23435      -0.22369      -0.09765
   10; O #1                0.08371      -0.03719       0.08984       0.23919
   11; O #1               -0.44527       0.11479      -0.15389       0.03502
   12; O #1               -0.00955      -0.04721       0.08095      -0.04927
   13; O #1                0.21351       0.06604      -0.32784      -0.27385
   14; H #2               -0.24661       0.69014       1.73095       1.51388
   15; H #2               -2.11550       1.79046      -1.40476      -0.93443
   16; H #2               -0.00574      -0.16189      -0.67570      -0.54863
   17; H #2               -0.26567       0.62654       0.55336       0.16649
   18; H #2               -0.83948       0.86378      -0.25183      -0.15589
   19; H #2               -0.50024       0.13921      -0.12604       0.31950
   20; H #2               -0.77703       0.30006      -0.49161      -0.29106
   21; H #2               -0.09196      -0.14144      -0.11737       0.04383
   22; H #2                0.20414      -0.16751      -0.13646       0.07116
   23; H #2               -0.78244       0.28583      -0.36224      -0.00419


                          MO # 21       MO # 22       MO # 23

    BASIS\ORB E            7.16741       7.45606      12.87148
                        ----------    ----------    ----------
    1; O #1                0.45823       0.27096       3.86306
    2; O #1                0.92540       0.97215      10.09118
    3; O #1               -0.64137       0.02759      -4.42986
    4; O #1                0.84777      -1.56381      -0.17543
    5; O #1                0.54418      -0.51803       0.91077
    6; O #1               -0.88075       0.24951      -3.12701
    7; O #1               -0.92199       0.50463      -1.45140
    8; O #1               -0.24314      -0.01859       0.01743
    9; O #1                0.34323       0.11124      -0.02888
   10; O #1                0.23656      -0.49211      -0.13189
   11; O #1                0.02780       0.56469      -0.59832
   12; O #1               -0.08832      -0.06355       0.05268
   13; O #1               -0.12161      -0.30151       0.34493
   14; H #2                0.84410       2.02985      -2.30025
   15; H #2               -1.38222      -0.78180      -2.45772
   16; H #2               -0.31223      -0.69034       0.97528
   17; H #2               -0.07609      -0.05115      -0.81839
   18; H #2               -0.52770      -0.14473      -1.40029
   19; H #2                0.36302       0.25162      -0.76215
   20; H #2                0.00038       0.06245      -1.17213
   21; H #2                0.07318       0.05222      -0.04253
   22; H #2                0.12768       0.13115       0.20413
   23; H #2                0.15581      -0.22284      -0.79673


  SYMMETRY BLOCK 2 (ALPHA)

                          MO # 24       MO # 25       MO # 26       MO # 27

    BASIS/ORB E           -0.50444       0.78739       0.95520       2.03678
                        ----------    ----------    ----------    ----------
   24; O #1                0.92275       0.66818       0.06518       0.01658
   25; O #1               -0.00884       0.44458       0.03036      -0.05930
   26; O #1                0.06536      -1.40029       1.11491      -0.71604
   27; O #1               -0.00522      -0.00877       0.02414      -0.01463
   28; O #1               -0.01806       0.03624      -0.00333       1.17009
   29; O #1                0.00025      -0.00045       0.00090      -0.00217
   30; O #1               -0.00082       0.00136      -0.00372       0.00059
   31; H #2                0.01007       0.01244       0.07269      -0.04002
   32; H #2                0.03120      -0.00844      -1.00777       0.67552
   33; H #2                0.00415       0.01965      -0.04021      -0.02270
   34; H #2                0.00287       0.01396      -0.00313       0.07304


                          MO # 28       MO # 29       MO # 30       MO # 31

    BASIS/ORB E            3.35584       3.80043       4.01922       4.68494
                        ----------    ----------    ----------    ----------
   24; O #1                0.23254       2.04586       1.33108       1.97468
   25; O #1               -0.16971      -1.70296      -0.80225      -2.43017
   26; O #1               -0.21839      -0.48346       0.28563      -0.53692
   27; O #1                0.02003       0.04158       0.00469      -0.08341
   28; O #1                0.35010      -0.31814      -0.40722       0.64401
   29; O #1                0.01408      -0.01277       0.01143       0.02840
   30; O #1                0.01667       0.01040      -0.02717      -0.04560
   31; H #2               -0.20494      -0.57648       0.56391       0.19729
   32; H #2                0.21677       0.27389      -0.72096       0.27740
   33; H #2                0.37300      -0.25028      -0.45090       0.58296
   34; H #2               -0.52675       0.04968      -0.41294       0.32822


                          MO # 32       MO # 33       MO # 34

    BASIS\ORB E            6.05125       6.92361       7.00263
                        ----------    ----------    ----------
   24; O #1                0.13616       0.59887       0.74399
   25; O #1               -0.19883      -0.94913      -1.21598
   26; O #1               -0.02881      -0.15162      -0.57737
   27; O #1                0.15175       0.90853      -0.75317
   28; O #1                0.11939      -0.11449       1.09141
   29; O #1               -0.15031      -0.01827      -0.06816
   30; O #1               -0.08236       0.14192       0.17614
   31; H #2                0.06094       0.30712       0.35997
   32; H #2                0.00349       0.04072       0.42139
   33; H #2                0.26432       0.30231       0.48672
   34; H #2               -0.21108       0.33753       0.28536


  SYMMETRY BLOCK 3 (ALPHA)

                          MO # 35       MO # 36       MO # 37       MO # 38

    BASIS/ORB E           -0.70957       0.20402       0.54406       0.80523
                        ----------    ----------    ----------    ----------
   35; O #1                0.73039       0.35077       0.27262       0.71591
   36; O #1               -0.01875       0.02970       0.14708      -0.37517
   37; O #1               -0.08663       0.72298       1.16909      -3.21185
   38; O #1               -0.01308       0.00290       0.02737      -0.02530
   39; O #1               -0.02245      -0.05978      -0.14249       0.45651
   40; O #1                0.00003       0.00013       0.00239      -0.00415
   41; O #1               -0.00068      -0.00056      -0.00324       0.00429
   42; H #2               -0.59683       0.07146       0.41409       0.12480
   43; H #2                0.08091       0.10180       1.35287      -1.71542
   44; H #2                0.16739       1.73869      -0.74397      -1.52315
   45; H #2               -0.00951      -0.01193       0.04785      -0.04248
   46; H #2               -0.01954       0.13427       0.04742      -0.92657
   47; H #2               -0.01284      -0.01084       0.03025      -0.03322
   48; H #2               -0.02387       0.10850      -0.02215      -0.75610
   49; H #2               -0.00057      -0.00020      -0.00147      -0.00034
   50; H #2                0.00159      -0.00449      -0.00763       0.03046
   51; H #2               -0.00578       0.00941       0.02992      -0.09128


                          MO # 39       MO # 40       MO # 41       MO # 42

    BASIS/ORB E            1.19690       1.52665       2.05298       2.96357
                        ----------    ----------    ----------    ----------
   35; O #1                0.06400       0.51141       0.04878       0.83089
   36; O #1                0.12616       0.98258       1.85299      -0.84499
   37; O #1                1.62796       0.69842       2.78336       0.25603
   38; O #1                0.00292      -0.00056      -0.01461       0.00148
   39; O #1               -0.06790       0.06451      -1.73497      -0.68333
   40; O #1               -0.00075      -0.00108       0.01836      -0.01338
   41; O #1               -0.00240       0.00071      -0.01785       0.02056
   42; H #2               -0.03882       0.57336      -1.73388       3.59053
   43; H #2                0.92162       1.14095       5.42865      -2.43698
   44; H #2                0.08380       0.53821       0.91840      -0.80109
   45; H #2                0.06900      -0.07166       0.16372      -0.16079
   46; H #2               -0.63371       1.46109       1.77708       0.06779
   47; H #2               -0.05898      -0.05711       0.16892      -0.09260
   48; H #2                1.04345       1.07555       1.27005       0.00062
   49; H #2                0.00351      -0.00233      -0.00221       0.03703
   50; H #2               -0.00100      -0.02675      -0.07763      -0.06414
   51; H #2                0.01060       0.08568       0.26589      -0.12612


                          MO # 43       MO # 44       MO # 45       MO # 46

    BASIS/ORB E            3.65581       3.87862       4.07616       4.58376
                        ----------    ----------    ----------    ----------
   35; O #1                0.00681       0.22352       1.59820       1.32167
   36; O #1                0.09342      -0.22845      -2.43240      -1.08621
   37; O #1                0.08808      -0.90952      -1.20790      -0.31283
   38; O #1               -0.06117      -0.02099       0.16748       0.00279
   39; O #1               -0.34966       0.42283      -0.19318       0.27437
   40; O #1                0.00370       0.02511      -0.00419      -0.00579
   41; O #1               -0.00731       0.01346       0.00984      -0.02287
   42; H #2                1.36936      -0.29828       1.00968       0.43883
   43; H #2               -0.72824      -0.44772      -2.14391      -0.89832
   44; H #2               -0.30452       0.06800      -0.72145      -0.22451
   45; H #2               -0.27168      -0.54419       0.35398       0.27711
   46; H #2                0.35148       0.27212      -1.12906      -0.87254
   47; H #2               -0.02323       0.60067       0.44836      -0.22036
   48; H #2                0.07380      -0.62151      -1.09364       0.24322
   49; H #2               -0.14235       0.05461      -0.09933       0.14676
   50; H #2                0.07985       0.01217       0.15884       0.24526
   51; H #2                0.43132       0.03468      -0.40199       0.39263


                          MO # 47       MO # 48       MO # 49       MO # 50

    BASIS/ORB E            4.86489       5.52802       7.06317       7.79377
                        ----------    ----------    ----------    ----------
   35; O #1                0.65872       1.92653       1.62835       1.24501
   36; O #1                1.74144      -3.49239      -2.53847      -1.67762
   37; O #1                1.19229      -1.59390      -1.15606      -1.12311
   38; O #1                0.21872      -0.18126      -0.25939      -0.62757
[...]
 Calculation of coupling coefficients...
 Length of intermediate file (Mbytes):   25849.8
 
 ======================================================================
 
 Spin case  1   Alpha:  2   Beta:  4
 Number of excitations:              605273500
 Spin case  2   Alpha:  3   Beta:  3
 Number of excitations:             2195543096
 Number of                     6 -fold excitations:             3406090096
 
 Memory requirements /Mbyte/: 
               Minimal        Optimal
 Real*8:      41385.3233     41385.3233
 Integer:        96.2610
 Total:       41481.5842     41481.5842
 

 ************************ 2019-03-28 00:14:50 *************************
 Executing mrcc...

 **********************************************************************
 CC(5)(6) calculation                                                   
 
 
 OpenMP parallel version is running.
 Number of CPUs:   6
 Allocation of41385.3 Mbytes of memory...
 Number of spinorbitals: 114
 Number of alpha electrons:  4
 Number of beta  electrons:  4
 Spin multiplicity: 1
 z-component of spin:  0.0
 Spatial symmetry: 1
 Convergence criterion:  1.0E-05
 Construction of occupation graphs...
 Number of 0-fold excitations: 1
 Number of 1-fold excitations: 132
 Number of 2-fold excitations: 15806
 Number of 3-fold excitations: 922740
 Number of 4-fold excitations: 27146592
 Number of 5-fold excitations: 418392156
 Total number of determinants: 446477427
 Calculation of coupling coefficients...
 Initial cluster amplitudes are read from unit 16.
 Length of intermediate file (Mbytes):   25849.8
 Reading integral list from unit 55...
 Sorting integrals...
 Energy of reference determinant [au]:     -76.057139157718
 Calculation of MP denominators...
 
 Starting CC iteration...
 ======================================================================
 Norm of residual vector:     0.01157650
 CPU time [min]:   283.261                   Wall time [min]:    59.547
 
 Iteration  1  CC energy:   -76.33258774  Energy decrease:   0.00000004
 ======================================================================
 Norm of residual vector:     0.00234231
 CPU time [min]:   578.328                   Wall time [min]:   120.687
 
 Iteration  2  CC energy:   -76.33258774  Energy decrease:   3.0825E-10
 ======================================================================
 Norm of residual vector:     0.00083495
 CPU time [min]:   871.034                   Wall time [min]:   181.202
 
 Iteration  3  CC energy:   -76.33259386  Energy decrease:   0.00000612
 ======================================================================
 Norm of residual vector:     0.00021674
 CPU time [min]:  1174.236                   Wall time [min]:   243.031
 
 Iteration  4  CC energy:   -76.33260376  Energy decrease:   0.00000990
 ======================================================================
 Norm of residual vector:     0.00006328
 CPU time [min]:  1466.663                   Wall time [min]:   304.141
 
 Iteration  5  CC energy:   -76.33260601  Energy decrease:   0.00000225
 ======================================================================
 Norm of residual vector:     0.00001808
 CPU time [min]:  1755.358                   Wall time [min]:   365.075
 
 Iteration  6  CC energy:   -76.33260617  Energy decrease:   0.00000016
 ======================================================================
 Norm of residual vector:     0.00000621
 CPU time [min]:  2047.282                   Wall time [min]:   424.333
 
 Iteration  7  CC energy:   -76.33260622  Energy decrease:   0.00000005
 ======================================================================
 
 Iteration has converged in  7 steps.
 
 Final results:
 Total CCSDTQP energy [au]:          -76.332606224178
 
 Perturbative corrections are calculated...
 ======================================================================
 Spin case  1   Alpha:  2   Beta:  4
 Number of excitations:        605273500
 CPU time [min]: 10363.655                   Wall time [min]:  1904.227
 ======================================================================
 Spin case  2   Alpha:  3   Beta:  3
 Number of excitations:        2195543096
 CPU time [min]: 26406.599                   Wall time [min]:  4740.738
 ======================================================================
 Number of 6-fold excitations: 3406090096
 CPU time [min]: 26419.693                   Wall time [min]:  4745.358
 
 Total CC(5)[6] energy [au]:         -76.332606193897
 Total CC(5)(6) energy [au]:         -76.332606773609
 
 Dominant cluster amplitudes
 Printing threshold:  1.00E-02
 
    1.000000  Reference determinant                                     
   -0.020003  3b 4b -> 9b 10b                                           
    0.011692  3b 4b -> 10b 15b                                          
    0.010775  3b 4b -> 19b 23b                                          
   -0.012967  2b 3b -> 6b 9b                                            
    0.015085  2b 3b -> 7b 11b                                           
    0.013556  2b 3b -> 9b 12b                                           
    0.010590  2b 3b -> 7b 22b                                           
   -0.015811  2b 4b -> 6b 10b                                           
    0.017225  2b 4b -> 10b 12b                                          
    0.014682  2b 4b -> 8b 13b                                           
   -0.012985  3a 1b -> 9a 5b                                            
    0.012125  3a 1b -> 9a 15b                                           
    0.010173  3a 1b -> 15a 15b                                          
   -0.012985  1a 3b -> 5a 9b                                            
    0.012125  1a 3b -> 15a 9b                                           
    0.010173  1a 3b -> 15a 15b                                          
   -0.013200  3a 3b -> 5a 5b                                            
   -0.011187  3a 3b -> 9a 5b                                            
   -0.011187  3a 3b -> 5a 9b                                            
   -0.031147  3a 3b -> 9a 9b                                            
   -0.018737  3a 3b -> 15a 9b                                           
   -0.017365  3a 3b -> 11a 11b                                          
   -0.018737  3a 3b -> 9a 15b                                           
   -0.017841  3a 3b -> 15a 15b                                          
   -0.010397  4a 4b -> 5a 5b                                            
   -0.010951  4a 4b -> 8a 8b                                            
   -0.015317  4a 4b -> 15a 15b                                          
   -0.012956  4a 4b -> 23a 23b                                          
   -0.011084  2a 2b -> 5a 5b                                            
    0.012527  2a 2b -> 8a 5b                                            
    0.012527  2a 2b -> 5a 8b                                            
   -0.026873  2a 2b -> 8a 8b                                            
   -0.011349  2a 2b -> 18a 8b                                           
   -0.011349  2a 2b -> 8a 18b                                           
   -0.011714  3a 3b -> 19a 19b                                          
   -0.049764  4a 4b -> 10a 10b                                          
   -0.011339  4a 4b -> 30a 10b                                          
   -0.014174  4a 4b -> 19a 19b                                          
   -0.011339  4a 4b -> 10a 30b                                          
   -0.010283  3a 3b -> 7a 6b                                            
   -0.010283  3a 3b -> 6a 7b                                            
   -0.023622  3a 3b -> 7a 7b                                            
   -0.011733  3a 3b -> 17a 7b                                           
   -0.011733  3a 3b -> 7a 17b                                           
   -0.020775  2a 2b -> 6a 6b                                            
   -0.015011  2a 2b -> 7a 6b                                            
   -0.019997  2a 2b -> 12a 6b                                           
   -0.015011  2a 2b -> 6a 7b                                            
   -0.028057  2a 2b -> 7a 7b                                            
   -0.013991  2a 2b -> 12a 7b                                           
   -0.014501  2a 2b -> 17a 7b                                           
   -0.019997  2a 2b -> 6a 12b                                           
   -0.013991  2a 2b -> 7a 12b                                           
   -0.023482  2a 2b -> 12a 12b                                          
   -0.010874  2a 2b -> 17a 12b                                          
   -0.014501  2a 2b -> 7a 17b                                           
   -0.010874  2a 2b -> 12a 17b                                          
   -0.012990  2a 2b -> 17a 17b                                          
   -0.011046  4a 4b -> 13a 13b                                          
   -0.014187  4a 4b -> 21a 21b                                          
   -0.012241  2a 2b -> 13a 13b                                          
   -0.016844  1a 4b -> 5a 10b                                           
    0.011387  1a 4b -> 8a 10b                                           
    0.015065  1a 4b -> 15a 10b                                          
    0.012809  1a 4b -> 18a 10b                                          
   -0.027606  3a 4b -> 9a 10b                                           
   -0.016328  3a 4b -> 15a 10b                                          
   -0.016844  4a 1b -> 10a 5b                                           
    0.011387  4a 1b -> 10a 8b                                           
    0.015065  4a 1b -> 10a 15b                                          
    0.012809  4a 1b -> 10a 18b                                          
   -0.027606  4a 3b -> 10a 9b                                           
   -0.016328  4a 3b -> 10a 15b                                          
   -0.011804  3a 4b -> 7a 13b                                           
   -0.011804  4a 3b -> 13a 7b                                           
   -0.010714  1a 2b -> 5a 6b                                            
   -0.012821  1a 2b -> 5a 12b                                           
    0.010123  1a 2b -> 8a 12b                                           
    0.010503  1a 2b -> 15a 12b                                          
   -0.010445  3a 2b -> 5a 6b                                            
   -0.017360  3a 2b -> 9a 6b                                            
   -0.010119  3a 2b -> 5a 7b                                            
   -0.011358  3a 2b -> 9a 7b                                            
    0.014210  3a 2b -> 11a 7b                                           
   -0.018652  3a 2b -> 9a 12b                                           
   -0.010486  3a 2b -> 15a 12b                                          
    0.019356  2a 3b -> 8a 7b                                            
    0.019356  3a 2b -> 7a 8b                                            
   -0.010714  2a 1b -> 6a 5b                                            
   -0.012821  2a 1b -> 12a 5b                                           
    0.010123  2a 1b -> 12a 8b                                           
    0.010503  2a 1b -> 12a 15b                                          
   -0.010445  2a 3b -> 6a 5b                                            
   -0.010119  2a 3b -> 7a 5b                                            
   -0.017360  2a 3b -> 6a 9b                                            
   -0.011358  2a 3b -> 7a 9b                                            
   -0.018652  2a 3b -> 12a 9b                                           
    0.014210  2a 3b -> 7a 11b                                           
   -0.010486  2a 3b -> 12a 15b                                          
    0.010229  2a 4b -> 8a 13b                                           
   -0.020733  4a 2b -> 10a 6b                                           
   -0.011150  4a 2b -> 10a 7b                                           
   -0.010551  4a 2b -> 14a 7b                                           
   -0.023410  4a 2b -> 10a 12b                                          
   -0.011524  4a 2b -> 10a 17b                                          
   -0.020733  2a 4b -> 6a 10b                                           
   -0.011150  2a 4b -> 7a 10b                                           
   -0.023410  2a 4b -> 12a 10b                                          
   -0.011524  2a 4b -> 17a 10b                                          
   -0.010551  2a 4b -> 7a 14b                                           
    0.010229  4a 2b -> 13a 8b                                           
   -0.020003  3a 4a -> 9a 10a                                           
    0.011692  3a 4a -> 10a 15a                                          
    0.010775  3a 4a -> 19a 23a                                          
   -0.012967  2a 3a -> 6a 9a                                            
    0.015085  2a 3a -> 7a 11a                                           
    0.013556  2a 3a -> 9a 12a                                           
    0.010590  2a 3a -> 7a 22a                                           
   -0.015811  2a 4a -> 6a 10a                                           
    0.017225  2a 4a -> 10a 12a                                          
    0.014682  2a 4a -> 8a 13a                                           

 ************************ 2019-03-31 07:20:35 *************************
 Executing goldstone...

 Generation of CC equations in terms of H and T...
 Generation of antisymmetrized Goldstone diagrams...
 Number of diagrams in T^1 equations:    15
 Number of diagrams in T^2 equations:    38
 Number of diagrams in T^3 equations:    54
 Number of diagrams in T^4 equations:    81
 Number of diagrams in T^5 equations:   106
 Number of diagrams in T^6 equations:   137
 Number of diagrams in T^7 equations:    20
 Translation of diagrams to factorized equations...
 Optimizing intermediate calculation...
 Number of floating-point operations per iteration step:   4.9553E+15
 Probable CPU time per iteration step (hours):  49553.33
 Required memory (Mbytes):  371857.7
 Number of intermediates:                                 216
 Number of intermediates to be stored:                     90
 Length of intermediate file (Mbytes):  140812.8

 ************************ 2019-03-31 07:20:36 *************************
 Executing xmrcc...

 **********************************************************************
 CC(6)(7) calculation 
 
 
 Allocation of****** Mbytes of memory...
 Number of spinorbitals:                   114
 Number of alpha electrons:                        4
 Number of beta electrons:                         4
 Spin multiplicity:                     1
 z-component of spin:  0.0
 Spatial symmetry:                      1
 Convergence criterion:  1.0E-05
 Construction of occupation graphs...
 Number of                     0 -fold excitations:                      1
 Number of                     1 -fold excitations:                    132
 Number of                     2 -fold excitations:                  15806
 Number of                     3 -fold excitations:                 922740
 Number of                     4 -fold excitations:               27146592
 Number of                     5 -fold excitations:              418392156
 Number of                     6 -fold excitations:             3406090096
 Total number of configurations:             3852567523
 Calculation of coupling coefficients...
 Length of intermediate file (Mbytes):   81289.2
 
 ======================================================================
 
 Spin case  1   Alpha:  3   Beta:  4
 Number of excitations:             6860087650
 Number of                     7 -fold excitations:            13720175300
 
 Memory requirements /Mbyte/: 
               Minimal        Optimal
 Real*8:     227822.8241    227822.8241
 Integer:        96.4292
 Total:      227919.2533    227919.2533
 

 ************************ 2019-03-31 07:20:38 *************************
 Executing mrcc...

 **********************************************************************
 CC(6)(7) calculation                                                   
 
 
 OpenMP parallel version is running.
 Number of CPUs:   6
 Allocation of******* Mbytes of memory...
 Number of spinorbitals: 114
 Number of alpha electrons:  4
 Number of beta  electrons:  4
 Spin multiplicity: 1
 z-component of spin:  0.0
 Spatial symmetry: 1
 Convergence criterion:  1.0E-05
 Construction of occupation graphs...
 Number of 0-fold excitations: 1
 Number of 1-fold excitations: 132
 Number of 2-fold excitations: 15806
 Number of 3-fold excitations: 922740
 Number of 4-fold excitations: 27146592
 Number of 5-fold excitations: 418392156
 Number of 6-fold excitations: 3406090096
 Total number of determinants: 3852567523
 Calculation of coupling coefficients...
 Initial cluster amplitudes are read from unit 16.
 Length of intermediate file (Mbytes):   81289.2
 Reading integral list from unit 55...
 Sorting integrals...
 Energy of reference determinant [au]:     -76.057139157718
 Calculation of MP denominators...
 
 Starting CC iteration...
 ======================================================================
 Norm of residual vector:     0.00260456
 CPU time [min]:  8708.075                   Wall time [min]:  1767.785
 
 Iteration  1  CC energy:   -76.33260621  Energy decrease:   0.00000002
 ======================================================================
 Norm of residual vector:     0.00055497
 CPU time [min]: 17600.774                   Wall time [min]:  3554.238
 
 Iteration  2  CC energy:   -76.33260622  Energy decrease:   0.00000001
 ======================================================================
 Norm of residual vector:     0.00019769
 CPU time [min]: 25978.134                   Wall time [min]:  5242.844
 
 Iteration  3  CC energy:   -76.33260609  Energy decrease:   0.00000013
 ======================================================================
 Norm of residual vector:     0.00005115
 CPU time [min]: 35188.465                   Wall time [min]:  7140.467
 
 Iteration  4  CC energy:   -76.33260642  Energy decrease:   0.00000033
 ======================================================================
 Norm of residual vector:     0.00001391
 CPU time [min]: 43939.666                   Wall time [min]:  8931.225
 
 Iteration  5  CC energy:   -76.33260690  Energy decrease:   0.00000047
 ======================================================================
 Norm of residual vector:     0.00000411
 CPU time [min]: 52527.061                   Wall time [min]: 10663.974
 
 Iteration  6  CC energy:   -76.33260694  Energy decrease:   0.00000005
 ======================================================================
 
 Iteration has converged in  6 steps.
 
 Final results:
 Total CC(6) energy [au]:            -76.332606941885
 
 Perturbative corrections are calculated...
 ======================================================================
 Spin case  1   Alpha:  3   Beta:  4
 Number of excitations:        6860087650
 
 Fatal error in mrcc.
 Program will stop.
 
 ************************ 2019-05-01 16:38:02 *************************
                   Error at the termination of mrcc.
 **********************************************************************
--executable dmrcc finished with status   256 in  3003369.06 seconds (walltime).
  This computation required                      3003372.56 seconds (walltime).
--- SharcNET Job Epilogue ---
Job completed successfully.
               jobid: 1667517
               resid: 3143827
         exit status: 0
      allocated time: 3003370
           user time: 17093800
         system time: 43381.7
peak rss=300647710720; peak vsz=302490771456 (bytes)
atime=3003370; utime=17093800; stime=43381.7; exit=0
