 --invoking executable--
/project1/nike/cfour_v2.00beta_withApril2019xnmol/bin/xjoda


   *************************************************************************
         <<<     CCCCCC     CCCCCC   |||     CCCCCC     CCCCCC   >>>
       <<<      CCC        CCC       |||    CCC        CCC         >>>
      <<<      CCC        CCC        |||   CCC        CCC            >>>
    <<<        CCC        CCC        |||   CCC        CCC              >>>
      <<<      CCC        CCC        |||   CCC        CCC            >>>
       <<<      CCC        CCC       |||    CCC        CCC         >>>
         <<<     CCCCCC     CCCCCC   |||     CCCCCC     CCCCCC   >>>
   *************************************************************************

     ****************************************************************
     * CFOUR Coupled-Cluster techniques for Computational Chemistry *
     ****************************************************************
 

   Department of Chemistry                Institut fuer Physikalische Chemie
   University of Texas at Austin          Universitaet Mainz
   Austin, TX  78712, USA                 D-55099 Mainz, Germany
 
                       Version 2.00beta
 
                     wob109                                            
                     Sat May  4 17:09:29 EDT 2019                      
                     integer*8 version is running
 
********************************************************************************
*                          Input from ZMAT file                                *
********************************************************************************
TITLE                                                                           
O                                                                               
H 1 R                                                                           
H 1 R 2 A                                                                       
                                                                                
R=0.9576257                                                                     
A=104.51                                                                        
                                                                                
*ACES2(CALC=CCSD                                                                
PRINT=3                                                                         
JODA_PRINT=4                                                                    
INPUT_MRCC=OFF                                                                  
CC_PROG=MRCC                                                                    
FROZEN_CORE=ON                                                                  
#DROPMO=1>5                                                                     
CONTRACTION=GENERAL                                                             
RELATIVISTIC=OFF                                                                
EXCITE=EOMEE                                                                    
ESTATE_CONV=5                                                                   
ESTATE_SYM=2/2/2/2/2/2/2/2                                                      
XFORM_TOL=18                                                                    
SAVE_INTS=ON                                                                    
SCF_EXPORDER=6                                                                  
SCF_EXPSTART=5                                                                  
#SCF_DAMPING=1000                                                               
SCF_EXTRAPOLATION=ON                                                            
SCF_CONV=8                                                                      
SCF_MAXCYC=9999                                                                 
CC_CONV=6                                                                       
CC_MAXCYC=999                                                                   
T3_EXTRAPOL=ON                                                                  
REFERENCE=RHF                                                                   
CHARGE=+0                                                                       
MULT=1                                                                          
ABCDTYPE=STANDARD                                                               
#OCCUPATION=3-2-2-0-1-0-0-0/3-1-1-0-1-0-0-0                                     
MEM=32                                                                          
MEM_UNIT=GB                                                                     
BASIS=SPECIAL)                                                                  
                                                                                
O:V8Z-FELLER                                                                    
H:V8Z-FELLER                                                                    
H:V8Z-FELLER                                                                    
                                                                                
********************************************************************************
  @GTFLGS-W, Keyword #DROPMO not known and is ignored.
  @GTFLGS-W, Keyword #SCF_DAMPING not known and is ignored.
  @GTFLGS-W, Keyword #OCCUPATION not known and is ignored.
    -------------------------------------------------------------------
                    CFOUR Control Parameters 
    -------------------------------------------------------------------
        External           Internal           Value            Units
          Name               Name
    -------------------------------------------------------------------
       ABCDTYPE             IABCDT         STANDARD     [  0]   ***   
       ANHARMONIC           IANHAR         OFF          [  0]   ***   
       ANH_ALGORIT          IANALG         STANDARD     [  0]   ***   
       ANH_DERIVAT          IANDER         SECOND       [  1]   ***   
       ANH_STEPSIZ          ICUBST             50000          x 10-6  
       ANH_SYMMETR          IANHSM         ABELIAN      [  0]   ***   
       AO_LADDERS           IAOLAD         SINGLEPASS   [  1]   ***   
       BASIS                IBASIS         SPECIAL      [  0]   ***   
       BREIT                IBREIT         OFF          [  0]   ***   
       BRUCK_CONV           IBRTOL          10D-  4             ***   
       BRUECKNER            IBRKNR             OFF      [  0]   ***   
       BUFFERSIZE           IBUFFS            600               ***   
       CACHE_RECS           ICHREC             10               ***   
       CALCLEVEL            ICLLVL           CCSD       [ 10]   ***   
       CCORBOPT             ICCORB             OFF      [  0] x 0.01  
       CC_CONV              ICCCNV          10D-  6             ***   
       CC_EXPORDER          ICCEOR              5               ***   
       CC_EXTRAPOL          ICCEXT             DIIS     [  1]   ***   
       CC_MAXCYC            ICCCYC            999              cycles 
       CC_PROGRAM           ICCPRO         MRCC         [  2]   ***   
       CHARGE               ICHRGE              0               ***   
       CHOLESKY             ICHOLE         OFF          [  0]   ***   
       CIS_CONV             ICISTL              5               ***   
       COMM_SIZE            IPSIZE            ***               ***   
       CONSTANT             ICONST         OLD          [  1]   ***   
       CONTINUUM            ICONTU         NONE         [  0]   ***   
       CONTRACTION          ICNTYP          GENERAL     [  1]   ***   
       COORDINATES          ICOORD         INTERNAL     [  0]   ***   
       CPHF_CONVER          ICPHFT          10D- 16             ***   
       CPHF_MAXCYC          ICPHFC             64              cycles 
       CUBIC                ICUBIC         OFF          [  0]   ***   
       CURVILINEAR          ICURVY            OFF       [  0]   ***   
       DBOC                 IDBOC          OFF          [  0]   ***   
       DCT                  IDCT           OFF          [  0]   ***   
       DERIV_LEV            IDRLVL            ZERO      [  0]   ***   
       DIAG_MRCC            IEOMST          10D-  0             ***   
       DIFF_TYPE            IDIFTY         RELAXED      [  0]   ***   
       DIRECT               IDIRCT         OFF          [  0]   ***   
       DROPMO               IDRPMO      NONE         
       ECP                  IECP           OFF          [  0]   ***   
       EIGENVECTOR          IVEC                1               ***   
       EL_ANHARM            IELANH         OFF          [  0]   ***   
       EOMFOLLOW            IEOMSR         ENERGY       [  0]   ***   
       EOM_MRCC             IMRCCE         NEW          [  1]   ***   
       EOM_NONIT            EOMNON         OFF          [  0]   ***   
       EOM_NSING            IEOMSI          10D-  0             ***   
       EOM_NSTATES          IMRCCD         DAVIDSON     [  0]   ***   
       EOM_NTRIP            IEOMTR          10D-  0             ***   
       EOM_ORDER            IEXORD         ENERGY       [  0]   ***   
       ESTATE_CONV          IEXTOL          10D-  5             ***   
       ESTATE_DIAG          IEXDIG         ITERATIVE    [  0]   ***   
       ESTATE_LOCK          IESLOC         ON           [  1]   ***   
       ESTATE_MAXC          IEXMXC             20               ***   
       ESTATE_PROP          IEXPRP         OFF          [  0]   ***   
       ESTATE_SYM           IEXSYM   2,  2,  2,  2,  2,  2,  2,  2,
       EVAL_HESS            IRECAL              0            # of cyc.
       EXCITATION           IEXCIT              0               ***   
       EXCITE               IEXCIT         EOMEE        [  3]   ***   
       FCGRADNEW            IFCGNW         OFF          [  0]   ***   
       FC_FIELD             IFINFC              0             x 10-6  
       FD_CALTYPE           IFDCAL         GRADONLY     [  0]   ***   
       FD_PROJECT           IFDPRJ         OFF          [  1]   ***   
       FD_STEPSIZE          IDISFD              0            10-4 bohr
       FD_USEGROUP          IFDGRP         FULL         [  0]   ***   
       FILE_RECSIZ          IFLREC              4096           words  
       FINITE_PERT          IFIPER              0             x 10-6  
       FIXGEOM              IFIXGM         OFF          [  0]   ***   
       FOCK                 IFOCK          AO           [  1]   ***   
       FREQ_ALGORI          IVIALG         STANDARD     [  0]   ***   
       FROZEN_CORE          IFROCO         ON           [  1]   ***   
       FROZEN_VIRT          IFROVI         OFF          [  0]   ***   
       GAMMA_ABCD           IGABCD         STORE        [  0]   ***   
       GAMMA_ABCI           IGABCI         STORE        [  0]   ***   
       GENBAS_1             IGNBS1              0               ***   
       GENBAS_2             IGNBS2              0               ***   
       GENBAS_3             IGNBS3              0               ***   
       GENBAS_4             IGNBS4              0               ***   
       GEO_CONV             ICONTL              5              H/bohr 
       GEO_MAXCYC           IOPTCY             50               ***   
       GEO_MAXSTEP          IMXSTP            300            millibohr
       GEO_METHOD           INR            SINGLE_POINT [  5]   ***   
       GIAO                 IGIAO          OFF          [  1]   ***   
       GIMIC                IGIMIC         OFF          [  0]   ***   
       GRID                 IGRID          OFF          [  0]   ***   
       GRID_ALGO            IGALGO         SERIAL       [  0]   ***   
       GUESS                IGUESS            MOREAD    [  0]   ***   
       HBAR                 IHBAR               ON      [  1]   ***   
       HESS_TYPE            IHESTP         SCF          [  0]   ***   
       HF2_FILE             IHF2Fl         USE          [  1]   ***   
       HFSTABILITY          ISTABL         OFF          [  0]   ***   
       INCORE               INCORE             OFF      [  0]   ***   
       INPUT_MRCC           IMRCC          OFF          [  0]   ***   
       INTEGRALS            INTTYP             VMOL     [  1]   ***   
       JODA_PRINT           IJPRNT              4               ***   
       LINDEP_TOL           ILINDP              8               ***   
       LINEQ_CONV           IZTACN          10D-  7           cycles  
       LINEQ_EXPOR          ILMAXD              5               ***   
       LINEQ_MAXCY          ILMAXC             50               ***   
       LINEQ_TYPE           ILTYPE         DIIS         [  1]   ***   
       LOCK_ORBOCC          ILOCOC             OFF      [  0]   ***   
       MEMORY_SIZE          IMEMSZ         *********           words  
       MEM_UNIT             IMEMU          GB           [  3]   ***   
       MRCC                 IMRCCC         OFF          [  0]   ***   
       MULTIPLICTY          IMULTP              1               ***   
       NEGEVAL              IDIE             ABORT      [  0]   ***   
       NEWNORM              INEWNO         OFF          [  0]   ***   
       NON-HF               INONHF             OFF      [  0]   ***   
       NTOP_TAMP            ITOPT2             15               ***   
       NUC_MODEL            INUCMO         POINT        [  0]   ***   
       OCCUPATION           IOCCU   ESTIMATED BY SCF 
       OPEN-SHELL           IOPEN          SPIN-ORBITAL [  0]   ***   
       ORBITALS             IORBTP           STANDARD   [  0]   ***   
       PARALLEL             IPARAL         ON           [  1]   ***   
       PARA_INT             IPINTS         ON           [  1]   ***   
       PARA_PRINT           IPPRIN              0               ***   
       PERT_ORB             IPTORB         STANDARD     [  0]   ***   
       POINTS               IGRDFD              0               ***   
       PRINT                IPRNT               3               ***   
       PROPS                IPROPS             OFF      [  0]   ***   
       PROP_INTEGR          IINTYP         INTERNAL     [  0]   ***   
       PSI                  IPSI           OFF          [  0]   ***   
       QUARTIC              IQUART         OFF          [  0]   ***   
       RAMAN_INT            IRAMIN         OFF          [  0]   ***   
       RAMAN_ORB            IRAMRE         UNRELAXED    [  0]   ***   
       RDO                  IRDOFM             OFF      [  0]   ***   
       REFERENCE            IREFNC             RHF      [  0]   ***   
       RELATIVIST           IRELAT         OFF          [  0]   ***   
       RELAX_DENS           IRDENS             OFF      [  0]   ***   
       RESET_FLAGS          IRESET             OFF      [  0]   ***   
       RESTART_CC           ICCRES         OFF          [  0]   ***   
       ROT_EVEC             ROTVEC              0               ***   
       SAVE_INTS            ISVINT              ON      [  1]   ***   
       SCALE_ON             ISTCRT              0               ***   
       SCF_CONV             ISCFCV          10D-  8             ***   
       SCF_DAMPING          IDAMP               0             x 10-3  
       SCF_EXPORDE          IRPPOR              6               ***   
       SCF_EXPSTAR          IRPPLS              5               ***   
       SCF_EXTRAPO          IRPP                ON      [  1]   ***   
       SCF_MAXCYC           ISCFCY            ***              cycles 
       SCF_NOSTOP           ISCFST         OFF          [  0]   ***   
       SCF_PRINT            ISCFPR              0               ***   
       SD_FIELD             IFINSD              0             x 10-6  
       SEQUENCE             ISEQUE         OFF          [  0]   ***   
       SOPERT               IPERSO         OFF          [  0]   ***   
       SPHERICAL            IDFGHI             ON       [  1]   ***   
       SPINORBIT            ISOCAL         OFF          [  0]   ***   
       SPINROTATIO          ISRCON         OFF          [  0]   ***   
       SPIN_FLIP            ISPFLP         OFF          [  0]   ***   
       SPIN_ORBIT           ISPORB         OFF          [  0]   ***   
       SPIN_SCAL            ISCSMP         OFF          [  0]   ***   
       SUBGROUP             ISUBGP         DEFAULT      [  0]   ***   
       SUBGRPAXIS           ISBXYZ         X            [  0]   ***   
       SYMMETRY             ISYM             ON         [  0]   ***   
       SYM_CHECK            ISYMCK         OVERRIDE     [  1]   ***   
       T3_EXTRAPOL          IT3EXT         ON           [  1]   ***   
       TAMP_SUM             IEVERY              5               ***   
       TESTSUITE            ITESTS         OFF          [  0]   ***   
       THERMOCH             ITHERM         OFF          [  0]   ***   
       TOL_CHOLESK          ITOLCH          10D-  4             ***   
       TRANGRAD             IRESRM         OFF          [  0]   ***   
       TRANS_INV            ITRAIN         USE          [  0]   ***   
       TREAT_PERT           ITREAT         SIMULTANEOUS [  0]   ***   
       UIJ_THRESHO          IUIJTH              1               ***   
       UNITS                IUNITS         ANGSTROM     [  0]   ***   
       UNOS                 IUNOS          OFF          [  0]   ***   
       UPDATE_HESS          IHUPDT         ON           [  1]   ***   
       VIBPHASE             ISETPH         STANDARD     [  0]   ***   
       VIBRATION            IVIB              NO        [  0]   ***   
       VIB_ALGORIT          IGEALG         STANDARD     [  0]   ***   
       VNATORB              IVNORB         OFF          [  0]   ***   
       VTRAN                IVTRAN         FULL/PARTIAL [  0]   ***   
       XFIELD               IXEFLD              0             x 10-6  
       XFORM_TOL            IXFTOL          10D- 18             ***   
       YFIELD               IYEFLD              0             x 10-6  
       ZFIELD               IZEFLD              0             x 10-6  
    -------------------------------------------------------------------
   3 entries found in Z-matrix 
   Job Title : TITLE                                                                           
 Variable names read by FETCHZ
  1           
  2           
  3           
  4 R         
  5           
  6           
  7 R         
  8 A         
  9           
 Atomic symbols read by FETCHZ
  1 O    
  2 H    
  3 H    
 Connectivity matrix read by FETCHZ
  1   0
  2   0
  3   0
  4   1
  5   0
  6   0
  7   1
  8   2
  9   0
   There are  2 unique internal coordinates.
   Of these,  0 will be optimized.
   User supplied Z-matrix: 
--------------------------------------------------------------------------------
       SYMBOL    BOND      LENGTH    ANGLE     ANGLE     DIHED     ANGLE
                  TO      (ANGST)    WRT      (DEG)      WRT      (DEG)
--------------------------------------------------------------------------------
        O    
        H          1         R    
        H          1         R          2        A    
                  *Initial values for internal coordinates* 
                      Name             Value
                        R               0.9576257000
                        A             104.5100000000
--------------------------------------------------------------------------------
  1  O          8    15.99491
  2  H          1     1.00783
  3  H          1     1.00783
   15.9949146300
    1.0078250350
    1.0078250350
 After translation to center of mass coordinates 
       -0.098033508258    0.000000000000   -0.075891969219
       -0.098033508258    0.000000000000    1.733758712944
        1.653896421974    0.000000000000   -0.529298090715
  Inertia tensor (amu*bohr**2)
    3.40391    0.00000    0.93455
    0.00000    6.32410    0.00000
    0.93455    0.00000    2.92018
    Inertia tensor:
        3.403913567470    0.000000000000    0.934549268627
        0.000000000000    6.324097332824    0.000000000000
        0.934549268627    0.000000000000    2.920183765354
    Principal axis orientation for molecular system: 
        0.000000000000   -0.123976448301    0.000000000000
       -1.430968603519    0.983798098796    0.000000000000
        1.430968603519    0.983798098796    0.000000000000
    Diagonalized inertia tensor:
        2.196708847563    0.000000000000    0.000000000000
        0.000000000000    4.127388485261    0.000000000000
        0.000000000000    0.000000000000    6.324097332824
    Eigenvectors of inertia tensor: 
        0.612148277021    0.790742996769    0.000000000000
        0.000000000000    0.000000000000    1.000000000000
       -0.790742996769    0.612148277021    0.000000000000
 factor:   60.1997200000000     
   Rotational constants (in cm-1): 
          9.5191008031            14.5854261635            27.4045056389
   Rotational constants (in MHz): 
     285375.5027524238        437260.1373131822        821566.5256739719
  @SYMMETRY-I, Handedness of inertial frame:-1.00000
  @SYMMETRY-I, Sense of inertial frame y-axis will be changed.
  @SYMMETRY-I, The symmetry group is 1-fold degenerate.
  @SYMMETRY-I, The molecule belongs to an Abelian group.
   Principal axis orientation for molecule:
        0.000000000000    0.123976448301    0.000000000000
       -1.430968603519   -0.983798098796    0.000000000000
        1.430968603519   -0.983798098796    0.000000000000
   Reflection in plane  3 is a valid symmetry operation.
   Rotation about  2 is a valid symmetry operation 
   Reflection in plane  1 is a valid symmetry operation.
  Symmetry bits:    5   2   0
********************************************************************************
   The full molecular point group is C2v .
   The largest Abelian subgroup of the full molecular point group is C2v .
   The computational point group is C2v .
********************************************************************************
--------------------------------------------------------------------------------
   Analysis of internal coordinates specified by Z-matrix 
--------------------------------------------------------------------------------
   *The nuclear repulsion energy is    9.190899028787090 a.u.
   *There are   2 degrees of freedom within the tot. symm. molecular subspace.
   *Z-matrix requests optimization of   0 coordinates.
   *The optimization is constrained.
   *The following   2 parameters can have non-zero 
    derivatives within the totally symmetric subspace:
             A    [ 3]  R    [ 1]
   *The following   0 parameters are to be optimized:

   *The following coordinates must be varied in an  unconstrained optimization.
             A    [ 3]  R    [ 1]
--------------------------------------------------------------------------------
 ----------------------------------------------------------------
 Z-matrix   Atomic            Coordinates (in bohr)
  Symbol    Number           X              Y              Z
 ----------------------------------------------------------------
     O         8         0.00000000     0.00000000     0.12397645
     H         1         0.00000000    -1.43096860    -0.98379810
     H         1         0.00000000     1.43096860    -0.98379810
 ----------------------------------------------------------------
   Interatomic distance matrix (Angstroms) 
 
                 O             H             H    
                [ 1]        [ 2]        [ 3]
  O    [ 1]     0.00000
  H    [ 2]     0.95763     0.00000
  H    [ 3]     0.95763     1.51447     0.00000
  Inertia tensor (amu*bohr**2)
    6.32410    0.00000    0.00000
    0.00000    2.19671    0.00000
    0.00000    0.00000    4.12739
   Rotational constants (in cm-1): 
          9.5191008031            27.4045056389            14.5854261635
   Rotational constants (in MHz): 
     285375.5027524236        821566.5256739716        437260.1373131821
  @GTFLGS-W, Keyword #DROPMO not known and is ignored.
  @GTFLGS-W, Keyword #SCF_DAMPING not known and is ignored.
  @GTFLGS-W, Keyword #OCCUPATION not known and is ignored.
  There is   1 frozen-core orbital.
  There are **** basis functions.
 @GEOPT-W, Archive file not created for single-point calculation.
error 
--executable xjoda finished with status     0 in        0.59 seconds (walltime).
 --invoking executable--
/project1/nike/cfour_v2.00beta_withApril2019xnmol/bin/xvmol
Running with 14 threads/proc

********************************************************************************
                   INPUT FROM MOL FILE                                          
********************************************************************************
INTGRL        1    0    1    0    0    0    0    0    0
         *** CFOUR Program System (Release V0.1) *** 
TITLE
    2    2 X  Y       0.10E-08              0    0
   9999.00      3.00
          8.00000000    1    9    1    1    1    1    1    1    1    1    1
O #1   0.000000000000000   0.000000000000000   0.123976448300873
   20    9
   4968020.11000000       3.700000000000000E-007 -8.000000000000000E-008
  0.000000000000000E+000  0.000000000000000E+000  0.000000000000000E+000
  0.000000000000000E+000  0.000000000000000E+000  0.000000000000000E+000
  0.000000000000000E+000
   767184.019000000       2.720000000000000E-006 -6.200000000000000E-007
  0.000000000000000E+000  0.000000000000000E+000  0.000000000000000E+000
  0.000000000000000E+000  0.000000000000000E+000  0.000000000000000E+000
  0.000000000000000E+000
   179922.002000000       1.379000000000000E-005 -3.130000000000000E-006
  0.000000000000000E+000  0.000000000000000E+000  0.000000000000000E+000
  0.000000000000000E+000  0.000000000000000E+000  0.000000000000000E+000
  0.000000000000000E+000
   52168.3994000000       5.683000000000000E-005 -1.289000000000000E-005
  0.000000000000000E+000  0.000000000000000E+000  0.000000000000000E+000
  0.000000000000000E+000  0.000000000000000E+000  0.000000000000000E+000
  0.000000000000000E+000
   17293.4001000000       2.042000000000000E-004 -4.636000000000000E-005
  0.000000000000000E+000  0.000000000000000E+000  0.000000000000000E+000
  0.000000000000000E+000  0.000000000000000E+000  0.000000000000000E+000
  0.000000000000000E+000
   6310.46971000000       6.617200000000000E-004 -1.502100000000000E-004
  0.000000000000000E+000  0.000000000000000E+000  0.000000000000000E+000
  0.000000000000000E+000  0.000000000000000E+000  0.000000000000000E+000
  0.000000000000000E+000
   2481.42017000000       1.969230000000000E-003 -4.480000000000000E-004
  0.000000000000000E+000  0.000000000000000E+000  0.000000000000000E+000
  0.000000000000000E+000  0.000000000000000E+000  0.000000000000000E+000
  0.000000000000000E+000
   1036.74998000000       5.458110000000000E-003 -1.244660000000000E-003
  0.000000000000000E+000  0.000000000000000E+000  0.000000000000000E+000
  0.000000000000000E+000  0.000000000000000E+000  0.000000000000000E+000
  0.000000000000000E+000
   454.070076000000       1.427790000000000E-002 -3.282780000000000E-003
  0.000000000000000E+000  0.000000000000000E+000  0.000000000000000E+000
  0.000000000000000E+000  0.000000000000000E+000  0.000000000000000E+000
  0.000000000000000E+000
   205.801868000000       3.530343000000000E-002 -8.231730000000000E-003
  0.000000000000000E+000  0.000000000000000E+000  0.000000000000000E+000
  0.000000000000000E+000  0.000000000000000E+000  0.000000000000000E+000
  0.000000000000000E+000
   95.7597100000000       8.052299000000000E-002 -1.938959000000000E-002
  0.000000000000000E+000  0.000000000000000E+000  0.000000000000000E+000
  0.000000000000000E+000  0.000000000000000E+000  0.000000000000000E+000
  0.000000000000000E+000
   45.6037810000000       0.161898400000000      -4.135307000000000E-002
  0.000000000000000E+000  0.000000000000000E+000  0.000000000000000E+000
  0.000000000000000E+000  0.000000000000000E+000  0.000000000000000E+000
  0.000000000000000E+000
   22.1827000000000       0.267647940000000      -7.730378000000000E-002
  0.000000000000000E+000  0.000000000000000E+000  0.000000000000000E+000
  0.000000000000000E+000  0.000000000000000E+000  0.000000000000000E+000
  0.000000000000000E+000
   11.0045000000000       0.000000000000000E+000  0.000000000000000E+000
   1.00000000000000       0.000000000000000E+000  0.000000000000000E+000
  0.000000000000000E+000  0.000000000000000E+000  0.000000000000000E+000
  0.000000000000000E+000
   5.53001100000000       0.000000000000000E+000  0.000000000000000E+000
  0.000000000000000E+000   1.00000000000000       0.000000000000000E+000
  0.000000000000000E+000  0.000000000000000E+000  0.000000000000000E+000
  0.000000000000000E+000
   2.74694000000000       0.000000000000000E+000  0.000000000000000E+000
  0.000000000000000E+000  0.000000000000000E+000   1.00000000000000     
  0.000000000000000E+000  0.000000000000000E+000  0.000000000000000E+000
  0.000000000000000E+000
   1.32605000000000       0.000000000000000E+000  0.000000000000000E+000
  0.000000000000000E+000  0.000000000000000E+000  0.000000000000000E+000
   1.00000000000000       0.000000000000000E+000  0.000000000000000E+000
  0.000000000000000E+000
  0.626784000000000       0.000000000000000E+000  0.000000000000000E+000
  0.000000000000000E+000  0.000000000000000E+000  0.000000000000000E+000
  0.000000000000000E+000   1.00000000000000       0.000000000000000E+000
  0.000000000000000E+000
  0.293908000000000       0.000000000000000E+000  0.000000000000000E+000
  0.000000000000000E+000  0.000000000000000E+000  0.000000000000000E+000
  0.000000000000000E+000  0.000000000000000E+000   1.00000000000000     
  0.000000000000000E+000
  0.134983000000000       0.000000000000000E+000  0.000000000000000E+000
  0.000000000000000E+000  0.000000000000000E+000  0.000000000000000E+000
  0.000000000000000E+000  0.000000000000000E+000  0.000000000000000E+000
   1.00000000000000     
   14    8
   4020.41119000000       4.820000000000000E-006  0.000000000000000E+000
  0.000000000000000E+000  0.000000000000000E+000  0.000000000000000E+000
  0.000000000000000E+000  0.000000000000000E+000  0.000000000000000E+000
   930.561030000000       4.578000000000000E-005  0.000000000000000E+000
  0.000000000000000E+000  0.000000000000000E+000  0.000000000000000E+000
  0.000000000000000E+000  0.000000000000000E+000  0.000000000000000E+000
   295.517338000000       2.726800000000000E-004  0.000000000000000E+000
  0.000000000000000E+000  0.000000000000000E+000  0.000000000000000E+000
  0.000000000000000E+000  0.000000000000000E+000  0.000000000000000E+000
   113.498375000000       1.206640000000000E-003  0.000000000000000E+000
  0.000000000000000E+000  0.000000000000000E+000  0.000000000000000E+000
  0.000000000000000E+000  0.000000000000000E+000  0.000000000000000E+000
   48.5521130000000       4.415270000000000E-003  0.000000000000000E+000
  0.000000000000000E+000  0.000000000000000E+000  0.000000000000000E+000
  0.000000000000000E+000  0.000000000000000E+000  0.000000000000000E+000
   22.1428070000000       1.370896000000000E-002  0.000000000000000E+000
  0.000000000000000E+000  0.000000000000000E+000  0.000000000000000E+000
  0.000000000000000E+000  0.000000000000000E+000  0.000000000000000E+000
   10.5380950000000       3.675032000000000E-002  0.000000000000000E+000
  0.000000000000000E+000  0.000000000000000E+000  0.000000000000000E+000
  0.000000000000000E+000  0.000000000000000E+000  0.000000000000000E+000
   5.19283900000000       0.000000000000000E+000   1.00000000000000     
  0.000000000000000E+000  0.000000000000000E+000  0.000000000000000E+000
  0.000000000000000E+000  0.000000000000000E+000  0.000000000000000E+000
   2.61534400000000       0.000000000000000E+000  0.000000000000000E+000
   1.00000000000000       0.000000000000000E+000  0.000000000000000E+000
  0.000000000000000E+000  0.000000000000000E+000  0.000000000000000E+000
   1.32158900000000       0.000000000000000E+000  0.000000000000000E+000
  0.000000000000000E+000   1.00000000000000       0.000000000000000E+000
  0.000000000000000E+000  0.000000000000000E+000  0.000000000000000E+000
  0.661978000000000       0.000000000000000E+000  0.000000000000000E+000
  0.000000000000000E+000  0.000000000000000E+000   1.00000000000000     
  0.000000000000000E+000  0.000000000000000E+000  0.000000000000000E+000
  0.327398000000000       0.000000000000000E+000  0.000000000000000E+000
  0.000000000000000E+000  0.000000000000000E+000  0.000000000000000E+000
   1.00000000000000       0.000000000000000E+000  0.000000000000000E+000
  0.159348000000000       0.000000000000000E+000  0.000000000000000E+000
  0.000000000000000E+000  0.000000000000000E+000  0.000000000000000E+000
  0.000000000000000E+000   1.00000000000000       0.000000000000000E+000
  7.458200000000000E-002  0.000000000000000E+000  0.000000000000000E+000
  0.000000000000000E+000  0.000000000000000E+000  0.000000000000000E+000
  0.000000000000000E+000  0.000000000000000E+000   1.00000000000000     
    7    7
   12.9767000000000        1.00000000000000       0.000000000000000E+000
  0.000000000000000E+000  0.000000000000000E+000  0.000000000000000E+000
  0.000000000000000E+000  0.000000000000000E+000
   6.65877000000000       0.000000000000000E+000   1.00000000000000     
  0.000000000000000E+000  0.000000000000000E+000  0.000000000000000E+000
  0.000000000000000E+000  0.000000000000000E+000
   3.41684000000000       0.000000000000000E+000  0.000000000000000E+000
   1.00000000000000       0.000000000000000E+000  0.000000000000000E+000
  0.000000000000000E+000  0.000000000000000E+000
   1.75330000000000       0.000000000000000E+000  0.000000000000000E+000
  0.000000000000000E+000   1.00000000000000       0.000000000000000E+000
  0.000000000000000E+000  0.000000000000000E+000
  0.899680000000000       0.000000000000000E+000  0.000000000000000E+000
  0.000000000000000E+000  0.000000000000000E+000   1.00000000000000     
  0.000000000000000E+000  0.000000000000000E+000
  0.461650000000000       0.000000000000000E+000  0.000000000000000E+000
  0.000000000000000E+000  0.000000000000000E+000  0.000000000000000E+000
   1.00000000000000       0.000000000000000E+000
  0.236900000000000       0.000000000000000E+000  0.000000000000000E+000
  0.000000000000000E+000  0.000000000000000E+000  0.000000000000000E+000
  0.000000000000000E+000   1.00000000000000     
    6    6
   12.7941000000000        1.00000000000000       0.000000000000000E+000
  0.000000000000000E+000  0.000000000000000E+000  0.000000000000000E+000
  0.000000000000000E+000
   6.48093000000000       0.000000000000000E+000   1.00000000000000     
  0.000000000000000E+000  0.000000000000000E+000  0.000000000000000E+000
  0.000000000000000E+000
   3.28295000000000       0.000000000000000E+000  0.000000000000000E+000
   1.00000000000000       0.000000000000000E+000  0.000000000000000E+000
  0.000000000000000E+000
   1.66299000000000       0.000000000000000E+000  0.000000000000000E+000
  0.000000000000000E+000   1.00000000000000       0.000000000000000E+000
  0.000000000000000E+000
  0.842400000000000       0.000000000000000E+000  0.000000000000000E+000
  0.000000000000000E+000  0.000000000000000E+000   1.00000000000000     
  0.000000000000000E+000
  0.426720000000000       0.000000000000000E+000  0.000000000000000E+000
  0.000000000000000E+000  0.000000000000000E+000  0.000000000000000E+000
   1.00000000000000     
    5    5
   7.22853000000000        1.00000000000000       0.000000000000000E+000
  0.000000000000000E+000  0.000000000000000E+000  0.000000000000000E+000
   3.91156000000000       0.000000000000000E+000   1.00000000000000     
  0.000000000000000E+000  0.000000000000000E+000  0.000000000000000E+000
   2.11666000000000       0.000000000000000E+000  0.000000000000000E+000
   1.00000000000000       0.000000000000000E+000  0.000000000000000E+000
   1.14538000000000       0.000000000000000E+000  0.000000000000000E+000
  0.000000000000000E+000   1.00000000000000       0.000000000000000E+000
  0.619800000000000       0.000000000000000E+000  0.000000000000000E+000
  0.000000000000000E+000  0.000000000000000E+000   1.00000000000000     
    4    4
   7.81133000000000        1.00000000000000       0.000000000000000E+000
  0.000000000000000E+000  0.000000000000000E+000
   4.05272000000000       0.000000000000000E+000   1.00000000000000     
  0.000000000000000E+000  0.000000000000000E+000
   2.10265000000000       0.000000000000000E+000  0.000000000000000E+000
   1.00000000000000       0.000000000000000E+000
   1.09091000000000       0.000000000000000E+000  0.000000000000000E+000
  0.000000000000000E+000   1.00000000000000     
    3    3
   6.10477000000000        1.00000000000000       0.000000000000000E+000
  0.000000000000000E+000
   2.95271000000000       0.000000000000000E+000   1.00000000000000     
  0.000000000000000E+000
   1.42815000000000       0.000000000000000E+000  0.000000000000000E+000
   1.00000000000000     
    2    2
   4.75927000000000        1.00000000000000       0.000000000000000E+000
   2.18588000000000       0.000000000000000E+000   1.00000000000000     
    1    1
   3.22427000000000        1.00000000000000     
          1.00000000    1    8    1    1    1    1    1    1    1    1
H #2   0.000000000000000  -1.430968603519347  -0.983798098795531
   15    8
   13940.8000000000       3.010000000000000E-006  0.000000000000000E+000
  0.000000000000000E+000  0.000000000000000E+000  0.000000000000000E+000
  0.000000000000000E+000  0.000000000000000E+000  0.000000000000000E+000
   3471.43000000000       5.440000000000000E-006  0.000000000000000E+000
  0.000000000000000E+000  0.000000000000000E+000  0.000000000000000E+000
  0.000000000000000E+000  0.000000000000000E+000  0.000000000000000E+000
   1903.18000000000       1.785000000000000E-005  0.000000000000000E+000
  0.000000000000000E+000  0.000000000000000E+000  0.000000000000000E+000
  0.000000000000000E+000  0.000000000000000E+000  0.000000000000000E+000
   623.286000000000       7.195000000000000E-005  0.000000000000000E+000
  0.000000000000000E+000  0.000000000000000E+000  0.000000000000000E+000
  0.000000000000000E+000  0.000000000000000E+000  0.000000000000000E+000
   290.360000000000       1.205500000000000E-004  0.000000000000000E+000
  0.000000000000000E+000  0.000000000000000E+000  0.000000000000000E+000
  0.000000000000000E+000  0.000000000000000E+000  0.000000000000000E+000
   126.585000000000       5.252700000000000E-004  0.000000000000000E+000
  0.000000000000000E+000  0.000000000000000E+000  0.000000000000000E+000
  0.000000000000000E+000  0.000000000000000E+000  0.000000000000000E+000
   44.6955000000000       2.013840000000000E-003  0.000000000000000E+000
  0.000000000000000E+000  0.000000000000000E+000  0.000000000000000E+000
  0.000000000000000E+000  0.000000000000000E+000  0.000000000000000E+000
   16.0038000000000       6.870860000000000E-003  0.000000000000000E+000
  0.000000000000000E+000  0.000000000000000E+000  0.000000000000000E+000
  0.000000000000000E+000  0.000000000000000E+000  0.000000000000000E+000
   6.08056000000000       0.000000000000000E+000   1.00000000000000     
  0.000000000000000E+000  0.000000000000000E+000  0.000000000000000E+000
  0.000000000000000E+000  0.000000000000000E+000  0.000000000000000E+000
   2.47622000000000       0.000000000000000E+000  0.000000000000000E+000
   1.00000000000000       0.000000000000000E+000  0.000000000000000E+000
  0.000000000000000E+000  0.000000000000000E+000  0.000000000000000E+000
   1.07571000000000       0.000000000000000E+000  0.000000000000000E+000
  0.000000000000000E+000   1.00000000000000       0.000000000000000E+000
  0.000000000000000E+000  0.000000000000000E+000  0.000000000000000E+000
  0.489682000000000       0.000000000000000E+000  0.000000000000000E+000
  0.000000000000000E+000  0.000000000000000E+000   1.00000000000000     
  0.000000000000000E+000  0.000000000000000E+000  0.000000000000000E+000
  0.229786000000000       0.000000000000000E+000  0.000000000000000E+000
  0.000000000000000E+000  0.000000000000000E+000  0.000000000000000E+000
   1.00000000000000       0.000000000000000E+000  0.000000000000000E+000
  0.109965500000000       0.000000000000000E+000  0.000000000000000E+000
  0.000000000000000E+000  0.000000000000000E+000  0.000000000000000E+000
  0.000000000000000E+000   1.00000000000000       0.000000000000000E+000
  5.232300000000000E-002  0.000000000000000E+000  0.000000000000000E+000
  0.000000000000000E+000  0.000000000000000E+000  0.000000000000000E+000
  0.000000000000000E+000  0.000000000000000E+000   1.00000000000000     
    7    7
   15.0140580000000        1.00000000000000       0.000000000000000E+000
  0.000000000000000E+000  0.000000000000000E+000  0.000000000000000E+000
  0.000000000000000E+000  0.000000000000000E+000
   6.92191340000000       0.000000000000000E+000   1.00000000000000     
  0.000000000000000E+000  0.000000000000000E+000  0.000000000000000E+000
  0.000000000000000E+000  0.000000000000000E+000
   3.19120170000000       0.000000000000000E+000  0.000000000000000E+000
   1.00000000000000       0.000000000000000E+000  0.000000000000000E+000
  0.000000000000000E+000  0.000000000000000E+000
   1.47123600000000       0.000000000000000E+000  0.000000000000000E+000
  0.000000000000000E+000   1.00000000000000       0.000000000000000E+000
  0.000000000000000E+000  0.000000000000000E+000
  0.678282200000000       0.000000000000000E+000  0.000000000000000E+000
  0.000000000000000E+000  0.000000000000000E+000   1.00000000000000     
  0.000000000000000E+000  0.000000000000000E+000
  0.312707700000000       0.000000000000000E+000  0.000000000000000E+000
  0.000000000000000E+000  0.000000000000000E+000  0.000000000000000E+000
   1.00000000000000       0.000000000000000E+000
  0.144167300000000       0.000000000000000E+000  0.000000000000000E+000
  0.000000000000000E+000  0.000000000000000E+000  0.000000000000000E+000
  0.000000000000000E+000   1.00000000000000     
    6    6
   8.11192600000000        1.00000000000000       0.000000000000000E+000
  0.000000000000000E+000  0.000000000000000E+000  0.000000000000000E+000
  0.000000000000000E+000
   4.18274600000000       0.000000000000000E+000   1.00000000000000     
  0.000000000000000E+000  0.000000000000000E+000  0.000000000000000E+000
  0.000000000000000E+000
   2.15674600000000       0.000000000000000E+000  0.000000000000000E+000
   1.00000000000000       0.000000000000000E+000  0.000000000000000E+000
  0.000000000000000E+000
   1.11208200000000       0.000000000000000E+000  0.000000000000000E+000
  0.000000000000000E+000   1.00000000000000       0.000000000000000E+000
  0.000000000000000E+000
  0.573422000000000       0.000000000000000E+000  0.000000000000000E+000
  0.000000000000000E+000  0.000000000000000E+000   1.00000000000000     
  0.000000000000000E+000
  0.295673000000000       0.000000000000000E+000  0.000000000000000E+000
  0.000000000000000E+000  0.000000000000000E+000  0.000000000000000E+000
   1.00000000000000     
    5    5
   10.4131040000000        1.00000000000000       0.000000000000000E+000
  0.000000000000000E+000  0.000000000000000E+000  0.000000000000000E+000
   5.16030840000000       0.000000000000000E+000   1.00000000000000     
  0.000000000000000E+000  0.000000000000000E+000  0.000000000000000E+000
   2.55723770000000       0.000000000000000E+000  0.000000000000000E+000
   1.00000000000000       0.000000000000000E+000  0.000000000000000E+000
   1.26726240000000       0.000000000000000E+000  0.000000000000000E+000
  0.000000000000000E+000   1.00000000000000       0.000000000000000E+000
  0.628003400000000       0.000000000000000E+000  0.000000000000000E+000
  0.000000000000000E+000  0.000000000000000E+000   1.00000000000000     
    4    4
   5.81462090000000        1.00000000000000       0.000000000000000E+000
  0.000000000000000E+000  0.000000000000000E+000
   2.88386920000000       0.000000000000000E+000   1.00000000000000     
  0.000000000000000E+000  0.000000000000000E+000
   1.43030840000000       0.000000000000000E+000  0.000000000000000E+000
   1.00000000000000       0.000000000000000E+000
  0.709388000000000       0.000000000000000E+000  0.000000000000000E+000
  0.000000000000000E+000   1.00000000000000     
    3    3
   6.83508320000000        1.00000000000000       0.000000000000000E+000
  0.000000000000000E+000
   3.34051270000000       0.000000000000000E+000   1.00000000000000     
  0.000000000000000E+000
   1.63261000000000       0.000000000000000E+000  0.000000000000000E+000
   1.00000000000000     
    2    2
   4.48639860000000        1.00000000000000       0.000000000000000E+000
   1.84872550000000       0.000000000000000E+000   1.00000000000000     
    1    1
   4.26637340000000        1.00000000000000     
FINISH
                                                                                
********************************************************************************

ONE- AND TWO-ELECTRON INTEGRALS OVER SYMMETRY-ADAPTED AOS ARE CALCULATED.


    BASIS FUNCTION NOT NORMALIZED:
    CENTER (AS ORDERED IN MOL FILE): ?
    ANGULAR MOMENTUM TYPE:           S
    OFFSET WITHIN ANGULAR MOMENTUM:  1
    <CHI|CHI>:                       0.2680228505

    BASIS FUNCTION NOT NORMALIZED:
    CENTER (AS ORDERED IN MOL FILE): ?
    ANGULAR MOMENTUM TYPE:           S
    OFFSET WITHIN ANGULAR MOMENTUM:  2
    <CHI|CHI>:                       0.0193141336

    BASIS FUNCTION NOT NORMALIZED:
    CENTER (AS ORDERED IN MOL FILE): ?
    ANGULAR MOMENTUM TYPE:           P
    OFFSET WITHIN ANGULAR MOMENTUM:  1
    <CHI|CHI>:                       0.0027270982

    BASIS FUNCTION NOT NORMALIZED:
    CENTER (AS ORDERED IN MOL FILE): ?
    ANGULAR MOMENTUM TYPE:           S
    OFFSET WITHIN ANGULAR MOMENTUM:  1
    <CHI|CHI>:                       0.0000810825
CARTESIAN GAUSSIANS ARE USED.

2 TYPES OF ATOMS
2 SYMMETRY OPERATIONS

REFLECTION IN THE YZ-PLANE
REFLECTION IN THE XZ-PLANE

INTEGRALS LESS THAN 1e-14 ARE NEGLECTED.

ATOMIC TYPE NUMBER 1:
---------------------

    NUCLEAR CHARGE:                       8
    NUMBER OF SYMMETRY INDEPENDENT ATOMS: 1
    HIGHEST ORBITAL TYPE:                 L

    1 GROUPS OF CGTOS OF S TYPE
    1 GROUPS OF CGTOS OF P TYPE
    1 GROUPS OF CGTOS OF D TYPE
    1 GROUPS OF CGTOS OF F TYPE
    1 GROUPS OF CGTOS OF G TYPE
    1 GROUPS OF CGTOS OF H TYPE
    1 GROUPS OF CGTOS OF I TYPE
    1 GROUPS OF CGTOS OF K TYPE
    1 GROUPS OF CGTOS OF L TYPE

    NUCLEAR COORDINATES (IN A.U.) ARE:

    O #1   0.000000000000000   0.000000000000000   0.123976448300873

ATOMIC TYPE NUMBER 2:
---------------------

    NUCLEAR CHARGE:                       1
    NUMBER OF SYMMETRY INDEPENDENT ATOMS: 1
    HIGHEST ORBITAL TYPE:                 K

    1 GROUPS OF CGTOS OF S TYPE
    1 GROUPS OF CGTOS OF P TYPE
    1 GROUPS OF CGTOS OF D TYPE
    1 GROUPS OF CGTOS OF F TYPE
    1 GROUPS OF CGTOS OF G TYPE
    1 GROUPS OF CGTOS OF H TYPE
    1 GROUPS OF CGTOS OF I TYPE
    1 GROUPS OF CGTOS OF K TYPE

    NUCLEAR COORDINATES (IN A.U.) ARE:

    H #2   0.000000000000000  -1.430968603519347  -0.983798098795531

INTERNUCLEAR DISTANCES (A):

    FOR ATOM O #1 (COORDINATES:   0.00000   0.00000   0.12398)

    H #2 1 DISTANCE IS   0.95763

    FOR ATOM H #2 (COORDINATES:   0.00000  -1.43097  -0.98380)

    H #2 3 DISTANCE IS   1.51447

GROUP MULTIPLICATION TABLE:

    1 2 3 4
    2 1 4 3
    3 4 1 2
    4 3 2 1

GAUSSIAN BASIS INFORMATION:

ATOM                EXPONENT       COEFFICIENTS

O #1  1  S   
                  1 4968020.110000   0.0535998  -0.0431718   0.0000000   0.0000000   0.0000000   0.0000000   0.0000000   0.0000000   0.0000000
                  2  767184.019000   0.0970661  -0.0824212   0.0000000   0.0000000   0.0000000   0.0000000   0.0000000   0.0000000   0.0000000
                  3  179922.002000   0.1658447  -0.1402265   0.0000000   0.0000000   0.0000000   0.0000000   0.0000000   0.0000000   0.0000000
                  4   52168.399400   0.2700583  -0.2281818   0.0000000   0.0000000   0.0000000   0.0000000   0.0000000   0.0000000   0.0000000
                  5   17293.400100   0.4239262  -0.3585306   0.0000000   0.0000000   0.0000000   0.0000000   0.0000000   0.0000000   0.0000000
                  6    6310.469710   0.6449777  -0.5454031   0.0000000   0.0000000   0.0000000   0.0000000   0.0000000   0.0000000   0.0000000
                  7    2481.420170   0.9531162  -0.8077477   0.0000000   0.0000000   0.0000000   0.0000000   0.0000000   0.0000000   0.0000000
                  8    1036.749980   1.3728465  -1.1662153   0.0000000   0.0000000   0.0000000   0.0000000   0.0000000   0.0000000   0.0000000
                  9     454.070076   1.9334399  -1.6559851   0.0000000   0.0000000   0.0000000   0.0000000   0.0000000   0.0000000   0.0000000
                 10     205.801868   2.6407547  -2.2937738   0.0000000   0.0000000   0.0000000   0.0000000   0.0000000   0.0000000   0.0000000
                 11      95.759710   3.3933698  -3.0438849   0.0000000   0.0000000   0.0000000   0.0000000   0.0000000   0.0000000   0.0000000
                 12      45.603781   3.9112662  -3.7216101   0.0000000   0.0000000   0.0000000   0.0000000   0.0000000   0.0000000   0.0000000
                 13      22.182700   3.7661611  -4.0521360   0.0000000   0.0000000   0.0000000   0.0000000   0.0000000   0.0000000   0.0000000
                 14      11.004500   0.0000000   0.0000000   4.3061369   0.0000000   0.0000000   0.0000000   0.0000000   0.0000000   0.0000000
                 15       5.530011   0.0000000   0.0000000   0.0000000   2.5701270   0.0000000   0.0000000   0.0000000   0.0000000   0.0000000
                 16       2.746940   0.0000000   0.0000000   0.0000000   0.0000000   1.5207120   0.0000000   0.0000000   0.0000000   0.0000000
                 17       1.326050   0.0000000   0.0000000   0.0000000   0.0000000   0.0000000   0.8807041   0.0000000   0.0000000   0.0000000
                 18       0.626784   0.0000000   0.0000000   0.0000000   0.0000000   0.0000000   0.0000000   0.5020518   0.0000000   0.0000000
                 19       0.293908   0.0000000   0.0000000   0.0000000   0.0000000   0.0000000   0.0000000   0.0000000   0.2844911   0.0000000
                 20       0.134983   0.0000000   0.0000000   0.0000000   0.0000000   0.0000000   0.0000000   0.0000000   0.0000000   0.1587155

O #1  1  X   
                 21    4020.411190   4.2118687   0.0000000   0.0000000   0.0000000   0.0000000   0.0000000   0.0000000   0.0000000
                 22     930.561030   6.4223883   0.0000000   0.0000000   0.0000000   0.0000000   0.0000000   0.0000000   0.0000000
                 23     295.517338   9.1195139   0.0000000   0.0000000   0.0000000   0.0000000   0.0000000   0.0000000   0.0000000
                 24     113.498375  12.2012540   0.0000000   0.0000000   0.0000000   0.0000000   0.0000000   0.0000000   0.0000000
                 25      48.552113  15.4456835   0.0000000   0.0000000   0.0000000   0.0000000   0.0000000   0.0000000   0.0000000
                 26      22.142807  17.9735990   0.0000000   0.0000000   0.0000000   0.0000000   0.0000000   0.0000000   0.0000000
                 27      10.538095  19.0459859   0.0000000   0.0000000   0.0000000   0.0000000   0.0000000   0.0000000   0.0000000
                 28       5.192839   0.0000000  11.1736782   0.0000000   0.0000000   0.0000000   0.0000000   0.0000000   0.0000000
                 29       2.615344   0.0000000   0.0000000   4.7407943   0.0000000   0.0000000   0.0000000   0.0000000   0.0000000
                 30       1.321589   0.0000000   0.0000000   0.0000000   2.0198104   0.0000000   0.0000000   0.0000000   0.0000000
                 31       0.661978   0.0000000   0.0000000   0.0000000   0.0000000   0.8511273   0.0000000   0.0000000   0.0000000
                 32       0.327398   0.0000000   0.0000000   0.0000000   0.0000000   0.0000000   0.3530085   0.0000000   0.0000000
                 33       0.159348   0.0000000   0.0000000   0.0000000   0.0000000   0.0000000   0.0000000   0.1435071   0.0000000
                 34       0.074582   0.0000000   0.0000000   0.0000000   0.0000000   0.0000000   0.0000000   0.0000000   0.0555562

O #1  1  Y   
                 35    4020.411190   4.2118687   0.0000000   0.0000000   0.0000000   0.0000000   0.0000000   0.0000000   0.0000000
                 36     930.561030   6.4223883   0.0000000   0.0000000   0.0000000   0.0000000   0.0000000   0.0000000   0.0000000
                 37     295.517338   9.1195139   0.0000000   0.0000000   0.0000000   0.0000000   0.0000000   0.0000000   0.0000000
                 38     113.498375  12.2012540   0.0000000   0.0000000   0.0000000   0.0000000   0.0000000   0.0000000   0.0000000
                 39      48.552113  15.4456835   0.0000000   0.0000000   0.0000000   0.0000000   0.0000000   0.0000000   0.0000000
                 40      22.142807  17.9735990   0.0000000   0.0000000   0.0000000   0.0000000   0.0000000   0.0000000   0.0000000
                 41      10.538095  19.0459859   0.0000000   0.0000000   0.0000000   0.0000000   0.0000000   0.0000000   0.0000000
                 42       5.192839   0.0000000  11.1736782   0.0000000   0.0000000   0.0000000   0.0000000   0.0000000   0.0000000
                 43       2.615344   0.0000000   0.0000000   4.7407943   0.0000000   0.0000000   0.0000000   0.0000000   0.0000000
                 44       1.321589   0.0000000   0.0000000   0.0000000   2.0198104   0.0000000   0.0000000   0.0000000   0.0000000
                 45       0.661978   0.0000000   0.0000000   0.0000000   0.0000000   0.8511273   0.0000000   0.0000000   0.0000000
                 46       0.327398   0.0000000   0.0000000   0.0000000   0.0000000   0.0000000   0.3530085   0.0000000   0.0000000
                 47       0.159348   0.0000000   0.0000000   0.0000000   0.0000000   0.0000000   0.0000000   0.1435071   0.0000000
                 48       0.074582   0.0000000   0.0000000   0.0000000   0.0000000   0.0000000   0.0000000   0.0000000   0.0555562

O #1  1  Z   
                 49    4020.411190   4.2118687   0.0000000   0.0000000   0.0000000   0.0000000   0.0000000   0.0000000   0.0000000
                 50     930.561030   6.4223883   0.0000000   0.0000000   0.0000000   0.0000000   0.0000000   0.0000000   0.0000000
                 51     295.517338   9.1195139   0.0000000   0.0000000   0.0000000   0.0000000   0.0000000   0.0000000   0.0000000
                 52     113.498375  12.2012540   0.0000000   0.0000000   0.0000000   0.0000000   0.0000000   0.0000000   0.0000000
                 53      48.552113  15.4456835   0.0000000   0.0000000   0.0000000   0.0000000   0.0000000   0.0000000   0.0000000
                 54      22.142807  17.9735990   0.0000000   0.0000000   0.0000000   0.0000000   0.0000000   0.0000000   0.0000000
                 55      10.538095  19.0459859   0.0000000   0.0000000   0.0000000   0.0000000   0.0000000   0.0000000   0.0000000
                 56       5.192839   0.0000000  11.1736782   0.0000000   0.0000000   0.0000000   0.0000000   0.0000000   0.0000000
                 57       2.615344   0.0000000   0.0000000   4.7407943   0.0000000   0.0000000   0.0000000   0.0000000   0.0000000
                 58       1.321589   0.0000000   0.0000000   0.0000000   2.0198104   0.0000000   0.0000000   0.0000000   0.0000000
                 59       0.661978   0.0000000   0.0000000   0.0000000   0.0000000   0.8511273   0.0000000   0.0000000   0.0000000
                 60       0.327398   0.0000000   0.0000000   0.0000000   0.0000000   0.0000000   0.3530085   0.0000000   0.0000000
                 61       0.159348   0.0000000   0.0000000   0.0000000   0.0000000   0.0000000   0.0000000   0.1435071   0.0000000
                 62       0.074582   0.0000000   0.0000000   0.0000000   0.0000000   0.0000000   0.0000000   0.0000000   0.0555562

O #1  1  XX  
                 63      12.976700 252.9341947   0.0000000   0.0000000   0.0000000   0.0000000   0.0000000   0.0000000
                 64       6.658770   0.0000000  78.6881996   0.0000000   0.0000000   0.0000000   0.0000000   0.0000000
                 65       3.416840   0.0000000   0.0000000  24.4801012   0.0000000   0.0000000   0.0000000   0.0000000
                 66       1.753300   0.0000000   0.0000000   0.0000000   7.6158519   0.0000000   0.0000000   0.0000000
                 67       0.899680   0.0000000   0.0000000   0.0000000   0.0000000   2.3693226   0.0000000   0.0000000
                 68       0.461650   0.0000000   0.0000000   0.0000000   0.0000000   0.0000000   0.7370850   0.0000000
                 69       0.236900   0.0000000   0.0000000   0.0000000   0.0000000   0.0000000   0.0000000   0.2293290

O #1  1  XY  
                 70      12.976700 252.9341947   0.0000000   0.0000000   0.0000000   0.0000000   0.0000000   0.0000000
                 71       6.658770   0.0000000  78.6881996   0.0000000   0.0000000   0.0000000   0.0000000   0.0000000
                 72       3.416840   0.0000000   0.0000000  24.4801012   0.0000000   0.0000000   0.0000000   0.0000000
                 73       1.753300   0.0000000   0.0000000   0.0000000   7.6158519   0.0000000   0.0000000   0.0000000
                 74       0.899680   0.0000000   0.0000000   0.0000000   0.0000000   2.3693226   0.0000000   0.0000000
                 75       0.461650   0.0000000   0.0000000   0.0000000   0.0000000   0.0000000   0.7370850   0.0000000
                 76       0.236900   0.0000000   0.0000000   0.0000000   0.0000000   0.0000000   0.0000000   0.2293290

O #1  1  XZ  
                 77      12.976700 252.9341947   0.0000000   0.0000000   0.0000000   0.0000000   0.0000000   0.0000000
                 78       6.658770   0.0000000  78.6881996   0.0000000   0.0000000   0.0000000   0.0000000   0.0000000
                 79       3.416840   0.0000000   0.0000000  24.4801012   0.0000000   0.0000000   0.0000000   0.0000000
                 80       1.753300   0.0000000   0.0000000   0.0000000   7.6158519   0.0000000   0.0000000   0.0000000
                 81       0.899680   0.0000000   0.0000000   0.0000000   0.0000000   2.3693226   0.0000000   0.0000000
                 82       0.461650   0.0000000   0.0000000   0.0000000   0.0000000   0.0000000   0.7370850   0.0000000
                 83       0.236900   0.0000000   0.0000000   0.0000000   0.0000000   0.0000000   0.0000000   0.2293290

O #1  1  YY  
                 84      12.976700 252.9341947   0.0000000   0.0000000   0.0000000   0.0000000   0.0000000   0.0000000
                 85       6.658770   0.0000000  78.6881996   0.0000000   0.0000000   0.0000000   0.0000000   0.0000000
                 86       3.416840   0.0000000   0.0000000  24.4801012   0.0000000   0.0000000   0.0000000   0.0000000
                 87       1.753300   0.0000000   0.0000000   0.0000000   7.6158519   0.0000000   0.0000000   0.0000000
                 88       0.899680   0.0000000   0.0000000   0.0000000   0.0000000   2.3693226   0.0000000   0.0000000
                 89       0.461650   0.0000000   0.0000000   0.0000000   0.0000000   0.0000000   0.7370850   0.0000000
                 90       0.236900   0.0000000   0.0000000   0.0000000   0.0000000   0.0000000   0.0000000   0.2293290

O #1  1  YZ  
                 91      12.976700 252.9341947   0.0000000   0.0000000   0.0000000   0.0000000   0.0000000   0.0000000
                 92       6.658770   0.0000000  78.6881996   0.0000000   0.0000000   0.0000000   0.0000000   0.0000000
                 93       3.416840   0.0000000   0.0000000  24.4801012   0.0000000   0.0000000   0.0000000   0.0000000
                 94       1.753300   0.0000000   0.0000000   0.0000000   7.6158519   0.0000000   0.0000000   0.0000000
                 95       0.899680   0.0000000   0.0000000   0.0000000   0.0000000   2.3693226   0.0000000   0.0000000
                 96       0.461650   0.0000000   0.0000000   0.0000000   0.0000000   0.0000000   0.7370850   0.0000000
                 97       0.236900   0.0000000   0.0000000   0.0000000   0.0000000   0.0000000   0.0000000   0.2293290

O #1  1  ZZ  
                 98      12.976700 252.9341947   0.0000000   0.0000000   0.0000000   0.0000000   0.0000000   0.0000000
                 99       6.658770   0.0000000  78.6881996   0.0000000   0.0000000   0.0000000   0.0000000   0.0000000
                100       3.416840   0.0000000   0.0000000  24.4801012   0.0000000   0.0000000   0.0000000   0.0000000
                101       1.753300   0.0000000   0.0000000   0.0000000   7.6158519   0.0000000   0.0000000   0.0000000
                102       0.899680   0.0000000   0.0000000   0.0000000   0.0000000   2.3693226   0.0000000   0.0000000
                103       0.461650   0.0000000   0.0000000   0.0000000   0.0000000   0.0000000   0.7370850   0.0000000
                104       0.236900   0.0000000   0.0000000   0.0000000   0.0000000   0.0000000   0.0000000   0.2293290

O #1  1  F300
                105      12.794100 1765.1108975   0.0000000   0.0000000   0.0000000   0.0000000   0.0000000
                106       6.480930   0.0000000 382.1061901   0.0000000   0.0000000   0.0000000   0.0000000
                107       3.282950   0.0000000   0.0000000  82.7169825   0.0000000   0.0000000   0.0000000
                108       1.662990   0.0000000   0.0000000   0.0000000  17.9061313   0.0000000   0.0000000
                109       0.842400   0.0000000   0.0000000   0.0000000   0.0000000   3.8762911   0.0000000
                110       0.426720   0.0000000   0.0000000   0.0000000   0.0000000   0.0000000   0.8391157

O #1  1  F210
                111      12.794100 1765.1108975   0.0000000   0.0000000   0.0000000   0.0000000   0.0000000
                112       6.480930   0.0000000 382.1061901   0.0000000   0.0000000   0.0000000   0.0000000
                113       3.282950   0.0000000   0.0000000  82.7169825   0.0000000   0.0000000   0.0000000
                114       1.662990   0.0000000   0.0000000   0.0000000  17.9061313   0.0000000   0.0000000
                115       0.842400   0.0000000   0.0000000   0.0000000   0.0000000   3.8762911   0.0000000
                116       0.426720   0.0000000   0.0000000   0.0000000   0.0000000   0.0000000   0.8391157

O #1  1  F201
                117      12.794100 1765.1108975   0.0000000   0.0000000   0.0000000   0.0000000   0.0000000
                118       6.480930   0.0000000 382.1061901   0.0000000   0.0000000   0.0000000   0.0000000
                119       3.282950   0.0000000   0.0000000  82.7169825   0.0000000   0.0000000   0.0000000
                120       1.662990   0.0000000   0.0000000   0.0000000  17.9061313   0.0000000   0.0000000
                121       0.842400   0.0000000   0.0000000   0.0000000   0.0000000   3.8762911   0.0000000
                122       0.426720   0.0000000   0.0000000   0.0000000   0.0000000   0.0000000   0.8391157

O #1  1  F120
                123      12.794100 1765.1108975   0.0000000   0.0000000   0.0000000   0.0000000   0.0000000
                124       6.480930   0.0000000 382.1061901   0.0000000   0.0000000   0.0000000   0.0000000
                125       3.282950   0.0000000   0.0000000  82.7169825   0.0000000   0.0000000   0.0000000
                126       1.662990   0.0000000   0.0000000   0.0000000  17.9061313   0.0000000   0.0000000
                127       0.842400   0.0000000   0.0000000   0.0000000   0.0000000   3.8762911   0.0000000
                128       0.426720   0.0000000   0.0000000   0.0000000   0.0000000   0.0000000   0.8391157

O #1  1  F111
                129      12.794100 1765.1108975   0.0000000   0.0000000   0.0000000   0.0000000   0.0000000
                130       6.480930   0.0000000 382.1061901   0.0000000   0.0000000   0.0000000   0.0000000
                131       3.282950   0.0000000   0.0000000  82.7169825   0.0000000   0.0000000   0.0000000
                132       1.662990   0.0000000   0.0000000   0.0000000  17.9061313   0.0000000   0.0000000
                133       0.842400   0.0000000   0.0000000   0.0000000   0.0000000   3.8762911   0.0000000
                134       0.426720   0.0000000   0.0000000   0.0000000   0.0000000   0.0000000   0.8391157

O #1  1  F102
                135      12.794100 1765.1108975   0.0000000   0.0000000   0.0000000   0.0000000   0.0000000
                136       6.480930   0.0000000 382.1061901   0.0000000   0.0000000   0.0000000   0.0000000
                137       3.282950   0.0000000   0.0000000  82.7169825   0.0000000   0.0000000   0.0000000
                138       1.662990   0.0000000   0.0000000   0.0000000  17.9061313   0.0000000   0.0000000
                139       0.842400   0.0000000   0.0000000   0.0000000   0.0000000   3.8762911   0.0000000
                140       0.426720   0.0000000   0.0000000   0.0000000   0.0000000   0.0000000   0.8391157

O #1  1  F030
                141      12.794100 1765.1108975   0.0000000   0.0000000   0.0000000   0.0000000   0.0000000
                142       6.480930   0.0000000 382.1061901   0.0000000   0.0000000   0.0000000   0.0000000
                143       3.282950   0.0000000   0.0000000  82.7169825   0.0000000   0.0000000   0.0000000
                144       1.662990   0.0000000   0.0000000   0.0000000  17.9061313   0.0000000   0.0000000
                145       0.842400   0.0000000   0.0000000   0.0000000   0.0000000   3.8762911   0.0000000
                146       0.426720   0.0000000   0.0000000   0.0000000   0.0000000   0.0000000   0.8391157

O #1  1  F021
                147      12.794100 1765.1108975   0.0000000   0.0000000   0.0000000   0.0000000   0.0000000
                148       6.480930   0.0000000 382.1061901   0.0000000   0.0000000   0.0000000   0.0000000
                149       3.282950   0.0000000   0.0000000  82.7169825   0.0000000   0.0000000   0.0000000
                150       1.662990   0.0000000   0.0000000   0.0000000  17.9061313   0.0000000   0.0000000
                151       0.842400   0.0000000   0.0000000   0.0000000   0.0000000   3.8762911   0.0000000
                152       0.426720   0.0000000   0.0000000   0.0000000   0.0000000   0.0000000   0.8391157

O #1  1  F012
                153      12.794100 1765.1108975   0.0000000   0.0000000   0.0000000   0.0000000   0.0000000
                154       6.480930   0.0000000 382.1061901   0.0000000   0.0000000   0.0000000   0.0000000
                155       3.282950   0.0000000   0.0000000  82.7169825   0.0000000   0.0000000   0.0000000
                156       1.662990   0.0000000   0.0000000   0.0000000  17.9061313   0.0000000   0.0000000
                157       0.842400   0.0000000   0.0000000   0.0000000   0.0000000   3.8762911   0.0000000
                158       0.426720   0.0000000   0.0000000   0.0000000   0.0000000   0.0000000   0.8391157

O #1  1  F003
                159      12.794100 1765.1108975   0.0000000   0.0000000   0.0000000   0.0000000   0.0000000
                160       6.480930   0.0000000 382.1061901   0.0000000   0.0000000   0.0000000   0.0000000
                161       3.282950   0.0000000   0.0000000  82.7169825   0.0000000   0.0000000   0.0000000
                162       1.662990   0.0000000   0.0000000   0.0000000  17.9061313   0.0000000   0.0000000
                163       0.842400   0.0000000   0.0000000   0.0000000   0.0000000   3.8762911   0.0000000
                164       0.426720   0.0000000   0.0000000   0.0000000   0.0000000   0.0000000   0.8391157

O #1  1  G400
                165       7.228530 2626.7427441   0.0000000   0.0000000   0.0000000   0.0000000
                166       3.911560   0.0000000 485.2801920   0.0000000   0.0000000   0.0000000
                167       2.116660   0.0000000   0.0000000  89.6541933   0.0000000   0.0000000
                168       1.145380   0.0000000   0.0000000   0.0000000  16.5630938   0.0000000
                169       0.619800   0.0000000   0.0000000   0.0000000   0.0000000   3.0600033

O #1  1  G310
                170       7.228530 2626.7427441   0.0000000   0.0000000   0.0000000   0.0000000
                171       3.911560   0.0000000 485.2801920   0.0000000   0.0000000   0.0000000
                172       2.116660   0.0000000   0.0000000  89.6541933   0.0000000   0.0000000
                173       1.145380   0.0000000   0.0000000   0.0000000  16.5630938   0.0000000
                174       0.619800   0.0000000   0.0000000   0.0000000   0.0000000   3.0600033

O #1  1  G301
                175       7.228530 2626.7427441   0.0000000   0.0000000   0.0000000   0.0000000
                176       3.911560   0.0000000 485.2801920   0.0000000   0.0000000   0.0000000
                177       2.116660   0.0000000   0.0000000  89.6541933   0.0000000   0.0000000
                178       1.145380   0.0000000   0.0000000   0.0000000  16.5630938   0.0000000
                179       0.619800   0.0000000   0.0000000   0.0000000   0.0000000   3.0600033

O #1  1  G220
                180       7.228530 2626.7427441   0.0000000   0.0000000   0.0000000   0.0000000
                181       3.911560   0.0000000 485.2801920   0.0000000   0.0000000   0.0000000
                182       2.116660   0.0000000   0.0000000  89.6541933   0.0000000   0.0000000
                183       1.145380   0.0000000   0.0000000   0.0000000  16.5630938   0.0000000
                184       0.619800   0.0000000   0.0000000   0.0000000   0.0000000   3.0600033

O #1  1  G211
                185       7.228530 2626.7427441   0.0000000   0.0000000   0.0000000   0.0000000
                186       3.911560   0.0000000 485.2801920   0.0000000   0.0000000   0.0000000
                187       2.116660   0.0000000   0.0000000  89.6541933   0.0000000   0.0000000
                188       1.145380   0.0000000   0.0000000   0.0000000  16.5630938   0.0000000
                189       0.619800   0.0000000   0.0000000   0.0000000   0.0000000   3.0600033

O #1  1  G202
                190       7.228530 2626.7427441   0.0000000   0.0000000   0.0000000   0.0000000
                191       3.911560   0.0000000 485.2801920   0.0000000   0.0000000   0.0000000
                192       2.116660   0.0000000   0.0000000  89.6541933   0.0000000   0.0000000
                193       1.145380   0.0000000   0.0000000   0.0000000  16.5630938   0.0000000
                194       0.619800   0.0000000   0.0000000   0.0000000   0.0000000   3.0600033

O #1  1  G130
                195       7.228530 2626.7427441   0.0000000   0.0000000   0.0000000   0.0000000
                196       3.911560   0.0000000 485.2801920   0.0000000   0.0000000   0.0000000
                197       2.116660   0.0000000   0.0000000  89.6541933   0.0000000   0.0000000
                198       1.145380   0.0000000   0.0000000   0.0000000  16.5630938   0.0000000
                199       0.619800   0.0000000   0.0000000   0.0000000   0.0000000   3.0600033

O #1  1  G121
                200       7.228530 2626.7427441   0.0000000   0.0000000   0.0000000   0.0000000
                201       3.911560   0.0000000 485.2801920   0.0000000   0.0000000   0.0000000
                202       2.116660   0.0000000   0.0000000  89.6541933   0.0000000   0.0000000
                203       1.145380   0.0000000   0.0000000   0.0000000  16.5630938   0.0000000
                204       0.619800   0.0000000   0.0000000   0.0000000   0.0000000   3.0600033

O #1  1  G112
                205       7.228530 2626.7427441   0.0000000   0.0000000   0.0000000   0.0000000
                206       3.911560   0.0000000 485.2801920   0.0000000   0.0000000   0.0000000
                207       2.116660   0.0000000   0.0000000  89.6541933   0.0000000   0.0000000
                208       1.145380   0.0000000   0.0000000   0.0000000  16.5630938   0.0000000
                209       0.619800   0.0000000   0.0000000   0.0000000   0.0000000   3.0600033

O #1  1  G103
                210       7.228530 2626.7427441   0.0000000   0.0000000   0.0000000   0.0000000
                211       3.911560   0.0000000 485.2801920   0.0000000   0.0000000   0.0000000
                212       2.116660   0.0000000   0.0000000  89.6541933   0.0000000   0.0000000
                213       1.145380   0.0000000   0.0000000   0.0000000  16.5630938   0.0000000
                214       0.619800   0.0000000   0.0000000   0.0000000   0.0000000   3.0600033

O #1  1  G040
                215       7.228530 2626.7427441   0.0000000   0.0000000   0.0000000   0.0000000
                216       3.911560   0.0000000 485.2801920   0.0000000   0.0000000   0.0000000
                217       2.116660   0.0000000   0.0000000  89.6541933   0.0000000   0.0000000
                218       1.145380   0.0000000   0.0000000   0.0000000  16.5630938   0.0000000
                219       0.619800   0.0000000   0.0000000   0.0000000   0.0000000   3.0600033

O #1  1  G031
                220       7.228530 2626.7427441   0.0000000   0.0000000   0.0000000   0.0000000
                221       3.911560   0.0000000 485.2801920   0.0000000   0.0000000   0.0000000
                222       2.116660   0.0000000   0.0000000  89.6541933   0.0000000   0.0000000
                223       1.145380   0.0000000   0.0000000   0.0000000  16.5630938   0.0000000
                224       0.619800   0.0000000   0.0000000   0.0000000   0.0000000   3.0600033

O #1  1  G022
                225       7.228530 2626.7427441   0.0000000   0.0000000   0.0000000   0.0000000
                226       3.911560   0.0000000 485.2801920   0.0000000   0.0000000   0.0000000
                227       2.116660   0.0000000   0.0000000  89.6541933   0.0000000   0.0000000
                228       1.145380   0.0000000   0.0000000   0.0000000  16.5630938   0.0000000
                229       0.619800   0.0000000   0.0000000   0.0000000   0.0000000   3.0600033

O #1  1  G013
                230       7.228530 2626.7427441   0.0000000   0.0000000   0.0000000   0.0000000
                231       3.911560   0.0000000 485.2801920   0.0000000   0.0000000   0.0000000
                232       2.116660   0.0000000   0.0000000  89.6541933   0.0000000   0.0000000
                233       1.145380   0.0000000   0.0000000   0.0000000  16.5630938   0.0000000
                234       0.619800   0.0000000   0.0000000   0.0000000   0.0000000   3.0600033

O #1  1  G004
                235       7.228530 2626.7427441   0.0000000   0.0000000   0.0000000   0.0000000
                236       3.911560   0.0000000 485.2801920   0.0000000   0.0000000   0.0000000
                237       2.116660   0.0000000   0.0000000  89.6541933   0.0000000   0.0000000
                238       1.145380   0.0000000   0.0000000   0.0000000  16.5630938   0.0000000
                239       0.619800   0.0000000   0.0000000   0.0000000   0.0000000   3.0600033

O #1  1  H500
                240       7.811330 18172.5667837   0.0000000   0.0000000   0.0000000
                241       4.052720   0.0000000 2153.9544717   0.0000000   0.0000000
                242       2.102650   0.0000000   0.0000000 255.3011552   0.0000000
                243       1.090910   0.0000000   0.0000000   0.0000000  30.2603586

O #1  1  H410
                244       7.811330 18172.5667837   0.0000000   0.0000000   0.0000000
                245       4.052720   0.0000000 2153.9544717   0.0000000   0.0000000
                246       2.102650   0.0000000   0.0000000 255.3011552   0.0000000
                247       1.090910   0.0000000   0.0000000   0.0000000  30.2603586

O #1  1  H401
                248       7.811330 18172.5667837   0.0000000   0.0000000   0.0000000
                249       4.052720   0.0000000 2153.9544717   0.0000000   0.0000000
                250       2.102650   0.0000000   0.0000000 255.3011552   0.0000000
                251       1.090910   0.0000000   0.0000000   0.0000000  30.2603586

O #1  1  H320
                252       7.811330 18172.5667837   0.0000000   0.0000000   0.0000000
                253       4.052720   0.0000000 2153.9544717   0.0000000   0.0000000
                254       2.102650   0.0000000   0.0000000 255.3011552   0.0000000
                255       1.090910   0.0000000   0.0000000   0.0000000  30.2603586

O #1  1  H311
                256       7.811330 18172.5667837   0.0000000   0.0000000   0.0000000
                257       4.052720   0.0000000 2153.9544717   0.0000000   0.0000000
                258       2.102650   0.0000000   0.0000000 255.3011552   0.0000000
                259       1.090910   0.0000000   0.0000000   0.0000000  30.2603586

O #1  1  H302
                260       7.811330 18172.5667837   0.0000000   0.0000000   0.0000000
                261       4.052720   0.0000000 2153.9544717   0.0000000   0.0000000
                262       2.102650   0.0000000   0.0000000 255.3011552   0.0000000
                263       1.090910   0.0000000   0.0000000   0.0000000  30.2603586

O #1  1  H230
                264       7.811330 18172.5667837   0.0000000   0.0000000   0.0000000
                265       4.052720   0.0000000 2153.9544717   0.0000000   0.0000000
                266       2.102650   0.0000000   0.0000000 255.3011552   0.0000000
                267       1.090910   0.0000000   0.0000000   0.0000000  30.2603586

O #1  1  H221
                268       7.811330 18172.5667837   0.0000000   0.0000000   0.0000000
                269       4.052720   0.0000000 2153.9544717   0.0000000   0.0000000
                270       2.102650   0.0000000   0.0000000 255.3011552   0.0000000
                271       1.090910   0.0000000   0.0000000   0.0000000  30.2603586

O #1  1  H212
                272       7.811330 18172.5667837   0.0000000   0.0000000   0.0000000
                273       4.052720   0.0000000 2153.9544717   0.0000000   0.0000000
                274       2.102650   0.0000000   0.0000000 255.3011552   0.0000000
                275       1.090910   0.0000000   0.0000000   0.0000000  30.2603586

O #1  1  H203
                276       7.811330 18172.5667837   0.0000000   0.0000000   0.0000000
                277       4.052720   0.0000000 2153.9544717   0.0000000   0.0000000
                278       2.102650   0.0000000   0.0000000 255.3011552   0.0000000
                279       1.090910   0.0000000   0.0000000   0.0000000  30.2603586

O #1  1  H140
                280       7.811330 18172.5667837   0.0000000   0.0000000   0.0000000
                281       4.052720   0.0000000 2153.9544717   0.0000000   0.0000000
                282       2.102650   0.0000000   0.0000000 255.3011552   0.0000000
                283       1.090910   0.0000000   0.0000000   0.0000000  30.2603586

O #1  1  H131
                284       7.811330 18172.5667837   0.0000000   0.0000000   0.0000000
                285       4.052720   0.0000000 2153.9544717   0.0000000   0.0000000
                286       2.102650   0.0000000   0.0000000 255.3011552   0.0000000
                287       1.090910   0.0000000   0.0000000   0.0000000  30.2603586

O #1  1  H122
                288       7.811330 18172.5667837   0.0000000   0.0000000   0.0000000
                289       4.052720   0.0000000 2153.9544717   0.0000000   0.0000000
                290       2.102650   0.0000000   0.0000000 255.3011552   0.0000000
                291       1.090910   0.0000000   0.0000000   0.0000000  30.2603586

O #1  1  H113
                292       7.811330 18172.5667837   0.0000000   0.0000000   0.0000000
                293       4.052720   0.0000000 2153.9544717   0.0000000   0.0000000
                294       2.102650   0.0000000   0.0000000 255.3011552   0.0000000
[...]
               4253714  buffers.
     117           -76.067449342801723              0.4216864480D-07
   current occupation vector 
     3  1  1  0
     3  1  1  0
  processed              503478066  ao basis integrals from 
                839131  buffers.
  processed             1290091106  ao basis integrals from 
               2150152  buffers.
  processed             2552227861  ao basis integrals from 
               4253714  buffers.
     118           -76.067449342802746              0.6140429604D-07
   current occupation vector 
     3  1  1  0
     3  1  1  0
  processed              503478066  ao basis integrals from 
                839131  buffers.
  processed             1290091106  ao basis integrals from 
               2150152  buffers.
  processed             2552227861  ao basis integrals from 
               4253714  buffers.
     119           -76.067449342803556              0.1129839888D-07
   current occupation vector 
     3  1  1  0
     3  1  1  0
 
 sum over diagonal and offdiagdiagonal of C(T)*S*C for irrep
                     1
 -6.280611586362284E-010 -2.544774351258943E-008
 reorthoganalization of MOs is carried out
 sum over diagonal and offdiagdiagonal of C(T)*S*C for irrep
                     1
 -1.542129757226007E-010  1.395650161242865E-009
 
 sum over diagonal and offdiagdiagonal of C(T)*S*C for irrep
                     2
  2.323831127526432E-010  4.926286447936565E-010
 reorthoganalization of MOs is carried out
 sum over diagonal and offdiagdiagonal of C(T)*S*C for irrep
                     2
  2.695510481487418E-012 -1.926034192908234E-011
 
 sum over diagonal and offdiagdiagonal of C(T)*S*C for irrep
                     3
  1.218261491686690E-009  1.933923224311354E-008
 reorthoganalization of MOs is carried out
 sum over diagonal and offdiagdiagonal of C(T)*S*C for irrep
                     3
 -2.870514936859081E-011  2.231005287552927E-010
 
 sum over diagonal and offdiagdiagonal of C(T)*S*C for irrep
                     4
  1.299337304416781E-010  2.497512652399178E-010
 reorthoganalization of MOs is carried out
 sum over diagonal and offdiagdiagonal of C(T)*S*C for irrep
                     4
  2.895905737432258E-012  1.195036765396662E-011
  processed              503478066  ao basis integrals from 
                839131  buffers.
  processed             1290091106  ao basis integrals from 
               2150152  buffers.
  processed             2552227861  ao basis integrals from 
               4253714  buffers.
     120           -76.067449342797445              0.3216509964D-07
   current occupation vector 
     3  1  1  0
     3  1  1  0
  processed              503478066  ao basis integrals from 
                839131  buffers.
  processed             1290091106  ao basis integrals from 
               2150152  buffers.
  processed             2552227861  ao basis integrals from 
               4253714  buffers.
     121           -76.067449342803727              0.6359101679D-07
   current occupation vector 
     3  1  1  0
     3  1  1  0
  processed              503478066  ao basis integrals from 
                839131  buffers.
  processed             1290091106  ao basis integrals from 
               2150152  buffers.
  processed             2552227861  ao basis integrals from 
               4253714  buffers.
     122           -76.067449342803044              0.4892629446D-07
   current occupation vector 
     3  1  1  0
     3  1  1  0
  processed              503478066  ao basis integrals from 
                839131  buffers.
  processed             1290091106  ao basis integrals from 
               2150152  buffers.
  processed             2552227861  ao basis integrals from 
               4253714  buffers.
     123           -76.067449342801382              0.4872952342D-07
   current occupation vector 
     3  1  1  0
     3  1  1  0
  processed              503478066  ao basis integrals from 
                839131  buffers.
  processed             1290091106  ao basis integrals from 
               2150152  buffers.
  processed             2552227861  ao basis integrals from 
               4253714  buffers.
     124           -76.067449342802334              0.6147553427D-07
   current occupation vector 
     3  1  1  0
     3  1  1  0
 
 sum over diagonal and offdiagdiagonal of C(T)*S*C for irrep
                     1
 -7.171750970869084E-010 -2.413518903341319E-008
 reorthoganalization of MOs is carried out
 sum over diagonal and offdiagdiagonal of C(T)*S*C for irrep
                     1
 -5.341282971471628E-011  3.878643711391073E-010
 
 sum over diagonal and offdiagdiagonal of C(T)*S*C for irrep
                     2
  2.316311586980646E-010  4.913503885612776E-010
 reorthoganalization of MOs is carried out
 sum over diagonal and offdiagdiagonal of C(T)*S*C for irrep
                     2
  2.947309063472403E-012 -1.991840381748877E-011
 
 sum over diagonal and offdiagdiagonal of C(T)*S*C for irrep
                     3
  1.316341036172730E-009  1.860853946994455E-008
 reorthoganalization of MOs is carried out
 sum over diagonal and offdiagdiagonal of C(T)*S*C for irrep
                     3
 -6.309486266786735E-011  1.452500838178262E-009
 
 sum over diagonal and offdiagdiagonal of C(T)*S*C for irrep
                     4
  1.287310258391017E-010  2.527396450426658E-010
 reorthoganalization of MOs is carried out
 sum over diagonal and offdiagdiagonal of C(T)*S*C for irrep
                     4
  3.552824701102963E-012 -6.630961546717671E-012
  processed              503478066  ao basis integrals from 
                839131  buffers.
  processed             1290091106  ao basis integrals from 
               2150152  buffers.
  processed             2552227861  ao basis integrals from 
               4253714  buffers.
     125           -76.067449342796678              0.2385978812D-06
   current occupation vector 
     3  1  1  0
     3  1  1  0
  processed              503478066  ao basis integrals from 
                839131  buffers.
  processed             1290091106  ao basis integrals from 
               2150152  buffers.
  processed             2552227861  ao basis integrals from 
               4253714  buffers.
     126           -76.067449342803002              0.1407797625D-06
   current occupation vector 
     3  1  1  0
     3  1  1  0
  processed              503478066  ao basis integrals from 
                839131  buffers.
  processed             1290091106  ao basis integrals from 
               2150152  buffers.
  processed             2552227861  ao basis integrals from 
               4253714  buffers.
     127           -76.067449342801211              0.1413075146D-07
   current occupation vector 
     3  1  1  0
     3  1  1  0
  processed              503478066  ao basis integrals from 
                839131  buffers.
  processed             1290091106  ao basis integrals from 
               2150152  buffers.
  processed             2552227861  ao basis integrals from 
               4253714  buffers.
     128           -76.067449342801183              0.1825223317D-07
   current occupation vector 
     3  1  1  0
     3  1  1  0
  processed              503478066  ao basis integrals from 
                839131  buffers.
  processed             1290091106  ao basis integrals from 
               2150152  buffers.
  processed             2552227861  ao basis integrals from 
               4253714  buffers.
     129           -76.067449342801396              0.1391214749D-07
   current occupation vector 
     3  1  1  0
     3  1  1  0
 
 sum over diagonal and offdiagdiagonal of C(T)*S*C for irrep
                     1
 -6.828716481166452E-010 -2.486079443284835E-008
 reorthoganalization of MOs is carried out
 sum over diagonal and offdiagdiagonal of C(T)*S*C for irrep
                     1
  1.031350560509736E-010  5.914776494273979E-010
 
 sum over diagonal and offdiagdiagonal of C(T)*S*C for irrep
                     2
  2.414061173183768E-010  4.708577657570404E-010
 reorthoganalization of MOs is carried out
 sum over diagonal and offdiagdiagonal of C(T)*S*C for irrep
                     2
 -2.303712776097200E-012 -2.625308173641452E-011
 
 sum over diagonal and offdiagdiagonal of C(T)*S*C for irrep
                     3
  1.137415051033486E-009  1.972832007040448E-008
 reorthoganalization of MOs is carried out
 sum over diagonal and offdiagdiagonal of C(T)*S*C for irrep
                     3
  4.717515267316230E-011  2.262810892887330E-009
 
 sum over diagonal and offdiagdiagonal of C(T)*S*C for irrep
                     4
  1.285593853594946E-010  2.620034014503183E-010
 reorthoganalization of MOs is carried out
 sum over diagonal and offdiagdiagonal of C(T)*S*C for irrep
                     4
  3.542277582369024E-012 -1.892903645783076E-011
  processed              503478066  ao basis integrals from 
                839131  buffers.
  processed             1290091106  ao basis integrals from 
               2150152  buffers.
  processed             2552227861  ao basis integrals from 
               4253714  buffers.
     130           -76.067449342798724              0.2501874241D-07
   current occupation vector 
     3  1  1  0
     3  1  1  0
  processed              503478066  ao basis integrals from 
                839131  buffers.
  processed             1290091106  ao basis integrals from 
               2150152  buffers.
  processed             2552227861  ao basis integrals from 
               4253714  buffers.
     131           -76.067449342802107              0.7741708519D-07
   current occupation vector 
     3  1  1  0
     3  1  1  0
  processed              503478066  ao basis integrals from 
                839131  buffers.
  processed             1290091106  ao basis integrals from 
               2150152  buffers.
  processed             2552227861  ao basis integrals from 
               4253714  buffers.
     132           -76.067449342801638              0.4577765961D-07
   current occupation vector 
     3  1  1  0
     3  1  1  0
  processed              503478066  ao basis integrals from 
                839131  buffers.
  processed             1290091106  ao basis integrals from 
               2150152  buffers.
  processed             2552227861  ao basis integrals from 
               4253714  buffers.
     133           -76.067449342801936              0.6764411326D-07
   current occupation vector 
     3  1  1  0
     3  1  1  0
  processed              503478066  ao basis integrals from 
                839131  buffers.
  processed             1290091106  ao basis integrals from 
               2150152  buffers.
  processed             2552227861  ao basis integrals from 
               4253714  buffers.
     134           -76.067449342802462              0.2400322213D-07
   current occupation vector 
     3  1  1  0
     3  1  1  0
 
 sum over diagonal and offdiagdiagonal of C(T)*S*C for irrep
                     1
 -4.714436618868945E-010 -2.413472732431721E-008
 reorthoganalization of MOs is carried out
 sum over diagonal and offdiagdiagonal of C(T)*S*C for irrep
                     1
 -1.962517925946372E-010 -1.772498956705558E-009
 
 sum over diagonal and offdiagdiagonal of C(T)*S*C for irrep
                     2
  2.388462760904986E-010  4.685534388341260E-010
 reorthoganalization of MOs is carried out
 sum over diagonal and offdiagdiagonal of C(T)*S*C for irrep
                     2
 -6.441513988875158E-012  1.545957200813835E-011
 
 sum over diagonal and offdiagdiagonal of C(T)*S*C for irrep
                     3
  1.165602503405694E-009  1.805738174868054E-008
 reorthoganalization of MOs is carried out
 sum over diagonal and offdiagdiagonal of C(T)*S*C for irrep
                     3
  1.545019667759107E-011  1.734724336902134E-009
 
 sum over diagonal and offdiagdiagonal of C(T)*S*C for irrep
                     4
  1.335749288955412E-010  2.578877798102802E-010
 reorthoganalization of MOs is carried out
 sum over diagonal and offdiagdiagonal of C(T)*S*C for irrep
                     4
 -9.909850717804147E-013 -1.370497957146287E-012
  processed              503478066  ao basis integrals from 
                839131  buffers.
  processed             1290091106  ao basis integrals from 
               2150152  buffers.
  processed             2552227861  ao basis integrals from 
               4253714  buffers.
     135           -76.067449342796692              0.2083247036D-07
   current occupation vector 
     3  1  1  0
     3  1  1  0
  processed              503478066  ao basis integrals from 
                839131  buffers.
  processed             1290091106  ao basis integrals from 
               2150152  buffers.
  processed             2552227861  ao basis integrals from 
               4253714  buffers.
     136           -76.067449342802846              0.1496871864D-06
   current occupation vector 
     3  1  1  0
     3  1  1  0
  processed              503478066  ao basis integrals from 
                839131  buffers.
  processed             1290091106  ao basis integrals from 
               2150152  buffers.
  processed             2552227861  ao basis integrals from 
               4253714  buffers.
     137           -76.067449342804110              0.1816644167D-06
   current occupation vector 
     3  1  1  0
     3  1  1  0
  processed              503478066  ao basis integrals from 
                839131  buffers.
  processed             1290091106  ao basis integrals from 
               2150152  buffers.
  processed             2552227861  ao basis integrals from 
               4253714  buffers.
     138           -76.067449342801567              0.3074964250D-07
   current occupation vector 
     3  1  1  0
     3  1  1  0
  processed              503478066  ao basis integrals from 
                839131  buffers.
  processed             1290091106  ao basis integrals from 
               2150152  buffers.
  processed             2552227861  ao basis integrals from 
               4253714  buffers.
     139           -76.067449342802135              0.8291830150D-07
   current occupation vector 
     3  1  1  0
     3  1  1  0
 
 sum over diagonal and offdiagdiagonal of C(T)*S*C for irrep
                     1
 -6.362711468810289E-010 -2.450313130232259E-008
 reorthoganalization of MOs is carried out
 sum over diagonal and offdiagdiagonal of C(T)*S*C for irrep
                     1
 -1.771871538380765E-011  1.156098493728730E-009
 
 sum over diagonal and offdiagdiagonal of C(T)*S*C for irrep
                     2
  2.372670948602718E-010  4.756142478549260E-010
 reorthoganalization of MOs is carried out
 sum over diagonal and offdiagdiagonal of C(T)*S*C for irrep
                     2
  6.772582494818380E-012 -1.951786283892155E-011
 
 sum over diagonal and offdiagdiagonal of C(T)*S*C for irrep
                     3
  1.125555093572927E-009  1.872549757697903E-008
 reorthoganalization of MOs is carried out
 sum over diagonal and offdiagdiagonal of C(T)*S*C for irrep
                     3
  1.032415264390352E-010  1.621087181258063E-010
 
 sum over diagonal and offdiagdiagonal of C(T)*S*C for irrep
                     4
  1.297859597571005E-010  2.618183903917386E-010
 reorthoganalization of MOs is carried out
 sum over diagonal and offdiagdiagonal of C(T)*S*C for irrep
                     4
 -3.553268790312814E-012 -1.062459486376336E-011
  processed              503478066  ao basis integrals from 
                839131  buffers.
  processed             1290091106  ao basis integrals from 
               2150152  buffers.
  processed             2552227861  ao basis integrals from 
               4253714  buffers.
     140           -76.067449342797659              0.2696187867D-07
   current occupation vector 
     3  1  1  0
     3  1  1  0
  processed              503478066  ao basis integrals from 
                839131  buffers.
  processed             1290091106  ao basis integrals from 
               2150152  buffers.
  processed             2552227861  ao basis integrals from 
               4253714  buffers.
     141           -76.067449342800217              0.1116925871D-06
   current occupation vector 
     3  1  1  0
     3  1  1  0
  processed              503478066  ao basis integrals from 
                839131  buffers.
  processed             1290091106  ao basis integrals from 
               2150152  buffers.
  processed             2552227861  ao basis integrals from 
               4253714  buffers.
     142           -76.067449342800757              0.9808378792D-07
   current occupation vector 
     3  1  1  0
     3  1  1  0
  processed              503478066  ao basis integrals from 
                839131  buffers.
  processed             1290091106  ao basis integrals from 
               2150152  buffers.
  processed             2552227861  ao basis integrals from 
               4253714  buffers.
     143           -76.067449342799705              0.1175522463D-06
   current occupation vector 
     3  1  1  0
     3  1  1  0
  processed              503478066  ao basis integrals from 
                839131  buffers.
  processed             1290091106  ao basis integrals from 
               2150152  buffers.
  processed             2552227861  ao basis integrals from 
               4253714  buffers.
     144           -76.067449342800927              0.1074627255D-06
   current occupation vector 
     3  1  1  0
     3  1  1  0
 
 sum over diagonal and offdiagdiagonal of C(T)*S*C for irrep
                     1
 -7.345579700057669E-010 -2.630969690339913E-008
 reorthoganalization of MOs is carried out
 sum over diagonal and offdiagdiagonal of C(T)*S*C for irrep
                     1
 -1.085922463062161E-010  7.964071618021041E-010
 
 sum over diagonal and offdiagdiagonal of C(T)*S*C for irrep
                     2
  2.374536123284088E-010  4.854519987069295E-010
 reorthoganalization of MOs is carried out
 sum over diagonal and offdiagdiagonal of C(T)*S*C for irrep
                     2
  5.600520047721602E-012 -2.076249954475965E-011
 
 sum over diagonal and offdiagdiagonal of C(T)*S*C for irrep
                     3
  1.088740653187870E-009  1.702054698111244E-008
 reorthoganalization of MOs is carried out
 sum over diagonal and offdiagdiagonal of C(T)*S*C for irrep
                     3
  3.782452129286185E-011  2.330265951005689E-009
 
 sum over diagonal and offdiagdiagonal of C(T)*S*C for irrep
                     4
  1.308002595123980E-010  2.648116110200210E-010
 reorthoganalization of MOs is carried out
 sum over diagonal and offdiagdiagonal of C(T)*S*C for irrep
                     4
 -1.289079953892269E-012 -4.511164939400683E-012

  SCF has converged.

 Density matrix saved to file den.dat
 total electron number:   10.0000000000001     
  processed              503478066  ao basis integrals from 
                839131  buffers.
  processed             1290091106  ao basis integrals from 
               2150152  buffers.
  processed             2552227861  ao basis integrals from 
               4253714  buffers.
     E(SCF)=       -76.067449342797545              0.8357944031D-08

  @LOCATE-F, Label LABBASIS not found on unit  10.
  @CHECKOUT-I, Total execution time (CPU/WALL):    22021.83/   23722.18 seconds.
 
  ERROR ERROR ERROR ERROR ERROR ERROR 
  Job has terminated with error flag 
  ERROR ERROR ERROR ERROR ERROR ERROR 
 
--executable xvscf finished with status   256 in    23722.95 seconds (walltime).
  This computation required                        24728.81 seconds (walltime).
--- SharcNET Job Epilogue ---
Job completed successfully.
               jobid: 1696428
               resid: 3173187
         exit status: 0
      allocated time: 24730
           user time: 27107.6
         system time: 8615.9
peak rss=32477335552; peak vsz=32477335552 (bytes)
atime=24730; utime=27107.6; stime=8615.9; exit=0
