 --invoking executable--
/home/nike/cfour_v2.00beta/cfour_v2.00beta/bin/xjoda


   *************************************************************************
         <<<     CCCCCC     CCCCCC   |||     CCCCCC     CCCCCC   >>>
       <<<      CCC        CCC       |||    CCC        CCC         >>>
      <<<      CCC        CCC        |||   CCC        CCC            >>>
    <<<        CCC        CCC        |||   CCC        CCC              >>>
      <<<      CCC        CCC        |||   CCC        CCC            >>>
       <<<      CCC        CCC       |||    CCC        CCC         >>>
         <<<     CCCCCC     CCCCCC   |||     CCCCCC     CCCCCC   >>>
   *************************************************************************

     ****************************************************************
     * CFOUR Coupled-Cluster techniques for Computational Chemistry *
     ****************************************************************
 

   Department of Chemistry                Institut fuer Physikalische Chemie
   University of Texas at Austin          Universitaet Mainz
   Austin, TX  78712, USA                 D-55099 Mainz, Germany
 
                       Version 2.00beta
 
                     blg8426.int.ets1.calculquebec.ca                  
                     Sa 7. Mär 09:16:32 EST 2020                      
                     integer*8 version is running
 
********************************************************************************
*                          Input from ZMAT file                                *
********************************************************************************
TITLE                                                                           
O                                                                               
H 1 R                                                                           
H 1 R 2 A                                                                       
                                                                                
R=0.9576257                                                                     
A=104.51                                                                        
                                                                                
*ACES2(CALC=CCSD(T)                                                             
#UNITS=BOHR                                                                     
#GEOM=1.3356*10/5.29177210903                                                   
#COORD=CARTESIAN                                                                
COORD=INTERNAL                                                                  
PRINT=4                                                                         
JODA_PRINT=4                                                                    
INPUT_MRCC=OFF                                                                  
#CC_PROG=MRCC                                                                   
#FROZEN_CORE=ON                                                                 
DROPMO=1>1                                                                      
CONTRACTION=GENERAL                                                             
#CONTRACTION=SEGMENTED                                                          
RELATIVISTIC=OFF                                                                
#EXCITE=EOMEE                                                                   
#ESTATE_CONV=5                                                                  
#ESTATE_SYM=2/2/2/2/2/2/2/2                                                     
XFORM_TOL=18                                                                    
SAVE_INTS=ON                                                                    
SCF_EXPORDER=6                                                                  
SCF_EXPSTART=5                                                                  
#SCF_DAMPING=1000                                                               
SCF_EXTRAPOLATION=ON                                                            
SCF_CONV=13                                                                     
SCF_MAXCYC=99999                                                                
CC_CONV=9                                                                       
CC_MAXCYC=999                                                                   
T3_EXTRAPOL=ON                                                                  
REFERENCE=RHF                                                                   
CHARGE=+0                                                                       
MULT=1                                                                          
ABCDTYPE=STANDARD                                                               
#OCCUPATION=3-2-2-0-1-0-0-0/3-1-1-0-1-0-0-0                                     
MEM=12                                                                          
MEM_UNIT=GB                                                                     
BASIS=SPECIAL)                                                                  
                                                                                
O:def2-TZVPP                                                                    
H:def2-TZVPP                                                                    
H:def2-TZVPP                                                                    
                                                                                
********************************************************************************
  @GTFLGS-W, Keyword #UNITS not known and is ignored.
  @GTFLGS-W, Keyword #GEOM not known and is ignored.
  @GTFLGS-W, Keyword #COORD not known and is ignored.
  @GTFLGS-W, Keyword #CC_PROG not known and is ignored.
  @GTFLGS-W, Keyword #FROZEN_CORE not known and is ignored.
  @GTFLGS-W, Keyword #CONTRACTION not known and is ignored.
  @GTFLGS-W, Keyword #EXCITE not known and is ignored.
  @GTFLGS-W, Keyword #ESTATE_CONV not known and is ignored.
  @GTFLGS-W, Keyword #ESTATE_SYM not known and is ignored.
  @GTFLGS-W, Keyword #SCF_DAMPING not known and is ignored.
  @GTFLGS-W, Keyword #OCCUPATION not known and is ignored.
    -------------------------------------------------------------------
                    CFOUR Control Parameters 
    -------------------------------------------------------------------
        External           Internal           Value            Units
          Name               Name
    -------------------------------------------------------------------
       ABCDTYPE             IABCDT         STANDARD     [  0]   ***   
       ANHARMONIC           IANHAR         OFF          [  0]   ***   
       ANH_ALGORIT          IANALG         STANDARD     [  0]   ***   
       ANH_DERIVAT          IANDER         SECOND       [  1]   ***   
       ANH_STEPSIZ          ICUBST             50000          x 10-6  
       ANH_SYMMETR          IANHSM         ABELIAN      [  0]   ***   
       AO_LADDERS           IAOLAD         SINGLEPASS   [  1]   ***   
       BASIS                IBASIS         SPECIAL      [  0]   ***   
       BREIT                IBREIT         OFF          [  0]   ***   
       BRUCK_CONV           IBRTOL          10D-  4             ***   
       BRUECKNER            IBRKNR             OFF      [  0]   ***   
       BUFFERSIZE           IBUFFS            600               ***   
       CACHE_RECS           ICHREC             10               ***   
       CALCLEVEL            ICLLVL           CCSD(T)    [ 22]   ***   
       CCORBOPT             ICCORB             OFF      [  0] x 0.01  
       CC_CONV              ICCCNV          10D-  9             ***   
       CC_EXPORDER          ICCEOR              5               ***   
       CC_EXTRAPOL          ICCEXT             DIIS     [  1]   ***   
       CC_MAXCYC            ICCCYC            999              cycles 
       CC_PROGRAM           ICCPRO         VCC          [  0]   ***   
       CHARGE               ICHRGE              0               ***   
       CHOLESKY             ICHOLE         OFF          [  0]   ***   
       CIS_CONV             ICISTL              5               ***   
       COMM_SIZE            IPSIZE            ***               ***   
       CONSTANT             ICONST         OLD          [  1]   ***   
       CONTINUUM            ICONTU         NONE         [  0]   ***   
       CONTRACTION          ICNTYP          GENERAL     [  1]   ***   
       COORDINATES          ICOORD         INTERNAL     [  0]   ***   
       CPHF_CONVER          ICPHFT          10D- 16             ***   
       CPHF_MAXCYC          ICPHFC             64              cycles 
       CUBIC                ICUBIC         OFF          [  0]   ***   
       CURVILINEAR          ICURVY            OFF       [  0]   ***   
       DBOC                 IDBOC          OFF          [  0]   ***   
       DCT                  IDCT           OFF          [  0]   ***   
       DERIV_LEV            IDRLVL            ZERO      [  0]   ***   
       DIAG_MRCC            IEOMST          10D-  0             ***   
       DIFF_TYPE            IDIFTY         RELAXED      [  0]   ***   
       DIRECT               IDIRCT         OFF          [  0]   ***   
       DROPMO               IDRPMO   1,
       ECP                  IECP           OFF          [  0]   ***   
       EIGENVECTOR          IVEC                1               ***   
       EL_ANHARM            IELANH         OFF          [  0]   ***   
       EOMFOLLOW            IEOMSR         ENERGY       [  0]   ***   
       EOM_MRCC             IMRCCE         NEW          [  1]   ***   
       EOM_NONIT            EOMNON         OFF          [  0]   ***   
       EOM_NSING            IEOMSI          10D-  0             ***   
       EOM_NSTATES          IMRCCD         DAVIDSON     [  0]   ***   
       EOM_NTRIP            IEOMTR          10D-  0             ***   
       EOM_ORDER            IEXORD         ENERGY       [  0]   ***   
       ESTATE_CONV          IEXTOL          10D-  5             ***   
       ESTATE_DIAG          IEXDIG         ITERATIVE    [  0]   ***   
       ESTATE_LOCK          IESLOC         ON           [  1]   ***   
       ESTATE_MAXC          IEXMXC             20               ***   
       ESTATE_PROP          IEXPRP         OFF          [  0]   ***   
       EVAL_HESS            IRECAL              0            # of cyc.
       EXCITATION           IEXCIT              0               ***   
       EXCITE               IEXCIT         NONE         [  0]   ***   
       FCGRADNEW            IFCGNW         OFF          [  0]   ***   
       FC_FIELD             IFINFC              0             x 10-6  
       FD_CALTYPE           IFDCAL         GRADONLY     [  0]   ***   
       FD_PROJECT           IFDPRJ         OFF          [  1]   ***   
       FD_STEPSIZE          IDISFD              0            10-4 bohr
       FD_USEGROUP          IFDGRP         FULL         [  0]   ***   
       FILE_RECSIZ          IFLREC              4096           words  
       FINITE_PERT          IFIPER              0             x 10-6  
       FIXGEOM              IFIXGM         OFF          [  0]   ***   
       FOCK                 IFOCK          AO           [  1]   ***   
       FREQ_ALGORI          IVIALG         STANDARD     [  0]   ***   
       FROZEN_CORE          IFROCO         OFF          [  0]   ***   
       FROZEN_VIRT          IFROVI         OFF          [  0]   ***   
       GAMMA_ABCD           IGABCD         STORE        [  0]   ***   
       GAMMA_ABCI           IGABCI         STORE        [  0]   ***   
       GENBAS_1             IGNBS1              0               ***   
       GENBAS_2             IGNBS2              0               ***   
       GENBAS_3             IGNBS3              0               ***   
       GENBAS_4             IGNBS4              0               ***   
       GEO_CONV             ICONTL              5              H/bohr 
       GEO_MAXCYC           IOPTCY             50               ***   
       GEO_MAXSTEP          IMXSTP            300            millibohr
       GEO_METHOD           INR            SINGLE_POINT [  5]   ***   
       GIAO                 IGIAO          OFF          [  1]   ***   
       GIMIC                IGIMIC         OFF          [  0]   ***   
       GRID                 IGRID          OFF          [  0]   ***   
       GRID_ALGO            IGALGO         SERIAL       [  0]   ***   
       GUESS                IGUESS            MOREAD    [  0]   ***   
       HBAR                 IHBAR              OFF      [  0]   ***   
       HESS_TYPE            IHESTP         SCF          [  0]   ***   
       HF2_FILE             IHF2Fl         USE          [  1]   ***   
       HFSTABILITY          ISTABL         OFF          [  0]   ***   
       INCORE               INCORE             OFF      [  0]   ***   
       INPUT_MRCC           IMRCC          OFF          [  0]   ***   
       INTEGRALS            INTTYP             VMOL     [  1]   ***   
       JODA_PRINT           IJPRNT              4               ***   
       LINDEP_TOL           ILINDP              8               ***   
       LINEQ_CONV           IZTACN          10D-  7           cycles  
       LINEQ_EXPOR          ILMAXD              5               ***   
       LINEQ_MAXCY          ILMAXC             50               ***   
       LINEQ_TYPE           ILTYPE         DIIS         [  1]   ***   
       LOCK_ORBOCC          ILOCOC             OFF      [  0]   ***   
       MEMORY_SIZE          IMEMSZ         *********           words  
       MEM_UNIT             IMEMU          GB           [  3]   ***   
       MRCC                 IMRCCC         OFF          [  0]   ***   
       MULTIPLICTY          IMULTP              1               ***   
       NEGEVAL              IDIE             ABORT      [  0]   ***   
       NEWNORM              INEWNO         OFF          [  0]   ***   
       NON-HF               INONHF             OFF      [  0]   ***   
       NTOP_TAMP            ITOPT2             15               ***   
       NUC_MODEL            INUCMO         POINT        [  0]   ***   
       OCCUPATION           IOCCU   ESTIMATED BY SCF 
       OPEN-SHELL           IOPEN          SPIN-ORBITAL [  0]   ***   
       ORBITALS             IORBTP           STANDARD   [  0]   ***   
       PARALLEL             IPARAL         ON           [  1]   ***   
       PARA_INT             IPINTS         ON           [  1]   ***   
       PARA_PRINT           IPPRIN              0               ***   
       PERT_ORB             IPTORB         STANDARD     [  0]   ***   
       POINTS               IGRDFD              0               ***   
       PRINT                IPRNT               4               ***   
       PROPS                IPROPS             OFF      [  0]   ***   
       PROP_INTEGR          IINTYP         INTERNAL     [  0]   ***   
       PSI                  IPSI           OFF          [  0]   ***   
       QUARTIC              IQUART         OFF          [  0]   ***   
       RAMAN_INT            IRAMIN         OFF          [  0]   ***   
       RAMAN_ORB            IRAMRE         UNRELAXED    [  0]   ***   
       RDO                  IRDOFM             OFF      [  0]   ***   
       REFERENCE            IREFNC             RHF      [  0]   ***   
       RELATIVIST           IRELAT         OFF          [  0]   ***   
       RELAX_DENS           IRDENS             OFF      [  0]   ***   
       RESET_FLAGS          IRESET             OFF      [  0]   ***   
       RESTART_CC           ICCRES         OFF          [  0]   ***   
       ROT_EVEC             ROTVEC              0               ***   
       SAVE_INTS            ISVINT              ON      [  1]   ***   
       SCALE_ON             ISTCRT              0               ***   
       SCF_CONV             ISCFCV          10D- 13             ***   
       SCF_DAMPING          IDAMP               0             x 10-3  
       SCF_EXPORDE          IRPPOR              6               ***   
       SCF_EXPSTAR          IRPPLS              5               ***   
       SCF_EXTRAPO          IRPP                ON      [  1]   ***   
       SCF_MAXCYC           ISCFCY            ***              cycles 
       SCF_NOSTOP           ISCFST         OFF          [  0]   ***   
       SCF_PRINT            ISCFPR              0               ***   
       SD_FIELD             IFINSD              0             x 10-6  
       SEQUENCE             ISEQUE         OFF          [  0]   ***   
       SOPERT               IPERSO         OFF          [  0]   ***   
       SPHERICAL            IDFGHI             ON       [  1]   ***   
       SPINORBIT            ISOCAL         OFF          [  0]   ***   
       SPINROTATIO          ISRCON         OFF          [  0]   ***   
       SPIN_FLIP            ISPFLP         OFF          [  0]   ***   
       SPIN_ORBIT           ISPORB         OFF          [  0]   ***   
       SPIN_SCAL            ISCSMP         OFF          [  0]   ***   
       SUBGROUP             ISUBGP         DEFAULT      [  0]   ***   
       SUBGRPAXIS           ISBXYZ         X            [  0]   ***   
       SYMMETRY             ISYM             ON         [  0]   ***   
       SYM_CHECK            ISYMCK         OVERRIDE     [  1]   ***   
       T3_EXTRAPOL          IT3EXT         ON           [  1]   ***   
       TAMP_SUM             IEVERY              5               ***   
       TESTSUITE            ITESTS         OFF          [  0]   ***   
       THERMOCH             ITHERM         OFF          [  0]   ***   
       TOL_CHOLESK          ITOLCH          10D-  4             ***   
       TRANGRAD             IRESRM         OFF          [  0]   ***   
       TRANS_INV            ITRAIN         USE          [  0]   ***   
       TREAT_PERT           ITREAT         SIMULTANEOUS [  0]   ***   
       UIJ_THRESHO          IUIJTH              1               ***   
       UNITS                IUNITS         ANGSTROM     [  0]   ***   
       UNOS                 IUNOS          OFF          [  0]   ***   
       UPDATE_HESS          IHUPDT         ON           [  1]   ***   
       VIBPHASE             ISETPH         STANDARD     [  0]   ***   
       VIBRATION            IVIB              NO        [  0]   ***   
       VIB_ALGORIT          IGEALG         STANDARD     [  0]   ***   
       VNATORB              IVNORB         OFF          [  0]   ***   
       VTRAN                IVTRAN         FULL/PARTIAL [  0]   ***   
       XFIELD               IXEFLD              0             x 10-6  
       XFORM_TOL            IXFTOL          10D- 18             ***   
       YFIELD               IYEFLD              0             x 10-6  
       ZFIELD               IZEFLD              0             x 10-6  
    -------------------------------------------------------------------
   3 entries found in Z-matrix 
   Job Title : TITLE                                                                           
 Variable names read by FETCHZ
  1           
  2           
  3           
  4 R         
  5           
  6           
  7 R         
  8 A         
  9           
 Atomic symbols read by FETCHZ
  1 O    
  2 H    
  3 H    
 Connectivity matrix read by FETCHZ
  1   0
  2   0
  3   0
  4   1
  5   0
  6   0
  7   1
  8   2
  9   0
   There are  2 unique internal coordinates.
   Of these,  0 will be optimized.
   User supplied Z-matrix: 
--------------------------------------------------------------------------------
       SYMBOL    BOND      LENGTH    ANGLE     ANGLE     DIHED     ANGLE
                  TO      (ANGST)    WRT      (DEG)      WRT      (DEG)
--------------------------------------------------------------------------------
        O    
        H          1         R    
        H          1         R          2        A    
                  *Initial values for internal coordinates* 
                      Name             Value
                        R               0.9576257000
                        A             104.5100000000
--------------------------------------------------------------------------------
  1  O          8    15.99491
  2  H          1     1.00783
  3  H          1     1.00783
   15.9949146300
    1.0078250350
    1.0078250350
 After translation to center of mass coordinates 
       -0.098033508258    0.000000000000   -0.075891969219
       -0.098033508258    0.000000000000    1.733758712944
        1.653896421974    0.000000000000   -0.529298090715
  Inertia tensor (amu*bohr**2)
    3.40391    0.00000    0.93455
    0.00000    6.32410    0.00000
    0.93455    0.00000    2.92018
    Inertia tensor:
        3.403913567470    0.000000000000    0.934549268627
        0.000000000000    6.324097332824    0.000000000000
        0.934549268627    0.000000000000    2.920183765354
    Principal axis orientation for molecular system: 
        0.000000000000   -0.123976448301    0.000000000000
       -1.430968603519    0.983798098796    0.000000000000
        1.430968603519    0.983798098796    0.000000000000
    Diagonalized inertia tensor:
        2.196708847563    0.000000000000    0.000000000000
        0.000000000000    4.127388485261    0.000000000000
        0.000000000000    0.000000000000    6.324097332824
    Eigenvectors of inertia tensor: 
        0.612148277021    0.790742996769    0.000000000000
        0.000000000000    0.000000000000    1.000000000000
       -0.790742996769    0.612148277021    0.000000000000
 factor:   60.1997200000000     
   Rotational constants (in cm-1): 
          9.5191008031            14.5854261635            27.4045056389
   Rotational constants (in MHz): 
     285375.5027524238        437260.1373131822        821566.5256739719
  @SYMMETRY-I, Handedness of inertial frame:-1.00000
  @SYMMETRY-I, Sense of inertial frame y-axis will be changed.
  @SYMMETRY-I, The symmetry group is 1-fold degenerate.
  @SYMMETRY-I, The molecule belongs to an Abelian group.
   Principal axis orientation for molecule:
        0.000000000000    0.123976448301    0.000000000000
       -1.430968603519   -0.983798098796    0.000000000000
        1.430968603519   -0.983798098796    0.000000000000
   Reflection in plane  3 is a valid symmetry operation.
   Rotation about  2 is a valid symmetry operation 
   Reflection in plane  1 is a valid symmetry operation.
  Symmetry bits:    5   2   0
********************************************************************************
   The full molecular point group is C2v .
   The largest Abelian subgroup of the full molecular point group is C2v .
   The computational point group is C2v .
********************************************************************************
--------------------------------------------------------------------------------
   Analysis of internal coordinates specified by Z-matrix 
--------------------------------------------------------------------------------
   *The nuclear repulsion energy is    9.190899028787090 a.u.
   *There are   2 degrees of freedom within the tot. symm. molecular subspace.
   *Z-matrix requests optimization of   0 coordinates.
   *The optimization is constrained.
   *The following   2 parameters can have non-zero 
    derivatives within the totally symmetric subspace:
             A    [ 3]  R    [ 1]
   *The following   0 parameters are to be optimized:

   *The following coordinates must be varied in an  unconstrained optimization.
             A    [ 3]  R    [ 1]
--------------------------------------------------------------------------------
 ----------------------------------------------------------------
 Z-matrix   Atomic            Coordinates (in bohr)
  Symbol    Number           X              Y              Z
 ----------------------------------------------------------------
     O         8         0.00000000     0.00000000     0.12397645
     H         1         0.00000000    -1.43096860    -0.98379810
     H         1         0.00000000     1.43096860    -0.98379810
 ----------------------------------------------------------------
   Interatomic distance matrix (Angstroms) 
 
                 O             H             H    
                [ 1]        [ 2]        [ 3]
  O    [ 1]     0.00000
  H    [ 2]     0.95763     0.00000
  H    [ 3]     0.95763     1.51447     0.00000
  Inertia tensor (amu*bohr**2)
    6.32410    0.00000    0.00000
    0.00000    2.19671    0.00000
    0.00000    0.00000    4.12739
   Rotational constants (in cm-1): 
          9.5191008031            27.4045056389            14.5854261635
   Rotational constants (in MHz): 
     285375.5027524236        821566.5256739716        437260.1373131821
  @GTFLGS-W, Keyword #UNITS not known and is ignored.
  @GTFLGS-W, Keyword #GEOM not known and is ignored.
  @GTFLGS-W, Keyword #COORD not known and is ignored.
  @GTFLGS-W, Keyword #CC_PROG not known and is ignored.
  @GTFLGS-W, Keyword #FROZEN_CORE not known and is ignored.
  @GTFLGS-W, Keyword #CONTRACTION not known and is ignored.
  @GTFLGS-W, Keyword #EXCITE not known and is ignored.
  @GTFLGS-W, Keyword #ESTATE_CONV not known and is ignored.
  @GTFLGS-W, Keyword #ESTATE_SYM not known and is ignored.
  @GTFLGS-W, Keyword #SCF_DAMPING not known and is ignored.
  @GTFLGS-W, Keyword #OCCUPATION not known and is ignored.
  There are   59 basis functions.
 @GEOPT-W, Archive file not created for single-point calculation.
  @CHECKOUT-I, Total execution time (CPU/WALL):        0.47/       2.35 seconds.
--executable xjoda finished with status     0 in        2.53 seconds (walltime).
 --invoking executable--
/home/nike/cfour_v2.00beta/cfour_v2.00beta/bin/xvmol
 Serial version of molecule started
********************************************************************************
                    Input from MOL file
********************************************************************************
INTGRL        1    0    1    0    0    0    0    0    0                         
         *** CFOUR Program System (Release V0.1) ***                            
TITLE                                                                           
    2    2 X  Y       0.10E-08              0    0                              
   9999.00      3.00                                                            
          8.00000000    1    4    1    1    1    1                              
O #1   0.000000000000000   0.000000000000000   0.123976448300873                
   11    5                                                                      
   27032.3826310000       2.172630246500000E-004  0.000000000000000E+000        
  0.000000000000000E+000  0.000000000000000E+000  0.000000000000000E+000        
   4052.38713920000       1.683866219900000E-003  0.000000000000000E+000        
  0.000000000000000E+000  0.000000000000000E+000  0.000000000000000E+000        
   922.327227100000       8.739561626499999E-003  0.000000000000000E+000        
  0.000000000000000E+000  0.000000000000000E+000  0.000000000000000E+000        
   261.240709890000       3.523996880800000E-002  0.000000000000000E+000        
  0.000000000000000E+000  0.000000000000000E+000  0.000000000000000E+000        
   85.3546413510000       0.111535191150000       0.000000000000000E+000        
  0.000000000000000E+000  0.000000000000000E+000  0.000000000000000E+000        
   31.0350352450000       0.255889539610000       0.000000000000000E+000        
  0.000000000000000E+000  0.000000000000000E+000  0.000000000000000E+000        
   12.2608607280000       0.000000000000000E+000  0.397687309010000             
  0.000000000000000E+000  0.000000000000000E+000  0.000000000000000E+000        
   4.99870760050000       0.000000000000000E+000  0.246278494300000             
  0.000000000000000E+000  0.000000000000000E+000  0.000000000000000E+000        
   1.17031081580000       0.000000000000000E+000  0.000000000000000E+000        
   1.00000000000000       0.000000000000000E+000  0.000000000000000E+000        
  0.464747409940000       0.000000000000000E+000  0.000000000000000E+000        
  0.000000000000000E+000   1.00000000000000       0.000000000000000E+000        
  0.185045363570000       0.000000000000000E+000  0.000000000000000E+000        
  0.000000000000000E+000  0.000000000000000E+000   1.00000000000000             
    6    3                                                                      
   63.2749548010000       6.068510341800000E-003  0.000000000000000E+000        
  0.000000000000000E+000                                                        
   14.6270493790000       4.191257582400000E-002  0.000000000000000E+000        
  0.000000000000000E+000                                                        
   4.45012234560000       0.161538410880000       0.000000000000000E+000        
  0.000000000000000E+000                                                        
   1.52757996470000       0.357069513110000       0.000000000000000E+000        
  0.000000000000000E+000                                                        
  0.529351179430000       0.000000000000000E+000  0.447942075020000             
  0.000000000000000E+000                                                        
  0.174784212700000       0.000000000000000E+000  0.000000000000000E+000        
  0.244460696630000                                                             
    2    2                                                                      
   2.31400000000000        1.00000000000000       0.000000000000000E+000        
  0.645000000000000       0.000000000000000E+000   1.00000000000000             
    1    1                                                                      
   1.42800000000000        1.00000000000000                                     
          1.00000000    1    3    1    1    1                                   
H #2   0.000000000000000  -1.430968603519347  -0.983798098795531                
    5    3                                                                      
   34.0613410000000       6.025197800000000E-003  0.000000000000000E+000        
  0.000000000000000E+000                                                        
   5.12357460000000       4.502109400000000E-002  0.000000000000000E+000        
  0.000000000000000E+000                                                        
   1.16466260000000       0.201897260000000       0.000000000000000E+000        
  0.000000000000000E+000                                                        
  0.327230410000000       0.000000000000000E+000   1.00000000000000             
  0.000000000000000E+000                                                        
  0.103072410000000       0.000000000000000E+000  0.000000000000000E+000        
   1.00000000000000                                                             
    2    2                                                                      
   1.40700000000000        1.00000000000000       0.000000000000000E+000        
  0.388000000000000       0.000000000000000E+000   1.00000000000000             
    1    1                                                                      
   1.05700000000000        1.00000000000000                                     
FINISH                                                                          
 
********************************************************************************
 One- and two-electron integrals over symmetry-adapted AOs are calculated.

  Spherical harmonics are used.
  
   2 types of atoms
   2 symmetry operations

   Reflection in the YZ-plane
   Reflection in the XZ-plane
  
  Integrals less than  0.10E-13 are neglected.

  Atomic type number  1 :
  -----------------------

    Nuclear charge:                        8
    number of symmetry independent atoms:  1
    highest orbital type:                  f

      1 groups of CGTOs of s type
      1 groups of CGTOs of p type
      1 groups of CGTOs of d type
      1 groups of CGTOs of f type

    nuclear coordinates (in a.u.) are :

    O #1        0.000000000000000        0.000000000000000        0.123976448300873
  
   Basis function not normalized: 
   Center (as ordered in MOL file):   1
   Angular Momentum type          : s
   Offset within angular momentum :  1
   <chi|chi>                      :    2.6340117148
   Basis function not normalized: 
   Center (as ordered in MOL file):   1
   Angular Momentum type          : s
   Offset within angular momentum :  2
   <chi|chi>                      :    1.6052797155
   Basis function not normalized: 
   Center (as ordered in MOL file):   1
   Angular Momentum type          : p
   Offset within angular momentum :  1
   <chi|chi>                      :    1.9804419117
   Basis function not normalized: 
   Center (as ordered in MOL file):   1
   Angular Momentum type          : p
   Offset within angular momentum :  2
   <chi|chi>                      :    2.2324315035
   Basis function not normalized: 
   Center (as ordered in MOL file):   1
   Angular Momentum type          : p
   Offset within angular momentum :  3
   <chi|chi>                      :    4.0906371199
  Atomic type number  2 :
  -----------------------

    Nuclear charge:                        1
    number of symmetry independent atoms:  1
    highest orbital type:                  d

      1 groups of CGTOs of s type
      1 groups of CGTOs of p type
      1 groups of CGTOs of d type

    nuclear coordinates (in a.u.) are :

    H #2        0.000000000000000       -1.430968603519347       -0.983798098795531
  
   Basis function not normalized: 
   Center (as ordered in MOL file):   2
   Angular Momentum type          : s
   Offset within angular momentum :  1
   <chi|chi>                      :    4.2221530402
   Internuclear distances (A) :

     for atom O #1 (coordinates :   0.00000   0.00000   0.12398)

     H #2   1     distance is  0.958

     for atom H #2 (coordinates :   0.00000  -1.43097  -0.98380)

     H #2   3     distance is  1.514

   Group multiplication table :

         1   2   3   4
         2   1   4   3
         3   4   1   2
         4   3   2   1

   Gaussian basis information :

   atom                 exponent      coefficients

 O #1  1    S   
+                 1   27032.382631   0.0002173   0.0000000   0.0000000   0.0000000   0.0000000
                  2    4052.387139   0.0016839   0.0000000   0.0000000   0.0000000   0.0000000
                  3     922.327227   0.0087396   0.0000000   0.0000000   0.0000000   0.0000000
                  4     261.240710   0.0352400   0.0000000   0.0000000   0.0000000   0.0000000
                  5      85.354641   0.1115352   0.0000000   0.0000000   0.0000000   0.0000000
                  6      31.035035   0.2558895   0.0000000   0.0000000   0.0000000   0.0000000
                  7      12.260861   0.0000000   0.3976873   0.0000000   0.0000000   0.0000000
                  8       4.998708   0.0000000   0.2462785   0.0000000   0.0000000   0.0000000
                  9       1.170311   0.0000000   0.0000000   1.0000000   0.0000000   0.0000000
                 10       0.464747   0.0000000   0.0000000   0.0000000   1.0000000   0.0000000
                 11       0.185045   0.0000000   0.0000000   0.0000000   0.0000000   1.0000000

 O #1  1    X   
+                12      63.274955   0.0060685   0.0000000   0.0000000
                 13      14.627049   0.0419126   0.0000000   0.0000000
                 14       4.450122   0.1615384   0.0000000   0.0000000
                 15       1.527580   0.3570695   0.0000000   0.0000000
                 16       0.529351   0.0000000   0.4479421   0.0000000
                 17       0.174784   0.0000000   0.0000000   0.2444607

 O #1  1    Y   
+                18      63.274955   0.0060685   0.0000000   0.0000000
                 19      14.627049   0.0419126   0.0000000   0.0000000
                 20       4.450122   0.1615384   0.0000000   0.0000000
                 21       1.527580   0.3570695   0.0000000   0.0000000
                 22       0.529351   0.0000000   0.4479421   0.0000000
                 23       0.174784   0.0000000   0.0000000   0.2444607

 O #1  1    Z   
+                24      63.274955   0.0060685   0.0000000   0.0000000
                 25      14.627049   0.0419126   0.0000000   0.0000000
                 26       4.450122   0.1615384   0.0000000   0.0000000
                 27       1.527580   0.3570695   0.0000000   0.0000000
                 28       0.529351   0.0000000   0.4479421   0.0000000
                 29       0.174784   0.0000000   0.0000000   0.2444607

 O #1  1    XX  
+                30       2.314000   1.0000000   0.0000000
                 31       0.645000   0.0000000   1.0000000

 O #1  1    XY  
+                32       2.314000   1.0000000   0.0000000
                 33       0.645000   0.0000000   1.0000000

 O #1  1    XZ  
+                34       2.314000   1.0000000   0.0000000
                 35       0.645000   0.0000000   1.0000000

 O #1  1    YY  
+                36       2.314000   1.0000000   0.0000000
                 37       0.645000   0.0000000   1.0000000

 O #1  1    YZ  
+                38       2.314000   1.0000000   0.0000000
                 39       0.645000   0.0000000   1.0000000

 O #1  1    ZZ  
+                40       2.314000   1.0000000   0.0000000
                 41       0.645000   0.0000000   1.0000000

 O #1  1    F300
+                42       1.428000   1.0000000

 O #1  1    F210
+                43       1.428000   1.0000000

 O #1  1    F201
+                44       1.428000   1.0000000

 O #1  1    F120
+                45       1.428000   1.0000000

 O #1  1    F111
+                46       1.428000   1.0000000

 O #1  1    F102
+                47       1.428000   1.0000000

 O #1  1    F030
+                48       1.428000   1.0000000

 O #1  1    F021
+                49       1.428000   1.0000000

 O #1  1    F012
+                50       1.428000   1.0000000

 O #1  1    F003
+                51       1.428000   1.0000000

 H #2  1    S   
+                52      34.061341   0.0060252   0.0000000   0.0000000
                 53       5.123575   0.0450211   0.0000000   0.0000000
                 54       1.164663   0.2018973   0.0000000   0.0000000
                 55       0.327230   0.0000000   1.0000000   0.0000000
                 56       0.103072   0.0000000   0.0000000   1.0000000

 H #2  3    S   
+                57      34.061341   0.0060252   0.0000000   0.0000000
                 58       5.123575   0.0450211   0.0000000   0.0000000
                 59       1.164663   0.2018973   0.0000000   0.0000000
                 60       0.327230   0.0000000   1.0000000   0.0000000
                 61       0.103072   0.0000000   0.0000000   1.0000000

 H #2  1    X   
+                62       1.407000   1.0000000   0.0000000
                 63       0.388000   0.0000000   1.0000000

 H #2  3    X   
+                64       1.407000   1.0000000   0.0000000
                 65       0.388000   0.0000000   1.0000000

 H #2  1    Y   
+                66       1.407000   1.0000000   0.0000000
                 67       0.388000   0.0000000   1.0000000

 H #2  3    Y   
+                68       1.407000   1.0000000   0.0000000
                 69       0.388000   0.0000000   1.0000000

 H #2  1    Z   
+                70       1.407000   1.0000000   0.0000000
                 71       0.388000   0.0000000   1.0000000

 H #2  3    Z   
+                72       1.407000   1.0000000   0.0000000
                 73       0.388000   0.0000000   1.0000000

 H #2  1    XX  
+                74       1.057000   1.0000000

 H #2  3    XX  
+                75       1.057000   1.0000000

 H #2  1    XY  
+                76       1.057000   1.0000000

 H #2  3    XY  
+                77       1.057000   1.0000000

 H #2  1    XZ  
+                78       1.057000   1.0000000

 H #2  3    XZ  
+                79       1.057000   1.0000000

 H #2  1    YY  
+                80       1.057000   1.0000000

 H #2  3    YY  
+                81       1.057000   1.0000000

 H #2  1    YZ  
+                82       1.057000   1.0000000

 H #2  3    YZ  
+                83       1.057000   1.0000000

 H #2  1    ZZ  
+                84       1.057000   1.0000000

 H #2  3    ZZ  
+                85       1.057000   1.0000000
 66 59
  1  2  3  4  5  6  7  8  9 10 11 12****** 13 14*** 15 16 17 18 19 20 21 22
 23 24*** 25 26 27 28 29 30 31*** 32 33 34 35 36 37 38 39 40 41 42*** 43 44
 45 46 47 48 49 50 51 52*** 53 54 55 56 57 58 59
1

             SYMMETRY TRANSFORMATION INFO
             59 SYMMETRY ADAPTED BASIS FUNCTIONS 


          irreducible representation number 1

    1    1  O #1     1s     1   1   1.0
    2    2  O #1     1s     1   2   1.0
    3    3  O #1     1s     1   3   1.0
    4    4  O #1     1s     1   4   1.0
    5    5  O #1     1s     1   5   1.0
    6    6  O #1     2pz    1  12   1.0
    7    7  O #1     2pz    1  13   1.0
    8    8  O #1     2pz    1  14   1.0
    9    9  O #1     3d2-   3  15  -1.0  21  -1.0  25   2.0
   10   10  O #1     3d2-   3  16  -1.0  22  -1.0  26   2.0
   11   11  O #1     3d1+   2  15   1.0  21  -1.0
   12   12  O #1     3d1+   2  16   1.0  22  -1.0
   13   13  O #1     4f1-   3  29  -3.0  34  -3.0  36   2.0
   14   14  O #1     4f3+   2  29   1.0  34  -1.0
   15   15  H #2     1s     2  37   1.0  38   1.0
   16   16  H #2     1s     2  39   1.0  40   1.0
   17   17  H #2     1s     2  41   1.0  42   1.0
   18   18  H #2     2py    2  47   1.0  48  -1.0
   19   19  H #2     2py    2  49   1.0  50  -1.0
   20   20  H #2     2pz    2  51   1.0  52   1.0
   21   21  H #2     2pz    2  53   1.0  54   1.0
   22   22  H #2     3d2-   6  55  -1.0  61  -1.0  65   2.0  56  -1.0  62  -1.0  66   2.0
   23   23  H #2     3d1+   4  55   1.0  61  -1.0  56   1.0  62  -1.0
   24   24  H #2     3d2+   2  63   1.0  64  -1.0


          irreducible representation number 2

   25    1  O #1     2px    1   6   1.0
   26    2  O #1     2px    1   7   1.0
   27    3  O #1     2px    1   8   1.0
   28    4  O #1     3d0    1  19   1.0
   29    5  O #1     3d0    1  20   1.0
   30    6  O #1     4f3-   3  27  -1.0  30  -1.0  32   4.0
   31    7  O #1     4f0    2  27   1.0  30  -3.0
   32    8  H #2     2px    2  43   1.0  44   1.0
   33    9  H #2     2px    2  45   1.0  46   1.0
   34   10  H #2     3d1-   2  57   1.0  58  -1.0
   35   11  H #2     3d0    2  59   1.0  60   1.0


          irreducible representation number 3

   36    1  O #1     2py    1   9   1.0
   37    2  O #1     2py    1  10   1.0
   38    3  O #1     2py    1  11   1.0
   39    4  O #1     3d2+   1  23   1.0
   40    5  O #1     3d2+   1  24   1.0
   41    6  O #1     4f2-   3  28  -1.0  33  -1.0  35   4.0
   42    7  O #1     4f2+   2  28   3.0  33  -1.0
   43    8  H #2     1s     2  37   1.0  38  -1.0
   44    9  H #2     1s     2  39   1.0  40  -1.0
   45   10  H #2     1s     2  41   1.0  42  -1.0
   46   11  H #2     2py    2  47   1.0  48   1.0
   47   12  H #2     2py    2  49   1.0  50   1.0
   48   13  H #2     2pz    2  51   1.0  52  -1.0
   49   14  H #2     2pz    2  53   1.0  54  -1.0
   50   15  H #2     3d2-   6  55  -1.0  61  -1.0  65   2.0  56   1.0  62   1.0  66  -2.0
   51   16  H #2     3d1+   4  55   1.0  61  -1.0  56  -1.0  62   1.0
   52   17  H #2     3d2+   2  63   1.0  64   1.0


          irreducible representation number 4

   53    1  O #1     3d1-   1  17   1.0
   54    2  O #1     3d1-   1  18   1.0
   55    3  O #1     4f1+   1  31   1.0
   56    4  H #2     2px    2  43   1.0  44  -1.0
   57    5  H #2     2px    2  45   1.0  46  -1.0
   58    6  H #2     3d1-   2  57   1.0  58   1.0
   59    7  H #2     3d0    2  59   1.0  60  -1.0
  Nuclear repulsion energy :    9.1908990288 a.u.
  required memory for a1 array                5029908  words 
  required memory for a2 array                2103164  words 
 @GETMEM-I,  Allocated      69 MB of main memory.
  @MOLECU-I, One electron integrals (CPU/WALL):        0.02/       0.31 seconds.
  @TWOEL-I,      53503 integrals of symmetry type  I I I I
  @TWOEL-I,     149218 integrals of symmetry type  I J I J
  @TWOEL-I,      83570 integrals of symmetry type  I I J J
  @TWOEL-I,      88664 integrals of symmetry type  I J K L
  @TWOEL-I, Total number of 2-e integrals     374955.
  @MOLECU-I, Two electron integrals (CPU/WALL):        0.24/       0.25 seconds.
  @CHECKOUT-I, Total execution time (CPU/WALL):        0.49/       0.81 seconds.
--executable xvmol finished with status     0 in        0.95 seconds (walltime).
 --invoking executable--
/home/nike/cfour_v2.00beta/cfour_v2.00beta/bin/xvmol2ja
 @GETMEM-I,  Allocated   11444 MB of main memory.
  @CHECKOUT-I, Total execution time (CPU/WALL):        0.01/       0.02 seconds.
--executable xvmol2ja finished with status     0 in        0.13 seconds (walltime).
 --invoking executable--
/home/nike/cfour_v2.00beta/cfour_v2.00beta/bin/xvscf
  There are   59 functions in the AO basis.

  There are 4 irreducible representations.

       Irrep        # of functions
         1                 24
         2                 11
         3                 17
         4                  7


  Parameters for SCF calculation: 
        SCF reference function:  RHF  
  Maximum number of iterations: ****
     Full symmetry point group: C2v 
     Computational point group: C2v 
        Initial density matrix: MOREAD                 
     SCF convergence tolerance: 10**(-13)
  DIIS convergence acceleration:  ON
          Latest start for DIIS:   5
                     DIIS order:   6

  Memory information:     184349 words required.
  Fock matrices are constructed from AO integral file.
 @GETMEM-I,  Allocated       1 MB of main memory.
  Initialization and symmetry analysis required      0.020 seconds.

  @INITGES-I, Occupancies from core Hamiltonian:

          Alpha population by irrep:   3    1    1    0
           Beta population by irrep:   3    1    1    0


 total no. of electrons in initial guess :  0.000000000000000E+000
  --------------------------------------------------------------------
  Iteration         Total Energy            Largest Density Difference
  --------------------------------------------------------------------
       0             9.190899028787092              0.0000000000D+00
   current occupation vector 
     3  1  1  0
     3  1  1  0
  processed                  53503  ao basis integrals from 
                    90  buffers.
  processed                  83570  ao basis integrals from 
                   140  buffers.
  processed                 149218  ao basis integrals from 
                   249  buffers.
       1           -63.707942491439077              0.3436870045D+01
   current occupation vector 
     3  1  1  0
     3  1  1  0
  processed                  53503  ao basis integrals from 
                    90  buffers.
  processed                  83570  ao basis integrals from 
                   140  buffers.
  processed                 149218  ao basis integrals from 
                   249  buffers.
       2           -66.987939928479449              0.1485842940D+02
   current occupation vector 
     3  0  2  0
     3  0  2  0
  processed                  53503  ao basis integrals from 
                    90  buffers.
  processed                  83570  ao basis integrals from 
                   140  buffers.
  processed                 149218  ao basis integrals from 
                   249  buffers.
       3           -71.902600717280151              0.1494783229D+02
   current occupation vector 
     3  1  1  0
     3  1  1  0
  processed                  53503  ao basis integrals from 
                    90  buffers.
  processed                  83570  ao basis integrals from 
                   140  buffers.
  processed                 149218  ao basis integrals from 
                   249  buffers.
       4           -70.077919866756332              0.9744756283D+01
   current occupation vector 
     3  0  2  0
     3  0  2  0
 
 sum over diagonal and offdiagdiagonal of C(T)*S*C for irrep
                     1
 -3.227418332585330E-013  2.683641896709911E-013
 reorthoganalization of MOs is carried out
 sum over diagonal and offdiagdiagonal of C(T)*S*C for irrep
                     1
  3.885780586188048E-015 -4.974780235820928E-015
 
 sum over diagonal and offdiagdiagonal of C(T)*S*C for irrep
                     2
  6.905587213168474E-014 -3.411702564391389E-014
 reorthoganalization of MOs is carried out
 sum over diagonal and offdiagdiagonal of C(T)*S*C for irrep
                     2
  7.771561172376096E-016  2.618635680265879E-015
 
 sum over diagonal and offdiagdiagonal of C(T)*S*C for irrep
                     3
  9.703349235223868E-014  2.819824048493888E-014
 reorthoganalization of MOs is carried out
 sum over diagonal and offdiagdiagonal of C(T)*S*C for irrep
                     3
  1.065814103640150E-014  6.834124253602927E-015
 
 sum over diagonal and offdiagdiagonal of C(T)*S*C for irrep
                     4
  9.214851104388799E-015 -1.797126486047836E-015
 reorthoganalization of MOs is carried out
 sum over diagonal and offdiagdiagonal of C(T)*S*C for irrep
                     4
 -3.330669073875470E-016  1.018600285038323E-016
  processed                  53503  ao basis integrals from 
                    90  buffers.
  processed                  83570  ao basis integrals from 
                   140  buffers.
  processed                 149218  ao basis integrals from 
                   249  buffers.
       5           -73.072042575714846              0.9743660151D+01
   current occupation vector 
     3  1  1  0
     3  1  1  0
  processed                  53503  ao basis integrals from 
                    90  buffers.
  processed                  83570  ao basis integrals from 
                   140  buffers.
  processed                 149218  ao basis integrals from 
                   249  buffers.
       6           -75.842871421210702              0.5938242105D+00
   current occupation vector 
     3  1  1  0
     3  1  1  0
  processed                  53503  ao basis integrals from 
                    90  buffers.
  processed                  83570  ao basis integrals from 
                   140  buffers.
  processed                 149218  ao basis integrals from 
                   249  buffers.
       7           -76.061503649533620              0.1274892998D+00
   current occupation vector 
     3  1  1  0
     3  1  1  0
  processed                  53503  ao basis integrals from 
                    90  buffers.
  processed                  83570  ao basis integrals from 
                   140  buffers.
  processed                 149218  ao basis integrals from 
                   249  buffers.
       8           -76.062263062084710              0.1730330240D-01
   current occupation vector 
     3  1  1  0
     3  1  1  0
  processed                  53503  ao basis integrals from 
                    90  buffers.
  processed                  83570  ao basis integrals from 
                   140  buffers.
  processed                 149218  ao basis integrals from 
                   249  buffers.
       9           -76.062487251963830              0.4190204955D-02
   current occupation vector 
     3  1  1  0
     3  1  1  0
 
 sum over diagonal and offdiagdiagonal of C(T)*S*C for irrep
                     1
 -3.237410339806956E-013  1.797002788062347E-013
 reorthoganalization of MOs is carried out
 sum over diagonal and offdiagdiagonal of C(T)*S*C for irrep
                     1
 -1.998401444325282E-014  2.994804508972920E-014
 
 sum over diagonal and offdiagdiagonal of C(T)*S*C for irrep
                     2
  6.705747068735946E-014 -2.682211193686802E-014
 reorthoganalization of MOs is carried out
 sum over diagonal and offdiagdiagonal of C(T)*S*C for irrep
                     2
  1.887379141862766E-015 -4.628426213468099E-016
 
 sum over diagonal and offdiagdiagonal of C(T)*S*C for irrep
                     3
  8.359979375427429E-014  8.187024227233597E-014
 reorthoganalization of MOs is carried out
 sum over diagonal and offdiagdiagonal of C(T)*S*C for irrep
                     3
 -5.329070518200751E-015 -2.237764814397844E-015
 
 sum over diagonal and offdiagdiagonal of C(T)*S*C for irrep
                     4
  4.329869796038111E-015  2.253139855011213E-014
 reorthoganalization of MOs is carried out
 sum over diagonal and offdiagdiagonal of C(T)*S*C for irrep
                     4
  0.000000000000000E+000  1.119928530517109E-015
  processed                  53503  ao basis integrals from 
                    90  buffers.
  processed                  83570  ao basis integrals from 
                   140  buffers.
  processed                 149218  ao basis integrals from 
                   249  buffers.
      10           -76.062490051902984              0.6363601766D-03
   current occupation vector 
     3  1  1  0
     3  1  1  0
  processed                  53503  ao basis integrals from 
                    90  buffers.
  processed                  83570  ao basis integrals from 
                   140  buffers.
  processed                 149218  ao basis integrals from 
                   249  buffers.
      11           -76.062490252874312              0.2922140466D-03
   current occupation vector 
     3  1  1  0
     3  1  1  0
  processed                  53503  ao basis integrals from 
                    90  buffers.
  processed                  83570  ao basis integrals from 
                   140  buffers.
  processed                 149218  ao basis integrals from 
                   249  buffers.
      12           -76.062490262671005              0.4798366567D-04
   current occupation vector 
     3  1  1  0
     3  1  1  0
  processed                  53503  ao basis integrals from 
                    90  buffers.
  processed                  83570  ao basis integrals from 
                   140  buffers.
  processed                 149218  ao basis integrals from 
                   249  buffers.
      13           -76.062490262898933              0.7458546477D-05
   current occupation vector 
     3  1  1  0
     3  1  1  0
  processed                  53503  ao basis integrals from 
                    90  buffers.
  processed                  83570  ao basis integrals from 
                   140  buffers.
  processed                 149218  ao basis integrals from 
                   249  buffers.
      14           -76.062490262903978              0.1202621697D-05
   current occupation vector 
     3  1  1  0
     3  1  1  0
 
 sum over diagonal and offdiagdiagonal of C(T)*S*C for irrep
                     1
 -3.600453268859383E-013  2.571026953946315E-013
 reorthoganalization of MOs is carried out
 sum over diagonal and offdiagdiagonal of C(T)*S*C for irrep
                     1
  2.442490654175344E-014 -1.046080981866669E-013
 
 sum over diagonal and offdiagdiagonal of C(T)*S*C for irrep
                     2
  6.661338147750939E-014 -4.839318923911283E-015
 reorthoganalization of MOs is carried out
 sum over diagonal and offdiagdiagonal of C(T)*S*C for irrep
                     2
  2.220446049250313E-016 -2.304116078878388E-015
 
 sum over diagonal and offdiagdiagonal of C(T)*S*C for irrep
                     3
  1.154631945610163E-013  9.765499663661879E-014
 reorthoganalization of MOs is carried out
 sum over diagonal and offdiagdiagonal of C(T)*S*C for irrep
                     3
  3.219646771412954E-015  2.054374632659423E-014
 
 sum over diagonal and offdiagdiagonal of C(T)*S*C for irrep
                     4
  1.298960938811433E-014  3.015179639664243E-014
 reorthoganalization of MOs is carried out
 sum over diagonal and offdiagdiagonal of C(T)*S*C for irrep
                     4
 -4.440892098500626E-016  4.326435974697451E-016
  processed                  53503  ao basis integrals from 
                    90  buffers.
  processed                  83570  ao basis integrals from 
                   140  buffers.
  processed                 149218  ao basis integrals from 
                   249  buffers.
      15           -76.062490262903651              0.2706879502D-06
   current occupation vector 
     3  1  1  0
     3  1  1  0
  processed                  53503  ao basis integrals from 
                    90  buffers.
  processed                  83570  ao basis integrals from 
                   140  buffers.
  processed                 149218  ao basis integrals from 
                   249  buffers.
      16           -76.062490262903950              0.4633864428D-07
   current occupation vector 
     3  1  1  0
     3  1  1  0
  processed                  53503  ao basis integrals from 
                    90  buffers.
  processed                  83570  ao basis integrals from 
                   140  buffers.
  processed                 149218  ao basis integrals from 
                   249  buffers.
      17           -76.062490262904106              0.1108520528D-07
   current occupation vector 
     3  1  1  0
     3  1  1  0
  processed                  53503  ao basis integrals from 
                    90  buffers.
  processed                  83570  ao basis integrals from 
                   140  buffers.
  processed                 149218  ao basis integrals from 
                   249  buffers.
      18           -76.062490262903978              0.1511182679D-08
   current occupation vector 
     3  1  1  0
     3  1  1  0
  processed                  53503  ao basis integrals from 
                    90  buffers.
  processed                  83570  ao basis integrals from 
                   140  buffers.
  processed                 149218  ao basis integrals from 
                   249  buffers.
      19           -76.062490262904106              0.3019194894D-09
   current occupation vector 
     3  1  1  0
     3  1  1  0
 
 sum over diagonal and offdiagdiagonal of C(T)*S*C for irrep
                     1
 -3.688160887804770E-013  2.576409000492974E-013
 reorthoganalization of MOs is carried out
 sum over diagonal and offdiagdiagonal of C(T)*S*C for irrep
                     1
 -2.042810365310288E-014 -1.069506902565684E-014
 
 sum over diagonal and offdiagdiagonal of C(T)*S*C for irrep
                     2
  6.139533326177116E-014 -1.854836347095269E-014
 reorthoganalization of MOs is carried out
 sum over diagonal and offdiagdiagonal of C(T)*S*C for irrep
                     2
 -5.551115123125783E-016  2.872319264574921E-015
 
 sum over diagonal and offdiagdiagonal of C(T)*S*C for irrep
                     3
  1.258992909924928E-013  4.517163495647990E-014
 reorthoganalization of MOs is carried out
 sum over diagonal and offdiagdiagonal of C(T)*S*C for irrep
                     3
  6.217248937900877E-015  3.557861691040162E-014
 
 sum over diagonal and offdiagdiagonal of C(T)*S*C for irrep
                     4
  1.065814103640150E-014  2.404013980358493E-014
 reorthoganalization of MOs is carried out
 sum over diagonal and offdiagdiagonal of C(T)*S*C for irrep
                     4
  0.000000000000000E+000 -1.509077802681572E-015
  processed                  53503  ao basis integrals from 
                    90  buffers.
  processed                  83570  ao basis integrals from 
                   140  buffers.
  processed                 149218  ao basis integrals from 
                   249  buffers.
      20           -76.062490262903736              0.4668693210D-10
   current occupation vector 
     3  1  1  0
     3  1  1  0
  processed                  53503  ao basis integrals from 
                    90  buffers.
  processed                  83570  ao basis integrals from 
                   140  buffers.
  processed                 149218  ao basis integrals from 
                   249  buffers.
      21           -76.062490262904006              0.1108085845D-10
   current occupation vector 
     3  1  1  0
     3  1  1  0
  processed                  53503  ao basis integrals from 
                    90  buffers.
  processed                  83570  ao basis integrals from 
                   140  buffers.
  processed                 149218  ao basis integrals from 
                   249  buffers.
      22           -76.062490262904163              0.1909417069D-11
   current occupation vector 
     3  1  1  0
     3  1  1  0
  processed                  53503  ao basis integrals from 
                    90  buffers.
  processed                  83570  ao basis integrals from 
                   140  buffers.
  processed                 149218  ao basis integrals from 
                   249  buffers.
      23           -76.062490262904248              0.8164857679D-12
   current occupation vector 
     3  1  1  0
     3  1  1  0
  processed                  53503  ao basis integrals from 
                    90  buffers.
  processed                  83570  ao basis integrals from 
                   140  buffers.
  processed                 149218  ao basis integrals from 
                   249  buffers.
      24           -76.062490262903978              0.3126943149D-12
   current occupation vector 
     3  1  1  0
     3  1  1  0
 
 sum over diagonal and offdiagdiagonal of C(T)*S*C for irrep
                     1
 -3.852473895449293E-013  2.468320373142283E-013
 reorthoganalization of MOs is carried out
 sum over diagonal and offdiagdiagonal of C(T)*S*C for irrep
                     1
  1.132427485117660E-014  6.822572398412109E-014
 
 sum over diagonal and offdiagdiagonal of C(T)*S*C for irrep
                     2
  8.060219158778636E-014 -2.673529276749083E-014
 reorthoganalization of MOs is carried out
 sum over diagonal and offdiagdiagonal of C(T)*S*C for irrep
                     2
  1.110223024625157E-015  1.285777741827815E-015
 
 sum over diagonal and offdiagdiagonal of C(T)*S*C for irrep
                     3
  1.271205363195804E-013  6.838945800195110E-014
 reorthoganalization of MOs is carried out
 sum over diagonal and offdiagdiagonal of C(T)*S*C for irrep
                     3
  9.325873406851315E-015 -1.071267481349283E-014
 
 sum over diagonal and offdiagdiagonal of C(T)*S*C for irrep
                     4
  1.099120794378905E-014  2.841113236337716E-014
 reorthoganalization of MOs is carried out
 sum over diagonal and offdiagdiagonal of C(T)*S*C for irrep
                     4
  7.771561172376096E-016 -2.064304529760041E-016
  processed                  53503  ao basis integrals from 
                    90  buffers.
  processed                  83570  ao basis integrals from 
                   140  buffers.
  processed                 149218  ao basis integrals from 
                   249  buffers.
      25           -76.062490262903751              0.1512123760D-12
   current occupation vector 
     3  1  1  0
     3  1  1  0
  processed                  53503  ao basis integrals from 
                    90  buffers.
  processed                  83570  ao basis integrals from 
                   140  buffers.
  processed                 149218  ao basis integrals from 
                   249  buffers.
      26           -76.062490262904063              0.4636291351D-12
   current occupation vector 
     3  1  1  0
     3  1  1  0
  processed                  53503  ao basis integrals from 
                    90  buffers.
  processed                  83570  ao basis integrals from 
                   140  buffers.
  processed                 149218  ao basis integrals from 
                   249  buffers.
      27           -76.062490262904149              0.1134370375D-12
   current occupation vector 
     3  1  1  0
     3  1  1  0
  processed                  53503  ao basis integrals from 
                    90  buffers.
  processed                  83570  ao basis integrals from 
                   140  buffers.
  processed                 149218  ao basis integrals from 
                   249  buffers.
      28           -76.062490262904092              0.2476907568D-12
   current occupation vector 
     3  1  1  0
     3  1  1  0

  SCF has converged.

 Density matrix saved to file den.dat
 total electron number:   10.0000000000000     
  processed                  53503  ao basis integrals from 
                    90  buffers.
  processed                  83570  ao basis integrals from 
                   140  buffers.
  processed                 149218  ao basis integrals from 
                   249  buffers.
     E(SCF)=       -76.062490262904134              0.8909539773D-13


  ORBITAL EIGENVECTORS

  SYMMETRY BLOCK 1 (ALPHA)

                          MO #  1       MO #  2       MO #  3       MO #  4

    BASIS/ORB E          -20.55924      -1.34895      -0.58141       0.12539
                        ----------    ----------    ----------    ----------
    1; O #1                0.43563       0.09597       0.03166       0.02597
    2; O #1                0.64233       0.23233       0.07810       0.06822
    3; O #1                0.02188      -0.33290      -0.11966      -0.14882
    4; O #1               -0.00772      -0.44216      -0.20350       0.02160
    5; O #1                0.00226      -0.15270      -0.22921      -1.83825
    6; O #1               -0.00191       0.05977      -0.40789       0.10675
    7; O #1                0.00140       0.05128      -0.33700       0.17928
    8; O #1               -0.00021       0.00463      -0.20018       0.53713
    9; O #1                0.00001      -0.00026       0.00164       0.00021
   10; O #1               -0.00007      -0.00089       0.00468      -0.00546
   11; O #1               -0.00006       0.00173      -0.00163      -0.00218
   12; O #1                0.00009       0.00308      -0.00181       0.01667
   13; O #1                0.00002      -0.00004      -0.00011       0.00005
   14; O #1                0.00007      -0.00091       0.00113      -0.00065
   15; H #2                0.00027      -0.08909       0.08562       0.01820
   16; H #2                0.00064      -0.07704       0.15038       0.25557
   17; H #2               -0.00035      -0.00395       0.03695       1.13670
   18; H #2               -0.00012      -0.01236       0.01113      -0.01586
   19; H #2                0.00036      -0.01026       0.02542       0.12177
   20; H #2               -0.00019      -0.00901       0.00025      -0.00920
   21; H #2                0.00016      -0.00567      -0.01096       0.07142
   22; H #2               -0.00003      -0.00004      -0.00082      -0.00007
   23; H #2                0.00007       0.00127      -0.00219      -0.00132
   24; H #2               -0.00034      -0.00381       0.00151       0.00461


                          MO #  5       MO #  6       MO #  7       MO #  8

    BASIS/ORB E            0.55389       0.60182       0.72461       0.82446
                        ----------    ----------    ----------    ----------
    1; O #1                0.01893       0.03069       0.04352       0.01022
    2; O #1                0.03771       0.07469       0.09270       0.01992
    3; O #1                0.17093      -0.09241       0.01870      -0.00493
    4; O #1               -1.25510      -0.23106      -1.26664      -0.38925
    5; O #1               -2.26607       1.42093       5.25201       3.28471
    6; O #1               -0.20557       0.22131       0.02822      -0.09826
    7; O #1                0.03163       0.12416      -0.45113      -0.69736
    8; O #1                2.16528      -0.49217      -0.93546      -1.55804
    9; O #1                0.00334      -0.00372       0.00259      -0.00974
   10; O #1               -0.01765       0.01403      -0.00604       0.03854
   11; O #1               -0.00882      -0.00445       0.01291      -0.00068
   12; O #1                0.09471      -0.03262      -0.09342      -0.00661
   13; O #1               -0.00167      -0.00075       0.00191      -0.00086
   14; O #1               -0.01551      -0.00276       0.01074       0.01051
   15; H #2                0.00659       0.09375       0.01632       0.01108
   16; H #2                1.85589       0.43975      -1.47449      -1.68275
   17; H #2                0.26834      -0.86998      -0.95811      -0.29313
   18; H #2                0.03618       0.02175      -0.02786      -0.00393
   19; H #2                0.51139      -0.52795      -0.30145      -0.72243
   20; H #2                0.03053       0.00974      -0.00216      -0.05386
   21; H #2                0.32365      -0.12695      -0.58960       0.48151
   22; H #2                0.00068       0.00416      -0.00578       0.01065
   23; H #2               -0.02014       0.00478       0.00972       0.02662
   24; H #2                0.05158      -0.01033      -0.04316      -0.00500


                          MO #  9       MO # 10       MO # 11       MO # 12

    BASIS/ORB E            1.36902       2.07072       2.15755       2.41475
                        ----------    ----------    ----------    ----------
    1; O #1                0.02873       0.00292       0.00469       0.03480
    2; O #1                0.05448       0.02296       0.01356       0.11894
    3; O #1                0.56664      -0.71245      -0.05044      -0.99942
    4; O #1               -4.61085       3.52988       0.03988       2.78509
    5; O #1               -3.97451       4.81435      -2.08009       0.33339
    6; O #1                0.15016      -0.06020       0.17466       0.43208
    7; O #1                2.18729      -1.69535       0.22310      -1.35279
    8; O #1                0.98248      -1.67205       1.24075      -0.37329
    9; O #1               -0.00047       0.00099       0.00227      -0.00141
   10; O #1               -0.01053      -0.02118      -0.36572       0.14325
   11; O #1               -0.00391      -0.00086      -0.00244      -0.01364
   12; O #1                0.15269      -0.76488       0.06774       0.14722
   13; O #1               -0.00435       0.01036       0.00345       0.00820
   14; O #1               -0.03743       0.08339       0.00772       0.07909
   15; H #2                0.01922       0.42988       0.10223       0.69454
   16; H #2                3.50958      -4.47269       1.00109      -2.02293
   17; H #2                0.57194      -0.27435       0.29106       0.33901
   18; H #2                0.04736      -0.21713      -0.06853      -0.18770
   19; H #2                2.03039      -1.26905       0.65593      -0.60606
   20; H #2                0.02715      -0.10064       0.03704      -0.18760
   21; H #2                1.56179      -1.21644      -0.31080      -0.06142
   22; H #2                0.00633      -0.01116      -0.01443      -0.00534
   23; H #2               -0.06754       0.06059       0.00337       0.11362
   24; H #2                0.17551      -0.21784       0.00508      -0.09518


                          MO # 13       MO # 14       MO # 15       MO # 16

    BASIS/ORB E            3.09936       3.46243       3.64941       3.88044
                        ----------    ----------    ----------    ----------
    1; O #1                0.09296       0.02350       0.06195       0.00491
    2; O #1                0.33014       0.09081       0.21871       0.02583
    3; O #1               -2.06667      -0.92966      -2.03843      -0.14038
    4; O #1                2.62073       2.77610       6.01779      -0.39760
    5; O #1               -2.97697       1.25391       1.69281      -0.12610
    6; O #1               -0.83707       0.29409       0.58383      -0.04043
    7; O #1                1.37397      -1.10464      -2.70625      -0.11100
    8; O #1                0.23962      -0.39851      -0.39387      -0.27206
    9; O #1               -0.00154       0.01048       0.00091      -0.00429
   10; O #1               -0.04019      -0.11341       0.04520       0.09847
   11; O #1                0.00427       0.00591      -0.03287       0.00389
   12; O #1                0.11951      -0.10520      -0.39010       0.12007
   13; O #1                0.00060      -0.00416       0.00034      -0.02240
   14; O #1                0.00140       0.04942      -0.00357      -0.02281
   15; H #2                0.00332       0.08756      -0.49298       0.04135
   16; H #2                0.84679      -1.73915      -2.59046       0.13894
   17; H #2                0.36577      -0.06398      -0.21772       0.05546
   18; H #2               -0.04199      -0.06125       0.17294       0.32659
   19; H #2                0.36548      -0.69168      -1.59595      -0.14559
   20; H #2                0.05781      -0.09568       0.00082      -0.58042
   21; H #2                0.08650      -0.58954      -1.12620       0.68341
   22; H #2               -0.00095       0.03211      -0.01446       0.15047
   23; H #2               -0.00508      -0.24047       0.21155       0.04365
   24; H #2               -0.01236      -0.50296      -0.38412       0.22766


                          MO # 17       MO # 18       MO # 19       MO # 20

    BASIS/ORB E            4.42870       5.00529       5.34085       6.58748
                        ----------    ----------    ----------    ----------
    1; O #1                0.02839       0.02337       0.04587       0.00454
    2; O #1                0.13922       0.09755       0.13640       0.02899
    3; O #1               -1.37039      -0.78580       0.27374      -0.55951
    4; O #1                1.78000       0.57679      -5.29977       1.34143
    5; O #1               -0.50006      -0.16408      -2.96077       0.07269
    6; O #1                0.29830       0.43080       0.27396       0.23347
    7; O #1               -0.27088      -1.20283       2.72297      -1.45857
    8; O #1                0.12795      -0.00157       0.93034      -0.03072
    9; O #1                0.01612      -0.02851       0.00970       0.09311
   10; O #1               -0.15720       0.31310      -0.08267       0.25227
   11; O #1                0.05717      -0.01952      -0.13197      -0.03402
   12; O #1               -0.45883       0.25559       0.54573       0.08820
   13; O #1               -0.00695       0.03577      -0.01836      -0.10680
   14; O #1               -0.10415      -0.15918      -0.04703       0.23655
   15; H #2               -0.26785      -0.15233       0.21469      -0.30704
   16; H #2               -0.34835      -0.05486       3.83559      -0.48222
   17; H #2                0.20818       0.08602       0.14762       0.07260
   18; H #2               -0.36163      -0.44737       0.74741      -0.60612
   19; H #2                0.32370      -0.06236       1.54207      -0.23648
   20; H #2               -0.47483       0.28924       0.52696       0.19504
   21; H #2               -0.08974       0.37669       1.10231       0.12848
   22; H #2               -0.14614       0.20542      -0.01443       0.13015
   23; H #2               -0.13495       0.02057      -0.29955       0.21396
   24; H #2                0.29035       0.34509       0.87781       0.22230


                          MO # 21       MO # 22       MO # 23       MO # 24

    BASIS/ORB E            7.09248       7.38519       8.11009      45.10485
                        ----------    ----------    ----------    ----------
    1; O #1                0.00268       0.02521       0.00434       1.39376
    2; O #1                0.01646       0.07428       0.05295      -1.70884
    3; O #1               -0.33310      -0.39921      -1.67262       1.56960
    4; O #1                0.84387      -0.53645       5.35504      -1.44653
    5; O #1                0.81876       0.77845       1.29579       0.54522
    6; O #1                0.14818       0.26783       0.16817      -0.07104
    7; O #1               -0.87886       0.01369      -2.26046       0.11493
    8; O #1               -0.47638      -0.25705      -0.40423      -0.02960
    9; O #1               -0.33573      -0.01578       0.02853       0.00113
   10; O #1                0.34104       0.01061      -0.11096      -0.00296
   11; O #1               -0.04770       0.59704      -0.07064      -0.01978
   12; O #1                0.00978      -0.37467      -0.73846       0.03116
   13; O #1               -0.03776       0.00346       0.10919      -0.00045
   14; O #1                0.12223       0.09600       0.61401      -0.00754
   15; H #2               -0.14890      -0.17434      -1.02975       0.06019
   16; H #2               -0.74844      -0.00429      -2.38801       0.06427
   17; H #2               -0.04430      -0.13125       0.02628      -0.08943
   18; H #2               -0.27370       0.16847      -0.72709      -0.00847
   19; H #2               -0.37154       0.10969      -0.73077       0.03018
   20; H #2                0.02681       0.10695      -0.91182      -0.01161
   21; H #2                0.15346       0.04630      -0.71974       0.02814
   22; H #2                0.03377       0.00181      -0.07686      -0.00158
   23; H #2                0.07761      -0.07101       0.01541       0.02044
   24; H #2                0.07638       0.35196      -0.40217      -0.07531


  SYMMETRY BLOCK 2 (ALPHA)

                          MO # 25       MO # 26       MO # 27       MO # 28

    BASIS/ORB E           -0.50796       0.59536       0.95253       2.02371
                        ----------    ----------    ----------    ----------
   25; O #1                0.46416       0.26828       0.07935       0.04748
   26; O #1                0.40633       0.72497       0.31191       0.12203
   27; O #1                0.29445      -1.33331       0.82073       0.58685
   28; O #1               -0.00523      -0.00868       0.02247       0.01414
   29; O #1               -0.01717       0.01791       0.00053      -1.16145
   30; O #1                0.00023       0.00002       0.00089       0.00216
   31; O #1               -0.00074      -0.00017      -0.00372      -0.00063
   32; H #2                0.01035      -0.00825       0.07165       0.03785
   33; H #2                0.03158       0.08508      -0.99114      -0.65258
   34; H #2                0.00482       0.00209      -0.03986       0.02308
   35; H #2                0.00333      -0.00017      -0.00325      -0.07169


                          MO # 29       MO # 30       MO # 31       MO # 32

    BASIS/ORB E            2.96103       3.35653       3.95732       4.42816
                        ----------    ----------    ----------    ----------
   25; O #1                1.20776       0.04624       0.15582       0.13753
   26; O #1               -1.61296      -0.07100       0.09615      -1.16308
   27; O #1                0.49897       0.17629       0.44842      -0.00247
   28; O #1                0.00111      -0.01800      -0.02538      -0.08733
   29; O #1                0.10350      -0.36357      -0.09537       0.84924
   30; O #1               -0.00045      -0.01438       0.01823       0.02178
   31; O #1                0.00109      -0.01706      -0.03142      -0.02749
   32; H #2               -0.11095       0.17775       0.80411       0.21595
   33; H #2                0.22953      -0.19665      -0.70506       0.41213
   34; H #2                0.01140      -0.39083      -0.18513       0.76815
   35; H #2                0.00933       0.52468      -0.32796       0.43342


                          MO # 33       MO # 34       MO # 35

    BASIS\ORB E            6.04553       6.89810       6.99192
                        ----------    ----------    ----------
   25; O #1                0.01903       0.10844       0.13385
   26; O #1               -0.11682      -0.71002      -0.84291
[...]
  W(mbej) AB contribution = -0.1160833231 a.u.
   After   8 iterations, amplitude changes are:
    -------------------------------------------------------------------
                 Spin      RMS          Max.      Max. change for
     Amplitude   Case     Change       Change       i    j    a    b
    -------------------------------------------------------------------
        T1        AA    0.0000000830 0.0000050503    2         5
        T2        AA    0.0000000005 0.0000004852    3    2   26    5
        T2        AB    0.0000000003 0.0000007844    3    3   26   26
    -------------------------------------------------------------------
   The AA contribution to the correlation energy is:   -0.0281946 a.u.
   The AB contribution to the correlation energy is:   -0.2105478 a.u.
   The total correlation energy is -0.266936948396 a.u.
   The total correlation energy is -0.266936948396 a.u.
  Current DIIS expansion coefficients : 
 [   1] 0.0442945775 [   2]-0.3709088977 [   3] 1.3183545317 [   4] 0.0010532096
 [   5] 0.0072065789
  Convergence information after     8 iterations: 
  Largest element of residual vector :  0.50502605E-05.
  Largest element of DIIS residual   :  0.16501017E-05.
  W(mnij) AB contribution =  0.0394525783 a.u.
  W(abef) AB contribution =  0.0499455726 a.u.
  W(mbej) AB contribution = -0.1160821454 a.u.
   After   9 iterations, amplitude changes are:
    -------------------------------------------------------------------
                 Spin      RMS          Max.      Max. change for
     Amplitude   Case     Change       Change       i    j    a    b
    -------------------------------------------------------------------
        T1        AA    0.0000000184 0.0000011581    2         5
        T2        AA    0.0000000002 0.0000001034    4    2   36    5
        T2        AB    0.0000000001-0.0000002813    4    4    7    5
    -------------------------------------------------------------------
   The AA contribution to the correlation energy is:   -0.0281947 a.u.
   The AB contribution to the correlation energy is:   -0.2105476 a.u.
   The total correlation energy is -0.266936999476 a.u.
   The total correlation energy is -0.266936999476 a.u.
  Current DIIS expansion coefficients : 
 [   1] 0.0329034766 [   2]-0.0880989218 [   3]-0.0261117961 [   4] 1.0840845317
 [   5]-0.0027772904
  Convergence information after     9 iterations: 
  Largest element of residual vector :  0.11580515E-05.
  Largest element of DIIS residual   :  0.45508474E-06.
  W(mnij) AB contribution =  0.0394526828 a.u.
  W(abef) AB contribution =  0.0499456561 a.u.
  W(mbej) AB contribution = -0.1160823810 a.u.
   After  10 iterations, amplitude changes are:
    -------------------------------------------------------------------
                 Spin      RMS          Max.      Max. change for
     Amplitude   Case     Change       Change       i    j    a    b
    -------------------------------------------------------------------
        T1        AA    0.0000000066 0.0000003747    2         5
        T2        AA    0.0000000000 0.0000000262    4    2   37    5
        T2        AB    0.0000000000-0.0000000713    4    4    7    5
    -------------------------------------------------------------------
   The AA contribution to the correlation energy is:   -0.0281947 a.u.
   The AB contribution to the correlation energy is:   -0.2105476 a.u.
   The total correlation energy is -0.266936991656 a.u.
   The total correlation energy is -0.266936991656 a.u.
  Current DIIS expansion coefficients : 
 [   1]-0.0018911272 [   2] 0.0113143595 [   3]-0.0714827558 [   4]-0.1225834790
 [   5] 1.1846430024
  Convergence information after    10 iterations: 
  Largest element of residual vector :  0.37465920E-06.
  Largest element of DIIS residual   : -0.12796528E-06.
   Largest T1 amplitudes for spin case AA:
   i       a                 i       a                 i       a    
-----------------------------------------------------------------------------
[  3      26    ]-0.01093 [  2       5    ] 0.00641 [  3      27    ]-0.00544
[  3      29    ] 0.00536 [  2       9    ]-0.00518 [  4      40    ] 0.00502
[  2       6    ]-0.00501 [  1       6    ]-0.00439 [  4      44    ] 0.00433
[  2      14    ] 0.00410 [  2      10    ]-0.00367 [  2      16    ]-0.00345
[  4      43    ] 0.00299 [  4      42    ] 0.00294 [  4      36    ]-0.00286
-----------------------------------------------------------------------------
   Norm of T1AA vector (       68 symmetry allowed elements):  0.0213517229.
-----------------------------------------------------------------------------
   Largest T2 amplitudes for spin case AB:
       _       _                 _       _                 _       _
   i   j   a   b             i   j   a   b             i   j   a   b
-----------------------------------------------------------------------------
[  3   3  26  26]-0.04313 [  4   4  38  38]-0.02843 [  4   4   7   7]-0.02468
[  2   2   6   6]-0.02449 [  4   3  38  26]-0.02266 [  3   4  26  38]-0.02266
[  3   2  26   6]-0.02221 [  2   3   6  26]-0.02221 [  4   4  38  36]-0.02137
[  4   4  36  38]-0.02137 [  4   4  37  37]-0.02073 [  3   3  29  29]-0.01885
[  2   2  37  37]-0.01857 [  4   4  36  36]-0.01844 [  4   3  36  26]-0.01811
-----------------------------------------------------------------------------
   Norm of T2AB vector (    12128 symmetry allowed elements):  0.2306355324.
-----------------------------------------------------------------------------
  W(mnij) AB contribution =  0.0394526671 a.u.
  W(abef) AB contribution =  0.0499456456 a.u.
  W(mbej) AB contribution = -0.1160823409 a.u.
   After  11 iterations, amplitude changes are:
    -------------------------------------------------------------------
                 Spin      RMS          Max.      Max. change for
     Amplitude   Case     Change       Change       i    j    a    b
    -------------------------------------------------------------------
        T1        AA    0.0000000011 0.0000000473    3        26
        T2        AA    0.0000000000 0.0000000089    4    3   38   26
        T2        AB    0.0000000000-0.0000000207    4    4    5    5
    -------------------------------------------------------------------
   The AA contribution to the correlation energy is:   -0.0281947 a.u.
   The AB contribution to the correlation energy is:   -0.2105476 a.u.
   The total correlation energy is -0.266936991193 a.u.
   The total correlation energy is -0.266936991193 a.u.
  Current DIIS expansion coefficients : 
 [   1] 1.0565394243 [   2] 0.0012708109 [   3] 0.0132061476 [   4]-0.0440054153
 [   5]-0.0270109675
  Convergence information after    11 iterations: 
  Largest element of residual vector :  0.47263062E-07.
  Largest element of DIIS residual   :  0.33749180E-07.
  W(mnij) AB contribution =  0.0394526741 a.u.
  W(abef) AB contribution =  0.0499456506 a.u.
  W(mbej) AB contribution = -0.1160823610 a.u.
   After  12 iterations, amplitude changes are:
    -------------------------------------------------------------------
                 Spin      RMS          Max.      Max. change for
     Amplitude   Case     Change       Change       i    j    a    b
    -------------------------------------------------------------------
        T1        AA    0.0000000005 0.0000000264    2         5
        T2        AA    0.0000000000-0.0000000029    3    2   26    5
        T2        AB    0.0000000000 0.0000000064    2    2    5    5
    -------------------------------------------------------------------
   The AA contribution to the correlation energy is:   -0.0281947 a.u.
   The AB contribution to the correlation energy is:   -0.2105476 a.u.
   The total correlation energy is -0.266936992246 a.u.
   The total correlation energy is -0.266936992246 a.u.
  Current DIIS expansion coefficients : 
 [   1] 0.0586157746 [   2] 1.0093016078 [   3] 0.0030424433 [   4]-0.0066693721
 [   5]-0.0642904535
  Convergence information after    12 iterations: 
  Largest element of residual vector :  0.26354158E-07.
  Largest element of DIIS residual   :  0.80862150E-08.
  W(mnij) AB contribution =  0.0394526751 a.u.
  W(abef) AB contribution =  0.0499456521 a.u.
  W(mbej) AB contribution = -0.1160823651 a.u.
   After  13 iterations, amplitude changes are:
    -------------------------------------------------------------------
                 Spin      RMS          Max.      Max. change for
     Amplitude   Case     Change       Change       i    j    a    b
    -------------------------------------------------------------------
        T1        AA    0.0000000001 0.0000000033    2         5
        T2        AA    0.0000000000-0.0000000005    3    2   26    8
        T2        AB    0.0000000000 0.0000000016    2    2    6    5
    -------------------------------------------------------------------
   The AA contribution to the correlation energy is:   -0.0281947 a.u.
   The AB contribution to the correlation energy is:   -0.2105476 a.u.
   The total correlation energy is -0.266936992242 a.u.
   The total correlation energy is -0.266936992242 a.u.
  Current DIIS expansion coefficients : 
 [   1]-0.0088557836 [   2]-0.2533615810 [   3] 1.2560709370 [   4] 0.0022821977
 [   5] 0.0038642299
  Convergence information after    13 iterations: 
  Largest element of residual vector :  0.32961177E-08.
  Largest element of DIIS residual   : -0.22152677E-08.
  W(mnij) AB contribution =  0.0394526753 a.u.
  W(abef) AB contribution =  0.0499456523 a.u.
  W(mbej) AB contribution = -0.1160823659 a.u.
   After  14 iterations, amplitude changes are:
    -------------------------------------------------------------------
                 Spin      RMS          Max.      Max. change for
     Amplitude   Case     Change       Change       i    j    a    b
    -------------------------------------------------------------------
        T1        AA    0.0000000001 0.0000000032    2         5
        T2        AA    0.0000000000 0.0000000001    3    2   52   38
        T2        AB    0.0000000000 0.0000000006    3    3    5    5
    -------------------------------------------------------------------
   The AA contribution to the correlation energy is:   -0.0281947 a.u.
   The AB contribution to the correlation energy is:   -0.2105476 a.u.
   The total correlation energy is -0.266936992228 a.u.
   The total correlation energy is -0.266936992228 a.u.
  Current DIIS expansion coefficients : 
 [   1] 0.0201992630 [   2]-0.0837163263 [   3]-0.1667439295 [   4] 1.2295744823
 [   5] 0.0006865104
  Convergence information after    14 iterations: 
  Largest element of residual vector :  0.31818213E-08.
  Largest element of DIIS residual   :  0.70106592E-09.
  W(mnij) AB contribution =  0.0394526753 a.u.
  W(abef) AB contribution =  0.0499456523 a.u.
  W(mbej) AB contribution = -0.1160823659 a.u.
   After  15 iterations, amplitude changes are:
    -------------------------------------------------------------------
                 Spin      RMS          Max.      Max. change for
     Amplitude   Case     Change       Change       i    j    a    b
    -------------------------------------------------------------------
        T1        AA    0.0000000000 0.0000000008    2         5
        T2        AA    0.0000000000-0.0000000000    4    2   36    7
        T2        AB    0.0000000000-0.0000000001    2    2    5    5
    -------------------------------------------------------------------
   The AA contribution to the correlation energy is:   -0.0281947 a.u.
   The AB contribution to the correlation energy is:   -0.2105476 a.u.
   The total correlation energy is -0.266936992224 a.u.
   The total correlation energy is -0.266936992224 a.u.
  Current DIIS expansion coefficients : 
 [   1] 0.0033901194 [   2]-0.0068851572 [   3] 0.0013902945 [   4]-0.1303087072
 [   5] 1.1324134505
  Convergence information after    15 iterations: 
  Largest element of residual vector :  0.78884502E-09.
  Largest element of DIIS residual   : -0.21942108E-09.
  Amplitude equations converged in    15iterations.
   The AA contribution to the correlation energy is:   -0.0281947 a.u.
   The AB contribution to the correlation energy is:   -0.2105476 a.u.
   The total correlation energy is -0.266936992220 a.u.
   The total correlation energy is -0.266936992220 a.u.
   The CC iterations have converged.

   Largest T1 amplitudes for spin case AA:
   i       a                 i       a                 i       a    
-----------------------------------------------------------------------------
[  3      26    ]-0.01093 [  2       5    ] 0.00641 [  3      27    ]-0.00544
[  3      29    ] 0.00536 [  2       9    ]-0.00518 [  4      40    ] 0.00502
[  2       6    ]-0.00501 [  1       6    ]-0.00439 [  4      44    ] 0.00433
[  2      14    ] 0.00410 [  2      10    ]-0.00367 [  2      16    ]-0.00345
[  4      43    ] 0.00299 [  4      42    ] 0.00294 [  4      36    ]-0.00286
-----------------------------------------------------------------------------
   Norm of T1AA vector (       68 symmetry allowed elements):  0.0213516860.
-----------------------------------------------------------------------------
   Largest T2 amplitudes for spin case AB:
       _       _                 _       _                 _       _
   i   j   a   b             i   j   a   b             i   j   a   b
-----------------------------------------------------------------------------
[  3   3  26  26]-0.04313 [  4   4  38  38]-0.02843 [  4   4   7   7]-0.02468
[  2   2   6   6]-0.02449 [  4   3  38  26]-0.02266 [  3   4  26  38]-0.02266
[  3   2  26   6]-0.02221 [  2   3   6  26]-0.02221 [  4   4  38  36]-0.02137
[  4   4  36  38]-0.02137 [  4   4  37  37]-0.02073 [  3   3  29  29]-0.01885
[  2   2  37  37]-0.01857 [  4   4  36  36]-0.01844 [  4   3  36  26]-0.01811
-----------------------------------------------------------------------------
   Norm of T2AB vector (    12128 symmetry allowed elements):  0.2306355588.
-----------------------------------------------------------------------------
       Summary of iterative solution of CC equations 
      -----------------------------------------------------------
                       Correlation           Total
       Iteration         Energy              Energy
      -----------------------------------------------------------
            0        -0.260958679854     -76.323448942758  DIIS 
            1        -0.261280803450     -76.323771066354  DIIS 
            2        -0.266101773800     -76.328592036704  DIIS 
            3        -0.266469174510     -76.328959437414  DIIS 
            4        -0.266908931877     -76.329399194781  DIIS 
            5        -0.266934667020     -76.329424929924  DIIS 
            6        -0.266936678184     -76.329426941089  DIIS 
            7        -0.266936870580     -76.329427133484  DIIS 
            8        -0.266936948396     -76.329427211300  DIIS 
            9        -0.266936999476     -76.329427262381  DIIS 
           10        -0.266936991656     -76.329427254560  DIIS 
           11        -0.266936991193     -76.329427254097  DIIS 
           12        -0.266936992246     -76.329427255150  DIIS 
           13        -0.266936992242     -76.329427255146  DIIS 
           14        -0.266936992228     -76.329427255133  DIIS 
           15        -0.266936992220     -76.329427255124  DIIS 
      -----------------------------------------------------------
      A miracle has come to pass. The CC iterations have converged.
 @DIMT3-I, Dimensions of T3 amplitudes : 
               # abc          # ijk       Symmetry    Spin 
                     6356              0     1          1
                     5982              1     2          1
                     6446              1     3          1
                     6020              2     4          1
                    20181              6     1          2
                    18476              6     2          2
                    20186              6     3          2
                    18431              6     4          2
                    20181              6     1          3
                    18476              6     2          3
                    20186              6     3          3
                    18431              6     4          3
                     6356              0     1          4
                     5982              1     2          4
                     6446              1     3          4
                     6020              2     4          4
 @DIMT3-I, Dimensions of T3 amplitudes : 
               # abc          # ijk       Symmetry    Spin 
                     6356              0     1          1
                     5982              1     2          1
                     6446              1     3          1
                     6020              2     4          1
                    20181              6     1          2
                    18476              6     2          2
                    20186              6     3          2
                    18431              6     4          2
                    20181              6     1          3
                    18476              6     2          3
                    20186              6     3          3
                    18431              6     4          3
                     6356              0     1          4
                     5982              1     2          4
                     6446              1     3          4
                     6020              2     4          4
 @TRPS-I, Welcome to TRPS. Watch your RUs ! 
 @TRPS-I, Method is CCSD(T) 
 @TRPS-I, Calculation type is energy 
 @TRPS-I, Reference function information : 
          Reference function is Hartree-Fock 
          Reference function is RHF Hartree-Fock 
 @TRPS-I, INT1 is true 
 @TRPS-I, INT2 is false 
 @TRPS-I, Lengths of ijka integrals. #1        324
                                     #2        324
                                     #3        920
                                     #4        920
                                    Max        920
 @INITRP-I, Initializing W intermediate lists. 
 @SETOOOV-I, Some OOOV lists are being transposed. 
 @TRPS-I, Available memory in integer words   1499959040
          Number of pre-allocated words for TRPS2        16717
          Number of free words for TRPS2   1499942323
 @TRPS2-I, Spin case AAB 
 @TRPS2-I, Number of free integer words 1499942323
           Number of free double  words 1499942323
           Ratio                                 1
 @TRPS2-I, E4TBAA      -0.003751534875
  @TRPS2-I, E4TAAA  -1.718911212252122E-004
 @TRPS2-I, E5ST A    0.000076195688696
 @TRPS2-I, E5ST B    0.000041949912641
 @SETOOOV-I, Some OOOV lists are being transposed. 
 @CCENRG-I, CCSD/QCISD energy will now be evaluated. 
 @CCENRG-I, Correlation energies. ECCAA       -0.028194692582
                                  ECCBB        0.000000000000
                                  ECCAB       -0.210547607056
                                  Total       -0.266936992220
 @CCENRG-I, Reference   energy     -76.062490262904
            CCSD/QCISD energy      -76.329427255124
          E4T (T(CCSD)) = -0.007846851993
          E5ST          =  0.000236291203
          E4ST          =  0.000000000000
          In other words  
          <T3[2](Dagger) D3  T3[2]> = -0.007846851993
          <T1   (Dagger) Q1 WT3[2]> =  0.000236291203
          <T2   (Dagger) Q2 FT3[2]> =  0.000000000000
        E(CCSD)           =     -76.329427255124
        E(CCSD + T(CCSD)) =     -76.337274107117
        E(CCSD(T))        =     -76.337037815914
  @CHECKOUT-I, Total execution time (CPU/WALL):        0.70/       0.89 seconds.
--executable xvcc finished with status     0 in        1.04 seconds (walltime).
  The final electronic energy is       -76.337037815914414 a.u. 
  This computation required                            6.90 seconds (walltime).
