 --invoking executable--
/home/nike/cfour_v2.00beta/cfour_v2.00beta/bin/xjoda


   *************************************************************************
         <<<     CCCCCC     CCCCCC   |||     CCCCCC     CCCCCC   >>>
       <<<      CCC        CCC       |||    CCC        CCC         >>>
      <<<      CCC        CCC        |||   CCC        CCC            >>>
    <<<        CCC        CCC        |||   CCC        CCC              >>>
      <<<      CCC        CCC        |||   CCC        CCC            >>>
       <<<      CCC        CCC       |||    CCC        CCC         >>>
         <<<     CCCCCC     CCCCCC   |||     CCCCCC     CCCCCC   >>>
   *************************************************************************

     ****************************************************************
     * CFOUR Coupled-Cluster techniques for Computational Chemistry *
     ****************************************************************
 

   Department of Chemistry                Institut fuer Physikalische Chemie
   University of Texas at Austin          Universitaet Mainz
   Austin, TX  78712, USA                 D-55099 Mainz, Germany
 
                       Version 2.00beta
 
                     blg8334.int.ets1.calculquebec.ca                  
                     Mi 4. Mär 21:45:38 EST 2020                      
                     integer*8 version is running
 
********************************************************************************
*                          Input from ZMAT file                                *
********************************************************************************
TITLE                                                                           
H                                                                               
N 1 R1                                                                          
N 2 R2 1 A1                                                                     
N 3 R3 2 A2 1 D                                                                 
                                                                                
R1=1.9180720165                                                                 
R2=2.35270902516                                                                
R3=2.14294942533                                                                
A1=109.2                                                                        
A2=171.8                                                                        
D=180                                                                           
                                                                                
*ACES2(CALC=CCSD(T)                                                             
UNITS=BOHR                                                                      
#GEOM=1.015*10/5.29177210903_1.245*10/5.29177210903_1.134*10/5.29177210903      
#COORD=CARTESIAN                                                                
COORD=INTERNAL                                                                  
PRINT=4                                                                         
JODA_PRINT=4                                                                    
INPUT_MRCC=OFF                                                                  
#CC_PROG=MRCC                                                                   
#FROZEN_CORE=ON                                                                 
DROPMO=1>3                                                                      
CONTRACTION=GENERAL                                                             
#CONTRACTION=SEGMENTED                                                          
RELATIVISTIC=OFF                                                                
#EXCITE=EOMEE                                                                   
#ESTATE_CONV=5                                                                  
#ESTATE_SYM=2/2/2/2/2/2/2/2                                                     
XFORM_TOL=18                                                                    
SAVE_INTS=ON                                                                    
SCF_EXPORDER=6                                                                  
SCF_EXPSTART=5                                                                  
#SCF_DAMPING=1000                                                               
SCF_EXTRAPOLATION=ON                                                            
SCF_CONV=11                                                                     
SCF_MAXCYC=99999                                                                
CC_CONV=9                                                                       
CC_MAXCYC=999                                                                   
T3_EXTRAPOL=ON                                                                  
REFERENCE=RHF                                                                   
CHARGE=+0                                                                       
MULT=1                                                                          
ABCDTYPE=STANDARD                                                               
#OCCUPATION=3-2-2-0-1-0-0-0/3-1-1-0-1-0-0-0                                     
MEM=12                                                                          
MEM_UNIT=GB                                                                     
BASIS=SPECIAL)                                                                  
                                                                                
H:def2-TZVPP                                                                    
N:def2-TZVPP                                                                    
N:def2-TZVPP                                                                    
N:def2-TZVPP                                                                    
                                                                                
********************************************************************************
  @GTFLGS-W, Keyword #GEOM not known and is ignored.
  @GTFLGS-W, Keyword #COORD not known and is ignored.
  @GTFLGS-W, Keyword #CC_PROG not known and is ignored.
  @GTFLGS-W, Keyword #FROZEN_CORE not known and is ignored.
  @GTFLGS-W, Keyword #CONTRACTION not known and is ignored.
  @GTFLGS-W, Keyword #EXCITE not known and is ignored.
  @GTFLGS-W, Keyword #ESTATE_CONV not known and is ignored.
  @GTFLGS-W, Keyword #ESTATE_SYM not known and is ignored.
  @GTFLGS-W, Keyword #SCF_DAMPING not known and is ignored.
  @GTFLGS-W, Keyword #OCCUPATION not known and is ignored.
    -------------------------------------------------------------------
                    CFOUR Control Parameters 
    -------------------------------------------------------------------
        External           Internal           Value            Units
          Name               Name
    -------------------------------------------------------------------
       ABCDTYPE             IABCDT         STANDARD     [  0]   ***   
       ANHARMONIC           IANHAR         OFF          [  0]   ***   
       ANH_ALGORIT          IANALG         STANDARD     [  0]   ***   
       ANH_DERIVAT          IANDER         SECOND       [  1]   ***   
       ANH_STEPSIZ          ICUBST             50000          x 10-6  
       ANH_SYMMETR          IANHSM         ABELIAN      [  0]   ***   
       AO_LADDERS           IAOLAD         SINGLEPASS   [  1]   ***   
       BASIS                IBASIS         SPECIAL      [  0]   ***   
       BREIT                IBREIT         OFF          [  0]   ***   
       BRUCK_CONV           IBRTOL          10D-  4             ***   
       BRUECKNER            IBRKNR             OFF      [  0]   ***   
       BUFFERSIZE           IBUFFS            600               ***   
       CACHE_RECS           ICHREC             10               ***   
       CALCLEVEL            ICLLVL           CCSD(T)    [ 22]   ***   
       CCORBOPT             ICCORB             OFF      [  0] x 0.01  
       CC_CONV              ICCCNV          10D-  9             ***   
       CC_EXPORDER          ICCEOR              5               ***   
       CC_EXTRAPOL          ICCEXT             DIIS     [  1]   ***   
       CC_MAXCYC            ICCCYC            999              cycles 
       CC_PROGRAM           ICCPRO         VCC          [  0]   ***   
       CHARGE               ICHRGE              0               ***   
       CHOLESKY             ICHOLE         OFF          [  0]   ***   
       CIS_CONV             ICISTL              5               ***   
       COMM_SIZE            IPSIZE            ***               ***   
       CONSTANT             ICONST         OLD          [  1]   ***   
       CONTINUUM            ICONTU         NONE         [  0]   ***   
       CONTRACTION          ICNTYP          GENERAL     [  1]   ***   
       COORDINATES          ICOORD         INTERNAL     [  0]   ***   
       CPHF_CONVER          ICPHFT          10D- 16             ***   
       CPHF_MAXCYC          ICPHFC             64              cycles 
       CUBIC                ICUBIC         OFF          [  0]   ***   
       CURVILINEAR          ICURVY            OFF       [  0]   ***   
       DBOC                 IDBOC          OFF          [  0]   ***   
       DCT                  IDCT           OFF          [  0]   ***   
       DERIV_LEV            IDRLVL            ZERO      [  0]   ***   
       DIAG_MRCC            IEOMST          10D-  0             ***   
       DIFF_TYPE            IDIFTY         RELAXED      [  0]   ***   
       DIRECT               IDIRCT         OFF          [  0]   ***   
       DROPMO               IDRPMO   1,  2,  3,
       ECP                  IECP           OFF          [  0]   ***   
       EIGENVECTOR          IVEC                1               ***   
       EL_ANHARM            IELANH         OFF          [  0]   ***   
       EOMFOLLOW            IEOMSR         ENERGY       [  0]   ***   
       EOM_MRCC             IMRCCE         NEW          [  1]   ***   
       EOM_NONIT            EOMNON         OFF          [  0]   ***   
       EOM_NSING            IEOMSI          10D-  0             ***   
       EOM_NSTATES          IMRCCD         DAVIDSON     [  0]   ***   
       EOM_NTRIP            IEOMTR          10D-  0             ***   
       EOM_ORDER            IEXORD         ENERGY       [  0]   ***   
       ESTATE_CONV          IEXTOL          10D-  5             ***   
       ESTATE_DIAG          IEXDIG         ITERATIVE    [  0]   ***   
       ESTATE_LOCK          IESLOC         ON           [  1]   ***   
       ESTATE_MAXC          IEXMXC             20               ***   
       ESTATE_PROP          IEXPRP         OFF          [  0]   ***   
       EVAL_HESS            IRECAL              0            # of cyc.
       EXCITATION           IEXCIT              0               ***   
       EXCITE               IEXCIT         NONE         [  0]   ***   
       FCGRADNEW            IFCGNW         OFF          [  0]   ***   
       FC_FIELD             IFINFC              0             x 10-6  
       FD_CALTYPE           IFDCAL         GRADONLY     [  0]   ***   
       FD_PROJECT           IFDPRJ         OFF          [  1]   ***   
       FD_STEPSIZE          IDISFD              0            10-4 bohr
       FD_USEGROUP          IFDGRP         FULL         [  0]   ***   
       FILE_RECSIZ          IFLREC              4096           words  
       FINITE_PERT          IFIPER              0             x 10-6  
       FIXGEOM              IFIXGM         OFF          [  0]   ***   
       FOCK                 IFOCK          AO           [  1]   ***   
       FREQ_ALGORI          IVIALG         STANDARD     [  0]   ***   
       FROZEN_CORE          IFROCO         OFF          [  0]   ***   
       FROZEN_VIRT          IFROVI         OFF          [  0]   ***   
       GAMMA_ABCD           IGABCD         STORE        [  0]   ***   
       GAMMA_ABCI           IGABCI         STORE        [  0]   ***   
       GENBAS_1             IGNBS1              0               ***   
       GENBAS_2             IGNBS2              0               ***   
       GENBAS_3             IGNBS3              0               ***   
       GENBAS_4             IGNBS4              0               ***   
       GEO_CONV             ICONTL              5              H/bohr 
       GEO_MAXCYC           IOPTCY             50               ***   
       GEO_MAXSTEP          IMXSTP            300            millibohr
       GEO_METHOD           INR            SINGLE_POINT [  5]   ***   
       GIAO                 IGIAO          OFF          [  1]   ***   
       GIMIC                IGIMIC         OFF          [  0]   ***   
       GRID                 IGRID          OFF          [  0]   ***   
       GRID_ALGO            IGALGO         SERIAL       [  0]   ***   
       GUESS                IGUESS            MOREAD    [  0]   ***   
       HBAR                 IHBAR              OFF      [  0]   ***   
       HESS_TYPE            IHESTP         SCF          [  0]   ***   
       HF2_FILE             IHF2Fl         USE          [  1]   ***   
       HFSTABILITY          ISTABL         OFF          [  0]   ***   
       INCORE               INCORE             OFF      [  0]   ***   
       INPUT_MRCC           IMRCC          OFF          [  0]   ***   
       INTEGRALS            INTTYP             VMOL     [  1]   ***   
       JODA_PRINT           IJPRNT              4               ***   
       LINDEP_TOL           ILINDP              8               ***   
       LINEQ_CONV           IZTACN          10D-  7           cycles  
       LINEQ_EXPOR          ILMAXD              5               ***   
       LINEQ_MAXCY          ILMAXC             50               ***   
       LINEQ_TYPE           ILTYPE         DIIS         [  1]   ***   
       LOCK_ORBOCC          ILOCOC             OFF      [  0]   ***   
       MEMORY_SIZE          IMEMSZ         *********           words  
       MEM_UNIT             IMEMU          GB           [  3]   ***   
       MRCC                 IMRCCC         OFF          [  0]   ***   
       MULTIPLICTY          IMULTP              1               ***   
       NEGEVAL              IDIE             ABORT      [  0]   ***   
       NEWNORM              INEWNO         OFF          [  0]   ***   
       NON-HF               INONHF             OFF      [  0]   ***   
       NTOP_TAMP            ITOPT2             15               ***   
       NUC_MODEL            INUCMO         POINT        [  0]   ***   
       OCCUPATION           IOCCU   ESTIMATED BY SCF 
       OPEN-SHELL           IOPEN          SPIN-ORBITAL [  0]   ***   
       ORBITALS             IORBTP           STANDARD   [  0]   ***   
       PARALLEL             IPARAL         ON           [  1]   ***   
       PARA_INT             IPINTS         ON           [  1]   ***   
       PARA_PRINT           IPPRIN              0               ***   
       PERT_ORB             IPTORB         STANDARD     [  0]   ***   
       POINTS               IGRDFD              0               ***   
       PRINT                IPRNT               4               ***   
       PROPS                IPROPS             OFF      [  0]   ***   
       PROP_INTEGR          IINTYP         INTERNAL     [  0]   ***   
       PSI                  IPSI           OFF          [  0]   ***   
       QUARTIC              IQUART         OFF          [  0]   ***   
       RAMAN_INT            IRAMIN         OFF          [  0]   ***   
       RAMAN_ORB            IRAMRE         UNRELAXED    [  0]   ***   
       RDO                  IRDOFM             OFF      [  0]   ***   
       REFERENCE            IREFNC             RHF      [  0]   ***   
       RELATIVIST           IRELAT         OFF          [  0]   ***   
       RELAX_DENS           IRDENS             OFF      [  0]   ***   
       RESET_FLAGS          IRESET             OFF      [  0]   ***   
       RESTART_CC           ICCRES         OFF          [  0]   ***   
       ROT_EVEC             ROTVEC              0               ***   
       SAVE_INTS            ISVINT              ON      [  1]   ***   
       SCALE_ON             ISTCRT              0               ***   
       SCF_CONV             ISCFCV          10D- 11             ***   
       SCF_DAMPING          IDAMP               0             x 10-3  
       SCF_EXPORDE          IRPPOR              6               ***   
       SCF_EXPSTAR          IRPPLS              5               ***   
       SCF_EXTRAPO          IRPP                ON      [  1]   ***   
       SCF_MAXCYC           ISCFCY            ***              cycles 
       SCF_NOSTOP           ISCFST         OFF          [  0]   ***   
       SCF_PRINT            ISCFPR              0               ***   
       SD_FIELD             IFINSD              0             x 10-6  
       SEQUENCE             ISEQUE         OFF          [  0]   ***   
       SOPERT               IPERSO         OFF          [  0]   ***   
       SPHERICAL            IDFGHI             ON       [  1]   ***   
       SPINORBIT            ISOCAL         OFF          [  0]   ***   
       SPINROTATIO          ISRCON         OFF          [  0]   ***   
       SPIN_FLIP            ISPFLP         OFF          [  0]   ***   
       SPIN_ORBIT           ISPORB         OFF          [  0]   ***   
       SPIN_SCAL            ISCSMP         OFF          [  0]   ***   
       SUBGROUP             ISUBGP         DEFAULT      [  0]   ***   
       SUBGRPAXIS           ISBXYZ         X            [  0]   ***   
       SYMMETRY             ISYM             ON         [  0]   ***   
       SYM_CHECK            ISYMCK         OVERRIDE     [  1]   ***   
       T3_EXTRAPOL          IT3EXT         ON           [  1]   ***   
       TAMP_SUM             IEVERY              5               ***   
       TESTSUITE            ITESTS         OFF          [  0]   ***   
       THERMOCH             ITHERM         OFF          [  0]   ***   
       TOL_CHOLESK          ITOLCH          10D-  4             ***   
       TRANGRAD             IRESRM         OFF          [  0]   ***   
       TRANS_INV            ITRAIN         USE          [  0]   ***   
       TREAT_PERT           ITREAT         SIMULTANEOUS [  0]   ***   
       UIJ_THRESHO          IUIJTH              1               ***   
       UNITS                IUNITS         BOHR         [  1]   ***   
       UNOS                 IUNOS          OFF          [  0]   ***   
       UPDATE_HESS          IHUPDT         ON           [  1]   ***   
       VIBPHASE             ISETPH         STANDARD     [  0]   ***   
       VIBRATION            IVIB              NO        [  0]   ***   
       VIB_ALGORIT          IGEALG         STANDARD     [  0]   ***   
       VNATORB              IVNORB         OFF          [  0]   ***   
       VTRAN                IVTRAN         FULL/PARTIAL [  0]   ***   
       XFIELD               IXEFLD              0             x 10-6  
       XFORM_TOL            IXFTOL          10D- 18             ***   
       YFIELD               IYEFLD              0             x 10-6  
       ZFIELD               IZEFLD              0             x 10-6  
    -------------------------------------------------------------------
   4 entries found in Z-matrix 
   Job Title : TITLE                                                                           
 Variable names read by FETCHZ
  1           
  2           
  3           
  4 R1        
  5           
  6           
  7 R2        
  8 A1        
  9           
 10 R3        
 11 A2        
 12 D         
 Atomic symbols read by FETCHZ
  1 H    
  2 N    
  3 N    
  4 N    
 Connectivity matrix read by FETCHZ
  1   0
  2   0
  3   0
  4   1
  5   0
  6   0
  7   2
  8   1
  9   0
 10   3
 11   2
 12   1
   There are  6 unique internal coordinates.
   Of these,  0 will be optimized.
   User supplied Z-matrix: 
--------------------------------------------------------------------------------
       SYMBOL    BOND      LENGTH    ANGLE     ANGLE     DIHED     ANGLE
                  TO      (ANGST)    WRT      (DEG)      WRT      (DEG)
--------------------------------------------------------------------------------
        H    
        N          1         R1   
        N          2         R2         1        A1   
        N          3         R3         2        A2         1        D    
                  *Initial values for internal coordinates* 
                      Name             Value
                        R1              1.9180720165
                        R2              2.3527090252
                        A1            109.2000000000
                        R3              2.1429494253
                        A2            171.8000000000
                        D             180.0000000000
--------------------------------------------------------------------------------
  1  H          1     1.00783
  2  N          7    14.00307
  3  N          7    14.00307
  4  N          7    14.00307
    1.0078250350
   14.0030740020
   14.0030740020
   14.0030740020
 After translation to center of mass coordinates 
       -2.065848812701   -0.000000000000   -2.697894635792
       -2.065848812701   -0.000000000000   -0.779822619292
        0.155993996705   -0.000000000000   -0.006095091437
        2.058537466082    0.000000000000    0.980089772903
  Inertia tensor (amu*bohr**2)
   29.30272   -0.00000  -56.41455
   -0.00000  153.04506   -0.00000
  -56.41455   -0.00000  123.74233
    Inertia tensor:
       29.302723371121   -0.000000000000  -56.414554980825
       -0.000000000000  153.045057176293   -0.000000000000
      -56.414554980825   -0.000000000000  123.742333805172
    Principal axis orientation for molecular system: 
       -3.013436580651    1.570212328689   -0.000000000000
       -2.201759885756   -0.167654525660   -0.000000000000
        0.138758894551    0.071534930842   -0.000000000000
        2.279883143433   -0.016891255150    0.000000000000
    Diagonalized inertia tensor:
        2.954111326264    0.000000000000    0.000000000000
        0.000000000000  150.090945850028    0.000000000000
        0.000000000000    0.000000000000  153.045057176293
    Eigenvectors of inertia tensor: 
        0.906048802860    0.423173211388    0.000000000000
        0.000000000000    0.000000000000    1.000000000000
        0.423173211388   -0.906048802860    0.000000000000
 factor:   60.1997200000000     
   Rotational constants (in cm-1): 
          0.3933463851             0.4010882846            20.3782841441
   Rotational constants (in MHz): 
      11792.2296159563         12024.3259551000        610925.6749278052
  @SYMMETRY-I, Handedness of inertial frame: 1.00000
  @SYMMETRY-I, The symmetry group is 1-fold degenerate.
  @SYMMETRY-I, The molecule belongs to an Abelian group.
   Principal axis orientation for molecule:
       -3.013436580651    1.570212328689   -0.000000000000
       -2.201759885756   -0.167654525660   -0.000000000000
        0.138758894551    0.071534930842   -0.000000000000
        2.279883143433   -0.016891255150    0.000000000000
   Reflection in plane  3 is a valid symmetry operation.
  Symmetry bits:    4   0   0
********************************************************************************
   The full molecular point group is C s .
   The largest Abelian subgroup of the full molecular point group is C s .
   The computational point group is C s .
********************************************************************************
--------------------------------------------------------------------------------
   Analysis of internal coordinates specified by Z-matrix 
--------------------------------------------------------------------------------
   *The nuclear repulsion energy is   61.541796379549908 a.u.
   *There are   5 degrees of freedom within the tot. symm. molecular subspace.
   *Z-matrix requests optimization of   0 coordinates.
   *The optimization is constrained.
   *The following   5 parameters can have non-zero 
    derivatives within the totally symmetric subspace:
             A2   [ 5]  A1   [ 3]  R1   [ 1]  R2   [ 2]  R3   [ 4]
   *The following   0 parameters are to be optimized:

   *The following coordinates must be varied in an  unconstrained optimization.
             A2   [ 5]  A1   [ 3]  R1   [ 1]  R2   [ 2]  R3   [ 4]
--------------------------------------------------------------------------------
 ----------------------------------------------------------------
 Z-matrix   Atomic            Coordinates (in bohr)
  Symbol    Number           X              Y              Z
 ----------------------------------------------------------------
     H         1        -3.01343658     1.57021233    -0.00000000
     N         7        -2.20175989    -0.16765453    -0.00000000
     N         7         0.13875889     0.07153493    -0.00000000
     N         7         2.27988314    -0.01689126     0.00000000
 ----------------------------------------------------------------
   Interatomic distance matrix (Angstroms) 
 
                 H             N             N             N    
                [ 1]        [ 2]        [ 3]        [ 4]
  H    [ 1]     0.00000
  N    [ 2]     1.01500     0.00000
  N    [ 3]     1.84700     1.24500     0.00000
  N    [ 4]     2.92430     2.37292     1.13400     0.00000
  Inertia tensor (amu*bohr**2)
    2.95411    0.00000   -0.00000
    0.00000  150.09095    0.00000
   -0.00000    0.00000  153.04506
   Rotational constants (in cm-1): 
         20.3782841441             0.4010882846             0.3933463851
   Rotational constants (in MHz): 
     610925.6749278097         12024.3259551000         11792.2296159563
  @GTFLGS-W, Keyword #GEOM not known and is ignored.
  @GTFLGS-W, Keyword #COORD not known and is ignored.
  @GTFLGS-W, Keyword #CC_PROG not known and is ignored.
  @GTFLGS-W, Keyword #FROZEN_CORE not known and is ignored.
  @GTFLGS-W, Keyword #CONTRACTION not known and is ignored.
  @GTFLGS-W, Keyword #EXCITE not known and is ignored.
  @GTFLGS-W, Keyword #ESTATE_CONV not known and is ignored.
  @GTFLGS-W, Keyword #ESTATE_SYM not known and is ignored.
  @GTFLGS-W, Keyword #SCF_DAMPING not known and is ignored.
  @GTFLGS-W, Keyword #OCCUPATION not known and is ignored.
  There are  107 basis functions.
 @GEOPT-W, Archive file not created for single-point calculation.
  @CHECKOUT-I, Total execution time (CPU/WALL):        0.66/       1.58 seconds.
--executable xjoda finished with status     0 in        4.33 seconds (walltime).
 --invoking executable--
/home/nike/cfour_v2.00beta/cfour_v2.00beta/bin/xvmol
 Serial version of molecule started
********************************************************************************
                    Input from MOL file
********************************************************************************
INTGRL        1    0    1    0    0    0    0    0    0                         
         *** CFOUR Program System (Release V0.1) ***                            
TITLE                                                                           
    4    1 Z          0.10E-08              0    0                              
   9999.00      3.00                                                            
          1.00000000    1    3    1    1    1                                   
H #1  -3.013436580651497   1.570212328688937  -0.000000000000000                
    5    3                                                                      
   34.0613410000000       6.025197800000000E-003  0.000000000000000E+000        
  0.000000000000000E+000                                                        
   5.12357460000000       4.502109400000000E-002  0.000000000000000E+000        
  0.000000000000000E+000                                                        
   1.16466260000000       0.201897260000000       0.000000000000000E+000        
  0.000000000000000E+000                                                        
  0.327230410000000       0.000000000000000E+000   1.00000000000000             
  0.000000000000000E+000                                                        
  0.103072410000000       0.000000000000000E+000  0.000000000000000E+000        
   1.00000000000000                                                             
    2    2                                                                      
   1.40700000000000        1.00000000000000       0.000000000000000E+000        
  0.388000000000000       0.000000000000000E+000   1.00000000000000             
    1    1                                                                      
   1.05700000000000        1.00000000000000                                     
          7.00000000    1    4    1    1    1    1                              
N #2  -2.201759885755818  -0.167654525659693  -0.000000000000000                
   11    5                                                                      
   19730.8006470000       2.188798499100000E-004  0.000000000000000E+000        
  0.000000000000000E+000  0.000000000000000E+000  0.000000000000000E+000        
   2957.89587450000       1.696070880300000E-003  0.000000000000000E+000        
  0.000000000000000E+000  0.000000000000000E+000  0.000000000000000E+000        
   673.221335950000       8.795460353799999E-003  0.000000000000000E+000        
  0.000000000000000E+000  0.000000000000000E+000  0.000000000000000E+000        
   190.682494940000       3.535938260500000E-002  0.000000000000000E+000        
  0.000000000000000E+000  0.000000000000000E+000  0.000000000000000E+000        
   62.2954418980000       0.110957892170000       0.000000000000000E+000        
  0.000000000000000E+000  0.000000000000000E+000  0.000000000000000E+000        
   22.6541611820000       0.249829725520000       0.000000000000000E+000        
  0.000000000000000E+000  0.000000000000000E+000  0.000000000000000E+000        
   8.97914774280000       0.000000000000000E+000  0.406238961480000             
  0.000000000000000E+000  0.000000000000000E+000  0.000000000000000E+000        
   3.68630023700000       0.000000000000000E+000  0.243382171760000             
  0.000000000000000E+000  0.000000000000000E+000  0.000000000000000E+000        
  0.846600768050000       0.000000000000000E+000  0.000000000000000E+000        
   1.00000000000000       0.000000000000000E+000  0.000000000000000E+000        
  0.336471337710000       0.000000000000000E+000  0.000000000000000E+000        
  0.000000000000000E+000   1.00000000000000       0.000000000000000E+000        
  0.136476536750000       0.000000000000000E+000  0.000000000000000E+000        
  0.000000000000000E+000  0.000000000000000E+000   1.00000000000000             
    6    3                                                                      
   49.2003805100000       5.555241675100000E-003  0.000000000000000E+000        
  0.000000000000000E+000                                                        
   11.3467905370000       3.805237972300000E-002  0.000000000000000E+000        
  0.000000000000000E+000                                                        
   3.42739724110000       0.149536710290000       0.000000000000000E+000        
  0.000000000000000E+000                                                        
   1.17855251340000       0.349493052300000       0.000000000000000E+000        
  0.000000000000000E+000                                                        
  0.416422049720000       0.000000000000000E+000  0.458431536970000             
  0.000000000000000E+000                                                        
  0.142608260110000       0.000000000000000E+000  0.000000000000000E+000        
  0.244287716720000                                                             
    2    2                                                                      
   1.65400000000000        1.00000000000000       0.000000000000000E+000        
  0.469000000000000       0.000000000000000E+000   1.00000000000000             
    1    1                                                                      
   1.09300000000000        1.00000000000000                                     
          7.00000000    1    4    1    1    1    1                              
N #3   0.138758894550733   0.071534930842157  -0.000000000000000                
   11    5                                                                      
   19730.8006470000       2.188798499100000E-004  0.000000000000000E+000        
  0.000000000000000E+000  0.000000000000000E+000  0.000000000000000E+000        
   2957.89587450000       1.696070880300000E-003  0.000000000000000E+000        
  0.000000000000000E+000  0.000000000000000E+000  0.000000000000000E+000        
   673.221335950000       8.795460353799999E-003  0.000000000000000E+000        
  0.000000000000000E+000  0.000000000000000E+000  0.000000000000000E+000        
   190.682494940000       3.535938260500000E-002  0.000000000000000E+000        
  0.000000000000000E+000  0.000000000000000E+000  0.000000000000000E+000        
   62.2954418980000       0.110957892170000       0.000000000000000E+000        
  0.000000000000000E+000  0.000000000000000E+000  0.000000000000000E+000        
   22.6541611820000       0.249829725520000       0.000000000000000E+000        
  0.000000000000000E+000  0.000000000000000E+000  0.000000000000000E+000        
   8.97914774280000       0.000000000000000E+000  0.406238961480000             
  0.000000000000000E+000  0.000000000000000E+000  0.000000000000000E+000        
   3.68630023700000       0.000000000000000E+000  0.243382171760000             
  0.000000000000000E+000  0.000000000000000E+000  0.000000000000000E+000        
  0.846600768050000       0.000000000000000E+000  0.000000000000000E+000        
   1.00000000000000       0.000000000000000E+000  0.000000000000000E+000        
  0.336471337710000       0.000000000000000E+000  0.000000000000000E+000        
  0.000000000000000E+000   1.00000000000000       0.000000000000000E+000        
  0.136476536750000       0.000000000000000E+000  0.000000000000000E+000        
  0.000000000000000E+000  0.000000000000000E+000   1.00000000000000             
    6    3                                                                      
   49.2003805100000       5.555241675100000E-003  0.000000000000000E+000        
  0.000000000000000E+000                                                        
   11.3467905370000       3.805237972300000E-002  0.000000000000000E+000        
  0.000000000000000E+000                                                        
   3.42739724110000       0.149536710290000       0.000000000000000E+000        
  0.000000000000000E+000                                                        
   1.17855251340000       0.349493052300000       0.000000000000000E+000        
  0.000000000000000E+000                                                        
  0.416422049720000       0.000000000000000E+000  0.458431536970000             
  0.000000000000000E+000                                                        
  0.142608260110000       0.000000000000000E+000  0.000000000000000E+000        
  0.244287716720000                                                             
    2    2                                                                      
   1.65400000000000        1.00000000000000       0.000000000000000E+000        
  0.469000000000000       0.000000000000000E+000   1.00000000000000             
    1    1                                                                      
   1.09300000000000        1.00000000000000                                     
          7.00000000    1    4    1    1    1    1                              
N #4   2.279883143433346  -0.016891255149574   0.000000000000000                
   11    5                                                                      
   19730.8006470000       2.188798499100000E-004  0.000000000000000E+000        
  0.000000000000000E+000  0.000000000000000E+000  0.000000000000000E+000        
   2957.89587450000       1.696070880300000E-003  0.000000000000000E+000        
  0.000000000000000E+000  0.000000000000000E+000  0.000000000000000E+000        
   673.221335950000       8.795460353799999E-003  0.000000000000000E+000        
  0.000000000000000E+000  0.000000000000000E+000  0.000000000000000E+000        
   190.682494940000       3.535938260500000E-002  0.000000000000000E+000        
  0.000000000000000E+000  0.000000000000000E+000  0.000000000000000E+000        
   62.2954418980000       0.110957892170000       0.000000000000000E+000        
  0.000000000000000E+000  0.000000000000000E+000  0.000000000000000E+000        
   22.6541611820000       0.249829725520000       0.000000000000000E+000        
  0.000000000000000E+000  0.000000000000000E+000  0.000000000000000E+000        
   8.97914774280000       0.000000000000000E+000  0.406238961480000             
  0.000000000000000E+000  0.000000000000000E+000  0.000000000000000E+000        
   3.68630023700000       0.000000000000000E+000  0.243382171760000             
  0.000000000000000E+000  0.000000000000000E+000  0.000000000000000E+000        
  0.846600768050000       0.000000000000000E+000  0.000000000000000E+000        
   1.00000000000000       0.000000000000000E+000  0.000000000000000E+000        
  0.336471337710000       0.000000000000000E+000  0.000000000000000E+000        
  0.000000000000000E+000   1.00000000000000       0.000000000000000E+000        
  0.136476536750000       0.000000000000000E+000  0.000000000000000E+000        
  0.000000000000000E+000  0.000000000000000E+000   1.00000000000000             
    6    3                                                                      
   49.2003805100000       5.555241675100000E-003  0.000000000000000E+000        
  0.000000000000000E+000                                                        
   11.3467905370000       3.805237972300000E-002  0.000000000000000E+000        
  0.000000000000000E+000                                                        
   3.42739724110000       0.149536710290000       0.000000000000000E+000        
  0.000000000000000E+000                                                        
   1.17855251340000       0.349493052300000       0.000000000000000E+000        
  0.000000000000000E+000                                                        
  0.416422049720000       0.000000000000000E+000  0.458431536970000             
  0.000000000000000E+000                                                        
  0.142608260110000       0.000000000000000E+000  0.000000000000000E+000        
  0.244287716720000                                                             
    2    2                                                                      
   1.65400000000000        1.00000000000000       0.000000000000000E+000        
  0.469000000000000       0.000000000000000E+000   1.00000000000000             
    1    1                                                                      
   1.09300000000000        1.00000000000000                                     
FINISH                                                                          
 
********************************************************************************
 One- and two-electron integrals over symmetry-adapted AOs are calculated.

  Spherical harmonics are used.
  
   4 types of atoms
   1 symmetry operations

   Reflection in the XY-plane
  
  Integrals less than  0.10E-13 are neglected.

  Atomic type number  1 :
  -----------------------

    Nuclear charge:                        1
    number of symmetry independent atoms:  1
    highest orbital type:                  d

      1 groups of CGTOs of s type
      1 groups of CGTOs of p type
      1 groups of CGTOs of d type

    nuclear coordinates (in a.u.) are :

    H #1       -3.013436580651497        1.570212328688937        0.000000000000000
  
   Basis function not normalized: 
   Center (as ordered in MOL file):   1
   Angular Momentum type          : s
   Offset within angular momentum :  1
   <chi|chi>                      :    4.2221530402
  Atomic type number  2 :
  -----------------------

    Nuclear charge:                        7
    number of symmetry independent atoms:  1
    highest orbital type:                  f

      1 groups of CGTOs of s type
      1 groups of CGTOs of p type
      1 groups of CGTOs of d type
      1 groups of CGTOs of f type

    nuclear coordinates (in a.u.) are :

    N #2       -2.201759885755818       -0.167654525659693        0.000000000000000
  
   Basis function not normalized: 
   Center (as ordered in MOL file):   2
   Angular Momentum type          : s
   Offset within angular momentum :  1
   <chi|chi>                      :    2.6784741790
   Basis function not normalized: 
   Center (as ordered in MOL file):   2
   Angular Momentum type          : s
   Offset within angular momentum :  2
   <chi|chi>                      :    1.5901154186
   Basis function not normalized: 
   Center (as ordered in MOL file):   2
   Angular Momentum type          : p
   Offset within angular momentum :  1
   <chi|chi>                      :    2.0609049563
   Basis function not normalized: 
   Center (as ordered in MOL file):   2
   Angular Momentum type          : p
   Offset within angular momentum :  2
   <chi|chi>                      :    2.1813508002
   Basis function not normalized: 
   Center (as ordered in MOL file):   2
   Angular Momentum type          : p
   Offset within angular momentum :  3
   <chi|chi>                      :    4.0935336964
  Atomic type number  3 :
  -----------------------

    Nuclear charge:                        7
    number of symmetry independent atoms:  1
    highest orbital type:                  f

      1 groups of CGTOs of s type
      1 groups of CGTOs of p type
      1 groups of CGTOs of d type
      1 groups of CGTOs of f type

    nuclear coordinates (in a.u.) are :

    N #3        0.138758894550733        0.071534930842157        0.000000000000000
  
   Basis function not normalized: 
   Center (as ordered in MOL file):   3
   Angular Momentum type          : s
   Offset within angular momentum :  1
   <chi|chi>                      :    2.6784741790
   Basis function not normalized: 
   Center (as ordered in MOL file):   3
   Angular Momentum type          : s
   Offset within angular momentum :  2
   <chi|chi>                      :    1.5901154186
   Basis function not normalized: 
   Center (as ordered in MOL file):   3
   Angular Momentum type          : p
   Offset within angular momentum :  1
   <chi|chi>                      :    2.0609049563
   Basis function not normalized: 
   Center (as ordered in MOL file):   3
   Angular Momentum type          : p
   Offset within angular momentum :  2
   <chi|chi>                      :    2.1813508002
   Basis function not normalized: 
   Center (as ordered in MOL file):   3
   Angular Momentum type          : p
   Offset within angular momentum :  3
   <chi|chi>                      :    4.0935336964
  Atomic type number  4 :
  -----------------------

    Nuclear charge:                        7
    number of symmetry independent atoms:  1
    highest orbital type:                  f

      1 groups of CGTOs of s type
      1 groups of CGTOs of p type
      1 groups of CGTOs of d type
      1 groups of CGTOs of f type

    nuclear coordinates (in a.u.) are :

    N #4        2.279883143433346       -0.016891255149574        0.000000000000000
  
   Basis function not normalized: 
   Center (as ordered in MOL file):   4
   Angular Momentum type          : s
   Offset within angular momentum :  1
   <chi|chi>                      :    2.6784741790
   Basis function not normalized: 
   Center (as ordered in MOL file):   4
   Angular Momentum type          : s
   Offset within angular momentum :  2
   <chi|chi>                      :    1.5901154186
   Basis function not normalized: 
   Center (as ordered in MOL file):   4
   Angular Momentum type          : p
   Offset within angular momentum :  1
   <chi|chi>                      :    2.0609049563
   Basis function not normalized: 
   Center (as ordered in MOL file):   4
   Angular Momentum type          : p
   Offset within angular momentum :  2
   <chi|chi>                      :    2.1813508002
   Basis function not normalized: 
   Center (as ordered in MOL file):   4
   Angular Momentum type          : p
   Offset within angular momentum :  3
   <chi|chi>                      :    4.0935336964
   Internuclear distances (A) :

     for atom H #1 (coordinates :  -3.01344   1.57021   0.00000)

     N #2   1     distance is  1.015
     N #3   1     distance is  1.847
     N #4   1     distance is  2.924

     for atom N #2 (coordinates :  -2.20176  -0.16765   0.00000)

     N #3   1     distance is  1.245
     N #4   1     distance is  2.373

     for atom N #3 (coordinates :   0.13876   0.07153   0.00000)

     N #4   1     distance is  1.134

     for atom N #4 (coordinates :   2.27988  -0.01689   0.00000)


   Group multiplication table :

         1   2
         2   1

   Gaussian basis information :

   atom                 exponent      coefficients

 H #1  1    S   
+                 1      34.061341   0.0060252   0.0000000   0.0000000
                  2       5.123575   0.0450211   0.0000000   0.0000000
                  3       1.164663   0.2018973   0.0000000   0.0000000
                  4       0.327230   0.0000000   1.0000000   0.0000000
                  5       0.103072   0.0000000   0.0000000   1.0000000

 H #1  1    X   
+                 6       1.407000   1.0000000   0.0000000
                  7       0.388000   0.0000000   1.0000000

 H #1  1    Y   
+                 8       1.407000   1.0000000   0.0000000
                  9       0.388000   0.0000000   1.0000000

 H #1  1    Z   
+                10       1.407000   1.0000000   0.0000000
                 11       0.388000   0.0000000   1.0000000

 H #1  1    XX  
+                12       1.057000   1.0000000

 H #1  1    XY  
+                13       1.057000   1.0000000

 H #1  1    XZ  
+                14       1.057000   1.0000000

 H #1  1    YY  
+                15       1.057000   1.0000000

 H #1  1    YZ  
+                16       1.057000   1.0000000

 H #1  1    ZZ  
+                17       1.057000   1.0000000

 N #2  1    S   
+                18   19730.800647   0.0002189   0.0000000   0.0000000   0.0000000   0.0000000
                 19    2957.895874   0.0016961   0.0000000   0.0000000   0.0000000   0.0000000
                 20     673.221336   0.0087955   0.0000000   0.0000000   0.0000000   0.0000000
                 21     190.682495   0.0353594   0.0000000   0.0000000   0.0000000   0.0000000
                 22      62.295442   0.1109579   0.0000000   0.0000000   0.0000000   0.0000000
                 23      22.654161   0.2498297   0.0000000   0.0000000   0.0000000   0.0000000
                 24       8.979148   0.0000000   0.4062390   0.0000000   0.0000000   0.0000000
                 25       3.686300   0.0000000   0.2433822   0.0000000   0.0000000   0.0000000
                 26       0.846601   0.0000000   0.0000000   1.0000000   0.0000000   0.0000000
                 27       0.336471   0.0000000   0.0000000   0.0000000   1.0000000   0.0000000
                 28       0.136477   0.0000000   0.0000000   0.0000000   0.0000000   1.0000000

 N #2  1    X   
+                29      49.200381   0.0055552   0.0000000   0.0000000
                 30      11.346791   0.0380524   0.0000000   0.0000000
                 31       3.427397   0.1495367   0.0000000   0.0000000
                 32       1.178553   0.3494931   0.0000000   0.0000000
                 33       0.416422   0.0000000   0.4584315   0.0000000
                 34       0.142608   0.0000000   0.0000000   0.2442877

 N #2  1    Y   
+                35      49.200381   0.0055552   0.0000000   0.0000000
                 36      11.346791   0.0380524   0.0000000   0.0000000
                 37       3.427397   0.1495367   0.0000000   0.0000000
                 38       1.178553   0.3494931   0.0000000   0.0000000
                 39       0.416422   0.0000000   0.4584315   0.0000000
                 40       0.142608   0.0000000   0.0000000   0.2442877

 N #2  1    Z   
+                41      49.200381   0.0055552   0.0000000   0.0000000
                 42      11.346791   0.0380524   0.0000000   0.0000000
                 43       3.427397   0.1495367   0.0000000   0.0000000
                 44       1.178553   0.3494931   0.0000000   0.0000000
                 45       0.416422   0.0000000   0.4584315   0.0000000
                 46       0.142608   0.0000000   0.0000000   0.2442877

 N #2  1    XX  
+                47       1.654000   1.0000000   0.0000000
                 48       0.469000   0.0000000   1.0000000

 N #2  1    XY  
+                49       1.654000   1.0000000   0.0000000
                 50       0.469000   0.0000000   1.0000000

 N #2  1    XZ  
+                51       1.654000   1.0000000   0.0000000
                 52       0.469000   0.0000000   1.0000000

 N #2  1    YY  
+                53       1.654000   1.0000000   0.0000000
                 54       0.469000   0.0000000   1.0000000

 N #2  1    YZ  
+                55       1.654000   1.0000000   0.0000000
                 56       0.469000   0.0000000   1.0000000

 N #2  1    ZZ  
+                57       1.654000   1.0000000   0.0000000
                 58       0.469000   0.0000000   1.0000000

 N #2  1    F300
+                59       1.093000   1.0000000

 N #2  1    F210
+                60       1.093000   1.0000000

 N #2  1    F201
+                61       1.093000   1.0000000

 N #2  1    F120
+                62       1.093000   1.0000000

 N #2  1    F111
+                63       1.093000   1.0000000

 N #2  1    F102
+                64       1.093000   1.0000000

 N #2  1    F030
+                65       1.093000   1.0000000

 N #2  1    F021
+                66       1.093000   1.0000000

 N #2  1    F012
+                67       1.093000   1.0000000

 N #2  1    F003
+                68       1.093000   1.0000000

 N #3  1    S   
+                69   19730.800647   0.0002189   0.0000000   0.0000000   0.0000000   0.0000000
                 70    2957.895874   0.0016961   0.0000000   0.0000000   0.0000000   0.0000000
                 71     673.221336   0.0087955   0.0000000   0.0000000   0.0000000   0.0000000
                 72     190.682495   0.0353594   0.0000000   0.0000000   0.0000000   0.0000000
                 73      62.295442   0.1109579   0.0000000   0.0000000   0.0000000   0.0000000
                 74      22.654161   0.2498297   0.0000000   0.0000000   0.0000000   0.0000000
                 75       8.979148   0.0000000   0.4062390   0.0000000   0.0000000   0.0000000
                 76       3.686300   0.0000000   0.2433822   0.0000000   0.0000000   0.0000000
                 77       0.846601   0.0000000   0.0000000   1.0000000   0.0000000   0.0000000
                 78       0.336471   0.0000000   0.0000000   0.0000000   1.0000000   0.0000000
                 79       0.136477   0.0000000   0.0000000   0.0000000   0.0000000   1.0000000

 N #3  1    X   
+                80      49.200381   0.0055552   0.0000000   0.0000000
                 81      11.346791   0.0380524   0.0000000   0.0000000
                 82       3.427397   0.1495367   0.0000000   0.0000000
                 83       1.178553   0.3494931   0.0000000   0.0000000
                 84       0.416422   0.0000000   0.4584315   0.0000000
                 85       0.142608   0.0000000   0.0000000   0.2442877

 N #3  1    Y   
+                86      49.200381   0.0055552   0.0000000   0.0000000
                 87      11.346791   0.0380524   0.0000000   0.0000000
                 88       3.427397   0.1495367   0.0000000   0.0000000
                 89       1.178553   0.3494931   0.0000000   0.0000000
                 90       0.416422   0.0000000   0.4584315   0.0000000
                 91       0.142608   0.0000000   0.0000000   0.2442877

 N #3  1    Z   
+                92      49.200381   0.0055552   0.0000000   0.0000000
                 93      11.346791   0.0380524   0.0000000   0.0000000
                 94       3.427397   0.1495367   0.0000000   0.0000000
                 95       1.178553   0.3494931   0.0000000   0.0000000
                 96       0.416422   0.0000000   0.4584315   0.0000000
                 97       0.142608   0.0000000   0.0000000   0.2442877

 N #3  1    XX  
+                98       1.654000   1.0000000   0.0000000
                 99       0.469000   0.0000000   1.0000000

 N #3  1    XY  
+               100       1.654000   1.0000000   0.0000000
                101       0.469000   0.0000000   1.0000000

 N #3  1    XZ  
+               102       1.654000   1.0000000   0.0000000
                103       0.469000   0.0000000   1.0000000

 N #3  1    YY  
+               104       1.654000   1.0000000   0.0000000
                105       0.469000   0.0000000   1.0000000

 N #3  1    YZ  
+               106       1.654000   1.0000000   0.0000000
                107       0.469000   0.0000000   1.0000000

 N #3  1    ZZ  
+               108       1.654000   1.0000000   0.0000000
                109       0.469000   0.0000000   1.0000000

 N #3  1    F300
+               110       1.093000   1.0000000

 N #3  1    F210
+               111       1.093000   1.0000000

 N #3  1    F201
+               112       1.093000   1.0000000

 N #3  1    F120
+               113       1.093000   1.0000000

 N #3  1    F111
+               114       1.093000   1.0000000

 N #3  1    F102
+               115       1.093000   1.0000000

 N #3  1    F030
+               116       1.093000   1.0000000

 N #3  1    F021
+               117       1.093000   1.0000000

 N #3  1    F012
+               118       1.093000   1.0000000

 N #3  1    F003
+               119       1.093000   1.0000000

 N #4  1    S   
+               120   19730.800647   0.0002189   0.0000000   0.0000000   0.0000000   0.0000000
                121    2957.895874   0.0016961   0.0000000   0.0000000   0.0000000   0.0000000
                122     673.221336   0.0087955   0.0000000   0.0000000   0.0000000   0.0000000
                123     190.682495   0.0353594   0.0000000   0.0000000   0.0000000   0.0000000
                124      62.295442   0.1109579   0.0000000   0.0000000   0.0000000   0.0000000
                125      22.654161   0.2498297   0.0000000   0.0000000   0.0000000   0.0000000
                126       8.979148   0.0000000   0.4062390   0.0000000   0.0000000   0.0000000
                127       3.686300   0.0000000   0.2433822   0.0000000   0.0000000   0.0000000
                128       0.846601   0.0000000   0.0000000   1.0000000   0.0000000   0.0000000
                129       0.336471   0.0000000   0.0000000   0.0000000   1.0000000   0.0000000
                130       0.136477   0.0000000   0.0000000   0.0000000   0.0000000   1.0000000

 N #4  1    X   
+               131      49.200381   0.0055552   0.0000000   0.0000000
                132      11.346791   0.0380524   0.0000000   0.0000000
                133       3.427397   0.1495367   0.0000000   0.0000000
                134       1.178553   0.3494931   0.0000000   0.0000000
                135       0.416422   0.0000000   0.4584315   0.0000000
                136       0.142608   0.0000000   0.0000000   0.2442877

 N #4  1    Y   
+               137      49.200381   0.0055552   0.0000000   0.0000000
                138      11.346791   0.0380524   0.0000000   0.0000000
                139       3.427397   0.1495367   0.0000000   0.0000000
                140       1.178553   0.3494931   0.0000000   0.0000000
                141       0.416422   0.0000000   0.4584315   0.0000000
                142       0.142608   0.0000000   0.0000000   0.2442877

 N #4  1    Z   
+               143      49.200381   0.0055552   0.0000000   0.0000000
                144      11.346791   0.0380524   0.0000000   0.0000000
                145       3.427397   0.1495367   0.0000000   0.0000000
                146       1.178553   0.3494931   0.0000000   0.0000000
                147       0.416422   0.0000000   0.4584315   0.0000000
                148       0.142608   0.0000000   0.0000000   0.2442877

 N #4  1    XX  
+               149       1.654000   1.0000000   0.0000000
                150       0.469000   0.0000000   1.0000000

 N #4  1    XY  
+               151       1.654000   1.0000000   0.0000000
                152       0.469000   0.0000000   1.0000000

 N #4  1    XZ  
+               153       1.654000   1.0000000   0.0000000
                154       0.469000   0.0000000   1.0000000

 N #4  1    YY  
+               155       1.654000   1.0000000   0.0000000
                156       0.469000   0.0000000   1.0000000

 N #4  1    YZ  
+               157       1.654000   1.0000000   0.0000000
                158       0.469000   0.0000000   1.0000000

 N #4  1    ZZ  
+               159       1.654000   1.0000000   0.0000000
                160       0.469000   0.0000000   1.0000000

 N #4  1    F300
+               161       1.093000   1.0000000

 N #4  1    F210
+               162       1.093000   1.0000000

 N #4  1    F201
+               163       1.093000   1.0000000

 N #4  1    F120
+               164       1.093000   1.0000000

 N #4  1    F111
+               165       1.093000   1.0000000

 N #4  1    F102
+               166       1.093000   1.0000000

 N #4  1    F030
+               167       1.093000   1.0000000

 N #4  1    F021
+               168       1.093000   1.0000000

 N #4  1    F012
+               169       1.093000   1.0000000

 N #4  1    F003
+               170       1.093000   1.0000000
123107
  1  2  3  4  5  6  7  8  9 10*** 11 12 13 14 15 16 17 18 19 20 21 22 23 24
 25 26 27****** 28 29 30*** 31*** 32 33 34 35 36 37 38 39 40 41 42 43 44 45
 46 47 48****** 49 50 51*** 52*** 53 54 55 56 57 58 59 60 61 62 63 64 65 66
 67 68 69****** 70 71 72*** 73*** 74 75 76 77 78 79 80 81 82 83 84 85 86 87
*** 88 89 90 91 92 93 94 95 96 97*** 98 99100101102103104105106107***
1

             SYMMETRY TRANSFORMATION INFO
            107 SYMMETRY ADAPTED BASIS FUNCTIONS 


          irreducible representation number 1

    1    1  H #1     1s     1   1   1.0
    2    2  H #1     1s     1   2   1.0
    3    3  H #1     1s     1   3   1.0
    4    4  H #1     2px    1   4   1.0
    5    5  H #1     2px    1   5   1.0
    6    6  H #1     2py    1   6   1.0
    7    7  H #1     2py    1   7   1.0
    8    8  H #1     3d2-   3  10  -1.0  13  -1.0  15   2.0
    9    9  H #1     3d1-   1  11   1.0
   10   10  H #1     3d1+   2  10   1.0  13  -1.0
   11   11  N #2     1s     1  16   1.0
   12   12  N #2     1s     1  17   1.0
   13   13  N #2     1s     1  18   1.0
   14   14  N #2     1s     1  19   1.0
   15   15  N #2     1s     1  20   1.0
   16   16  N #2     2px    1  21   1.0
   17   17  N #2     2px    1  22   1.0
   18   18  N #2     2px    1  23   1.0
   19   19  N #2     2py    1  24   1.0
   20   20  N #2     2py    1  25   1.0
   21   21  N #2     2py    1  26   1.0
   22   22  N #2     3d2-   3  30  -1.0  36  -1.0  40   2.0
   23   23  N #2     3d2-   3  31  -1.0  37  -1.0  41   2.0
   24   24  N #2     3d1-   1  32   1.0
   25   25  N #2     3d1-   1  33   1.0
   26   26  N #2     3d1+   2  30   1.0  36  -1.0
   27   27  N #2     3d1+   2  31   1.0  37  -1.0
   28   28  N #2     4f3-   3  42  -1.0  45  -1.0  47   4.0
   29   29  N #2     4f2-   3  43  -1.0  48  -1.0  50   4.0
   30   30  N #2     4f0    2  42   1.0  45  -3.0
   31   31  N #2     4f2+   2  43   3.0  48  -1.0
   32   32  N #3     1s     1  52   1.0
   33   33  N #3     1s     1  53   1.0
   34   34  N #3     1s     1  54   1.0
   35   35  N #3     1s     1  55   1.0
   36   36  N #3     1s     1  56   1.0
   37   37  N #3     2px    1  57   1.0
   38   38  N #3     2px    1  58   1.0
   39   39  N #3     2px    1  59   1.0
   40   40  N #3     2py    1  60   1.0
   41   41  N #3     2py    1  61   1.0
   42   42  N #3     2py    1  62   1.0
   43   43  N #3     3d2-   3  66  -1.0  72  -1.0  76   2.0
   44   44  N #3     3d2-   3  67  -1.0  73  -1.0  77   2.0
   45   45  N #3     3d1-   1  68   1.0
   46   46  N #3     3d1-   1  69   1.0
   47   47  N #3     3d1+   2  66   1.0  72  -1.0
   48   48  N #3     3d1+   2  67   1.0  73  -1.0
   49   49  N #3     4f3-   3  78  -1.0  81  -1.0  83   4.0
   50   50  N #3     4f2-   3  79  -1.0  84  -1.0  86   4.0
   51   51  N #3     4f0    2  78   1.0  81  -3.0
   52   52  N #3     4f2+   2  79   3.0  84  -1.0
   53   53  N #4     1s     1  88   1.0
   54   54  N #4     1s     1  89   1.0
   55   55  N #4     1s     1  90   1.0
   56   56  N #4     1s     1  91   1.0
   57   57  N #4     1s     1  92   1.0
   58   58  N #4     2px    1  93   1.0
   59   59  N #4     2px    1  94   1.0
   60   60  N #4     2px    1  95   1.0
   61   61  N #4     2py    1  96   1.0
   62   62  N #4     2py    1  97   1.0
   63   63  N #4     2py    1  98   1.0
   64   64  N #4     3d2-   3 102  -1.0 108  -1.0 112   2.0
   65   65  N #4     3d2-   3 103  -1.0 109  -1.0 113   2.0
   66   66  N #4     3d1-   1 104   1.0
   67   67  N #4     3d1-   1 105   1.0
   68   68  N #4     3d1+   2 102   1.0 108  -1.0
   69   69  N #4     3d1+   2 103   1.0 109  -1.0
   70   70  N #4     4f3-   3 114  -1.0 117  -1.0 119   4.0
   71   71  N #4     4f2-   3 115  -1.0 120  -1.0 122   4.0
   72   72  N #4     4f0    2 114   1.0 117  -3.0
   73   73  N #4     4f2+   2 115   3.0 120  -1.0


          irreducible representation number 2

   74    1  H #1     2pz    1   8   1.0
   75    2  H #1     2pz    1   9   1.0
   76    3  H #1     3d0    1  12   1.0
   77    4  H #1     3d2+   1  14   1.0
   78    5  N #2     2pz    1  27   1.0
   79    6  N #2     2pz    1  28   1.0
   80    7  N #2     2pz    1  29   1.0
   81    8  N #2     3d0    1  34   1.0
   82    9  N #2     3d0    1  35   1.0
   83   10  N #2     3d2+   1  38   1.0
   84   11  N #2     3d2+   1  39   1.0
   85   12  N #2     4f1-   3  44  -3.0  49  -3.0  51   2.0
   86   13  N #2     4f1+   1  46   1.0
   87   14  N #2     4f3+   2  44   1.0  49  -1.0
   88   15  N #3     2pz    1  63   1.0
   89   16  N #3     2pz    1  64   1.0
   90   17  N #3     2pz    1  65   1.0
   91   18  N #3     3d0    1  70   1.0
   92   19  N #3     3d0    1  71   1.0
   93   20  N #3     3d2+   1  74   1.0
   94   21  N #3     3d2+   1  75   1.0
   95   22  N #3     4f1-   3  80  -3.0  85  -3.0  87   2.0
   96   23  N #3     4f1+   1  82   1.0
   97   24  N #3     4f3+   2  80   1.0  85  -1.0
   98   25  N #4     2pz    1  99   1.0
   99   26  N #4     2pz    1 100   1.0
  100   27  N #4     2pz    1 101   1.0
  101   28  N #4     3d0    1 106   1.0
  102   29  N #4     3d0    1 107   1.0
  103   30  N #4     3d2+   1 110   1.0
  104   31  N #4     3d2+   1 111   1.0
  105   32  N #4     4f1-   3 116  -3.0 121  -3.0 123   2.0
  106   33  N #4     4f1+   1 118   1.0
  107   34  N #4     4f3+   2 116   1.0 121  -1.0
  Nuclear repulsion energy :   61.5417963795 a.u.
  required memory for a1 array                5029908  words 
  required memory for a2 array                2103164  words 
 @GETMEM-I,  Allocated      69 MB of main memory.
  @MOLECU-I, One electron integrals (CPU/WALL):        0.06/       0.08 seconds.
  @TWOEL-I,    3702633 integrals of symmetry type  I I I I
  @TWOEL-I,    2993428 integrals of symmetry type  I J I J
  @TWOEL-I,    1563754 integrals of symmetry type  I I J J
  @TWOEL-I, Total number of 2-e integrals    8259815.
  @MOLECU-I, Two electron integrals (CPU/WALL):        4.29/       4.49 seconds.
  @CHECKOUT-I, Total execution time (CPU/WALL):        4.81/       5.22 seconds.
--executable xvmol finished with status     0 in        5.73 seconds (walltime).
 --invoking executable--
/home/nike/cfour_v2.00beta/cfour_v2.00beta/bin/xvmol2ja
 @GETMEM-I,  Allocated   11444 MB of main memory.
  @CHECKOUT-I, Total execution time (CPU/WALL):        0.02/       0.04 seconds.
--executable xvmol2ja finished with status     0 in        0.29 seconds (walltime).
 --invoking executable--
/home/nike/cfour_v2.00beta/cfour_v2.00beta/bin/xvscf
  There are  107 functions in the AO basis.

  There are 2 irreducible representations.

       Irrep        # of functions
         1                 73
         2                 34


  Parameters for SCF calculation: 
        SCF reference function:  RHF  
  Maximum number of iterations: ****
     Full symmetry point group: C s 
     Computational point group: C s 
        Initial density matrix: MOREAD                 
     SCF convergence tolerance: 10**(-11)
  DIIS convergence acceleration:  ON
          Latest start for DIIS:   5
                     DIIS order:   6

  Memory information:     573099 words required.
  Fock matrices are constructed from AO integral file.
 @GETMEM-I,  Allocated       4 MB of main memory.
  Initialization and symmetry analysis required      0.019 seconds.

  @INITGES-I, Occupancies from core Hamiltonian:

          Alpha population by irrep:   9    2
           Beta population by irrep:   9    2


 total no. of electrons in initial guess :  0.000000000000000E+000
  --------------------------------------------------------------------
  Iteration         Total Energy            Largest Density Difference
  --------------------------------------------------------------------
       0            61.541796379549915              0.0000000000D+00
   current occupation vector 
     9  2
     9  2
  processed                3702633  ao basis integrals from 
                  6172  buffers.
  processed                1563754  ao basis integrals from 
                  2607  buffers.
  processed                2993428  ao basis integrals from 
                  4990  buffers.
       1          -137.576485337884947              0.1201225139D+02
   current occupation vector 
     9  2
     9  2
  processed                3702633  ao basis integrals from 
                  6172  buffers.
  processed                1563754  ao basis integrals from 
                  2607  buffers.
  processed                2993428  ao basis integrals from 
                  4990  buffers.
       2          -143.694877236158590              0.9933590119D+02
   current occupation vector 
    10  1
    10  1
  processed                3702633  ao basis integrals from 
                  6172  buffers.
  processed                1563754  ao basis integrals from 
                  2607  buffers.
  processed                2993428  ao basis integrals from 
                  4990  buffers.
       3          -145.327484056970320              0.1002086755D+03
   current occupation vector 
     9  2
     9  2
  processed                3702633  ao basis integrals from 
                  6172  buffers.
  processed                1563754  ao basis integrals from 
                  2607  buffers.
  processed                2993428  ao basis integrals from 
                  4990  buffers.
       4          -127.467683010378408              0.4684966050D+03
   current occupation vector 
     9  2
     9  2
 
 sum over diagonal and offdiagdiagonal of C(T)*S*C for irrep
                     1
  7.436606885846686E-012 -8.862773171535636E-012
 reorthoganalization of MOs is carried out
 sum over diagonal and offdiagdiagonal of C(T)*S*C for irrep
                     1
 -1.165734175856414E-014 -6.491514760436256E-013
 
 sum over diagonal and offdiagdiagonal of C(T)*S*C for irrep
                     2
  1.785238623597252E-013  6.450663714782215E-014
 reorthoganalization of MOs is carried out
 sum over diagonal and offdiagdiagonal of C(T)*S*C for irrep
                     2
 -8.881784197001252E-016  2.602796018789057E-015
  processed                3702633  ao basis integrals from 
                  6172  buffers.
  processed                1563754  ao basis integrals from 
                  2607  buffers.
  processed                2993428  ao basis integrals from 
                  4990  buffers.
       5          -136.328004364676758              0.4684131154D+03
   current occupation vector 
     9  2
     9  2
  processed                3702633  ao basis integrals from 
                  6172  buffers.
  processed                1563754  ao basis integrals from 
                  2607  buffers.
  processed                2993428  ao basis integrals from 
                  4990  buffers.
       6          -158.285451092551057              0.1960890599D+01
   current occupation vector 
     9  2
     9  2
  processed                3702633  ao basis integrals from 
                  6172  buffers.
  processed                1563754  ao basis integrals from 
                  2607  buffers.
  processed                2993428  ao basis integrals from 
                  4990  buffers.
       7          -163.363577326704615              0.1393057933D+01
   current occupation vector 
     9  2
     9  2
  processed                3702633  ao basis integrals from 
                  6172  buffers.
  processed                1563754  ao basis integrals from 
                  2607  buffers.
  processed                2993428  ao basis integrals from 
                  4990  buffers.
       8          -163.860866840507555              0.3667547580D+00
   current occupation vector 
     9  2
     9  2
  processed                3702633  ao basis integrals from 
                  6172  buffers.
  processed                1563754  ao basis integrals from 
                  2607  buffers.
  processed                2993428  ao basis integrals from 
                  4990  buffers.
       9          -163.905882189658712              0.1404957874D+00
   current occupation vector 
     9  2
     9  2
 
 sum over diagonal and offdiagdiagonal of C(T)*S*C for irrep
                     1
  7.239875365883108E-012 -3.614380348547737E-012
 reorthoganalization of MOs is carried out
 sum over diagonal and offdiagdiagonal of C(T)*S*C for irrep
                     1
  7.394085344003543E-014 -1.472320558630739E-013
 
 sum over diagonal and offdiagdiagonal of C(T)*S*C for irrep
                     2
  1.846300889951635E-013  1.168839231149540E-014
 reorthoganalization of MOs is carried out
 sum over diagonal and offdiagdiagonal of C(T)*S*C for irrep
                     2
 -1.887379141862766E-015 -2.890222663767067E-015
  processed                3702633  ao basis integrals from 
                  6172  buffers.
  processed                1563754  ao basis integrals from 
                  2607  buffers.
  processed                2993428  ao basis integrals from 
                  4990  buffers.
      10          -163.907967631354893              0.1853513991D-01
   current occupation vector 
     9  2
     9  2
  processed                3702633  ao basis integrals from 
                  6172  buffers.
  processed                1563754  ao basis integrals from 
                  2607  buffers.
  processed                2993428  ao basis integrals from 
                  4990  buffers.
      11          -163.908501361045211              0.6745436115D-02
   current occupation vector 
     9  2
     9  2
  processed                3702633  ao basis integrals from 
                  6172  buffers.
  processed                1563754  ao basis integrals from 
                  2607  buffers.
  processed                2993428  ao basis integrals from 
                  4990  buffers.
      12          -163.908600534608922              0.4295029276D-02
   current occupation vector 
     9  2
     9  2
  processed                3702633  ao basis integrals from 
                  6172  buffers.
  processed                1563754  ao basis integrals from 
                  2607  buffers.
  processed                2993428  ao basis integrals from 
                  4990  buffers.
      13          -163.908613396337586              0.1403225388D-02
   current occupation vector 
     9  2
     9  2
  processed                3702633  ao basis integrals from 
                  6172  buffers.
  processed                1563754  ao basis integrals from 
                  2607  buffers.
  processed                2993428  ao basis integrals from 
                  4990  buffers.
      14          -163.908618254534048              0.9048167186D-03
   current occupation vector 
     9  2
     9  2
 
 sum over diagonal and offdiagdiagonal of C(T)*S*C for irrep
                     1
  7.091105480583337E-012 -2.398680983668089E-012
 reorthoganalization of MOs is carried out
 sum over diagonal and offdiagdiagonal of C(T)*S*C for irrep
                     1
  3.420597138870107E-013 -1.449611090190944E-012
 
 sum over diagonal and offdiagdiagonal of C(T)*S*C for irrep
                     2
  1.709743457922741E-013  3.579330320276523E-014
 reorthoganalization of MOs is carried out
 sum over diagonal and offdiagdiagonal of C(T)*S*C for irrep
                     2
  1.221245327087672E-015 -6.940973076974997E-015
  processed                3702633  ao basis integrals from 
                  6172  buffers.
  processed                1563754  ao basis integrals from 
                  2607  buffers.
  processed                2993428  ao basis integrals from 
                  4990  buffers.
      15          -163.908620311977501              0.7528418180D-03
   current occupation vector 
     9  2
     9  2
  processed                3702633  ao basis integrals from 
                  6172  buffers.
  processed                1563754  ao basis integrals from 
                  2607  buffers.
  processed                2993428  ao basis integrals from 
                  4990  buffers.
      16          -163.908620538154310              0.2148116762D-03
   current occupation vector 
     9  2
     9  2
  processed                3702633  ao basis integrals from 
                  6172  buffers.
  processed                1563754  ao basis integrals from 
                  2607  buffers.
  processed                2993428  ao basis integrals from 
                  4990  buffers.
      17          -163.908620554677924              0.7386253705D-04
   current occupation vector 
     9  2
     9  2
  processed                3702633  ao basis integrals from 
                  6172  buffers.
  processed                1563754  ao basis integrals from 
                  2607  buffers.
  processed                2993428  ao basis integrals from 
                  4990  buffers.
      18          -163.908620555310307              0.1437279191D-04
   current occupation vector 
     9  2
     9  2
  processed                3702633  ao basis integrals from 
                  6172  buffers.
  processed                1563754  ao basis integrals from 
                  2607  buffers.
  processed                2993428  ao basis integrals from 
                  4990  buffers.
      19          -163.908620555389149              0.4886565636D-05
   current occupation vector 
     9  2
     9  2
 
 sum over diagonal and offdiagdiagonal of C(T)*S*C for irrep
                     1
  7.719380690218713E-012 -3.692171762285807E-012
 reorthoganalization of MOs is carried out
 sum over diagonal and offdiagdiagonal of C(T)*S*C for irrep
                     1
 -2.490230244234226E-013  4.759009588692756E-013
 
 sum over diagonal and offdiagdiagonal of C(T)*S*C for irrep
                     2
  1.731947918415244E-013  8.464795858570149E-015
 reorthoganalization of MOs is carried out
 sum over diagonal and offdiagdiagonal of C(T)*S*C for irrep
                     2
  1.998401444325282E-015  5.235816811551670E-015
  processed                3702633  ao basis integrals from 
                  6172  buffers.
  processed                1563754  ao basis integrals from 
                  2607  buffers.
  processed                2993428  ao basis integrals from 
                  4990  buffers.
      20          -163.908620555398045              0.2783271670D-05
   current occupation vector 
     9  2
     9  2
  processed                3702633  ao basis integrals from 
                  6172  buffers.
  processed                1563754  ao basis integrals from 
                  2607  buffers.
  processed                2993428  ao basis integrals from 
                  4990  buffers.
      21          -163.908620555399381              0.5766712981D-06
   current occupation vector 
     9  2
     9  2
  processed                3702633  ao basis integrals from 
                  6172  buffers.
  processed                1563754  ao basis integrals from 
                  2607  buffers.
  processed                2993428  ao basis integrals from 
                  4990  buffers.
      22          -163.908620555399381              0.2859806322D-06
   current occupation vector 
     9  2
     9  2
  processed                3702633  ao basis integrals from 
                  6172  buffers.
  processed                1563754  ao basis integrals from 
                  2607  buffers.
  processed                2993428  ao basis integrals from 
                  4990  buffers.
      23          -163.908620555398812              0.1595851878D-06
   current occupation vector 
     9  2
     9  2
  processed                3702633  ao basis integrals from 
                  6172  buffers.
  processed                1563754  ao basis integrals from 
                  2607  buffers.
  processed                2993428  ao basis integrals from 
                  4990  buffers.
      24          -163.908620555399722              0.4620785798D-07
   current occupation vector 
     9  2
     9  2
 
 sum over diagonal and offdiagdiagonal of C(T)*S*C for irrep
                     1
  7.165379400930760E-012 -2.754660487064888E-012
 reorthoganalization of MOs is carried out
 sum over diagonal and offdiagdiagonal of C(T)*S*C for irrep
                     1
  9.481304630298837E-014 -6.603099470746501E-013
 
 sum over diagonal and offdiagdiagonal of C(T)*S*C for irrep
                     2
  1.655342529716108E-013  2.393341203736602E-015
 reorthoganalization of MOs is carried out
 sum over diagonal and offdiagdiagonal of C(T)*S*C for irrep
                     2
  4.996003610813204E-015 -4.028255644174933E-015
  processed                3702633  ao basis integrals from 
                  6172  buffers.
  processed                1563754  ao basis integrals from 
                  2607  buffers.
  processed                2993428  ao basis integrals from 
                  4990  buffers.
      25          -163.908620555398898              0.3185416342D-07
   current occupation vector 
     9  2
     9  2
  processed                3702633  ao basis integrals from 
                  6172  buffers.
  processed                1563754  ao basis integrals from 
                  2607  buffers.
  processed                2993428  ao basis integrals from 
                  4990  buffers.
      26          -163.908620555399523              0.2203808702D-07
   current occupation vector 
     9  2
     9  2
  processed                3702633  ao basis integrals from 
                  6172  buffers.
  processed                1563754  ao basis integrals from 
                  2607  buffers.
  processed                2993428  ao basis integrals from 
                  4990  buffers.
      27          -163.908620555398755              0.3583736641D-08
[...]
   i       a                 i       a                 i       a    
-----------------------------------------------------------------------------
[  7      73    ]-0.04162 [  6       9    ]-0.03649 [  6      10    ]-0.02590
[  6      14    ]-0.01515 [  8      75    ]-0.01387 [  8      79    ] 0.01158
[  7      76    ] 0.01052 [  4       9    ]-0.00989 [  8      83    ] 0.00973
[  7      84    ]-0.00969 [  6      33    ]-0.00964 [  6      16    ]-0.00885
[  5      15    ] 0.00864 [  6      18    ]-0.00756 [  4      10    ]-0.00745
-----------------------------------------------------------------------------
   Norm of T1AA vector (      448 symmetry allowed elements):  0.0793994506.
-----------------------------------------------------------------------------
   Largest T2 amplitudes for spin case AB:
       _       _                 _       _                 _       _
   i   j   a   b             i   j   a   b             i   j   a   b
-----------------------------------------------------------------------------
[  8   8  73  73]-0.08562 [  7   7  73  73]-0.05382 [  6   6   9   9]-0.04746
[  8   6  73   9]-0.04063 [  6   8   9  73]-0.04063 [  4   4   9   9]-0.03677
[  8   8  74  73] 0.03565 [  8   8  73  74] 0.03565 [  8   6  73  10]-0.02870
[  6   8  10  73]-0.02870 [  5   5   9   9]-0.02674 [  6   6  10   9]-0.02608
[  6   6   9  10]-0.02608 [  3   3  19  19]-0.02545 [  7   4  73   9]-0.02523
-----------------------------------------------------------------------------
   Norm of T2AB vector (   303104 symmetry allowed elements):  0.3953291061.
-----------------------------------------------------------------------------
  W(mnij) AB contribution =  0.0931883337 a.u.
  W(abef) AB contribution =  0.1271443202 a.u.
  W(mbej) AB contribution = -0.2816652019 a.u.
   After  16 iterations, amplitude changes are:
    -------------------------------------------------------------------
                 Spin      RMS          Max.      Max. change for
     Amplitude   Case     Change       Change       i    j    a    b
    -------------------------------------------------------------------
        T1        AA    0.0000000007 0.0000002165    8        73
        T2        AA    0.0000000000-0.0000000137    7    4   73    9
        T2        AB    0.0000000000 0.0000000436    8    7   73   73
    -------------------------------------------------------------------
   The AA contribution to the correlation energy is:   -0.0678207 a.u.
   The AB contribution to the correlation energy is:   -0.4652852 a.u.
   The total correlation energy is -0.600926607363 a.u.
   The total correlation energy is -0.600926607363 a.u.
  Current DIIS expansion coefficients : 
 [   1] 1.2841293463 [   2]-0.0016436368 [   3] 0.0453940968 [   4]-0.2222427137
 [   5]-0.1056370926
  Convergence information after    16 iterations: 
  Largest element of residual vector :  0.21648744E-06.
  Largest element of DIIS residual   : -0.13176873E-06.
  W(mnij) AB contribution =  0.0931883405 a.u.
  W(abef) AB contribution =  0.1271443319 a.u.
  W(mbej) AB contribution = -0.2816652198 a.u.
   After  17 iterations, amplitude changes are:
    -------------------------------------------------------------------
                 Spin      RMS          Max.      Max. change for
     Amplitude   Case     Change       Change       i    j    a    b
    -------------------------------------------------------------------
        T1        AA    0.0000000002 0.0000000724    8        73
        T2        AA    0.0000000000 0.0000000108    7    6   73    9
        T2        AB    0.0000000000 0.0000000416    8    8   73   73
    -------------------------------------------------------------------
   The AA contribution to the correlation energy is:   -0.0678207 a.u.
   The AB contribution to the correlation energy is:   -0.4652852 a.u.
   The total correlation energy is -0.600926606311 a.u.
   The total correlation energy is -0.600926606311 a.u.
  Current DIIS expansion coefficients : 
 [   1]-0.2987985980 [   2] 1.3108614294 [   3] 0.0273929612 [   4]-0.0089463164
 [   5]-0.0305094763
  Convergence information after    17 iterations: 
  Largest element of residual vector :  0.72392107E-07.
  Largest element of DIIS residual   :  0.36599880E-07.
  W(mnij) AB contribution =  0.0931883253 a.u.
  W(abef) AB contribution =  0.1271443132 a.u.
  W(mbej) AB contribution = -0.2816651606 a.u.
   After  18 iterations, amplitude changes are:
    -------------------------------------------------------------------
                 Spin      RMS          Max.      Max. change for
     Amplitude   Case     Change       Change       i    j    a    b
    -------------------------------------------------------------------
        T1        AA    0.0000000002 0.0000000520    8        73
        T2        AA    0.0000000000-0.0000000046    8    6   73    9
        T2        AB    0.0000000000-0.0000000077    7    7   73   73
    -------------------------------------------------------------------
   The AA contribution to the correlation energy is:   -0.0678207 a.u.
   The AB contribution to the correlation energy is:   -0.4652852 a.u.
   The total correlation energy is -0.600926609422 a.u.
   The total correlation energy is -0.600926609422 a.u.
  Current DIIS expansion coefficients : 
 [   1]-0.3217171029 [   2] 0.0586032885 [   3] 1.1790796221 [   4]-0.0024543319
 [   5] 0.0864885243
  Convergence information after    18 iterations: 
  Largest element of residual vector :  0.52023136E-07.
  Largest element of DIIS residual   : -0.13892384E-07.
  W(mnij) AB contribution =  0.0931883254 a.u.
  W(abef) AB contribution =  0.1271443131 a.u.
  W(mbej) AB contribution = -0.2816651577 a.u.
   After  19 iterations, amplitude changes are:
    -------------------------------------------------------------------
                 Spin      RMS          Max.      Max. change for
     Amplitude   Case     Change       Change       i    j    a    b
    -------------------------------------------------------------------
        T1        AA    0.0000000000 0.0000000086    8        73
        T2        AA    0.0000000000-0.0000000016    8    6   73    9
        T2        AB    0.0000000000 0.0000000040    8    8   73   73
    -------------------------------------------------------------------
   The AA contribution to the correlation energy is:   -0.0678207 a.u.
   The AB contribution to the correlation energy is:   -0.4652852 a.u.
   The total correlation energy is -0.600926610286 a.u.
   The total correlation energy is -0.600926610286 a.u.
  Current DIIS expansion coefficients : 
 [   1]-0.0227179401 [   2]-0.0100702992 [   3]-0.1248789444 [   4] 1.1415176166
 [   5] 0.0161495671
  Convergence information after    19 iterations: 
  Largest element of residual vector :  0.85616730E-08.
  Largest element of DIIS residual   : -0.27709237E-08.
  W(mnij) AB contribution =  0.0931883259 a.u.
  W(abef) AB contribution =  0.1271443136 a.u.
  W(mbej) AB contribution = -0.2816651586 a.u.
   After  20 iterations, amplitude changes are:
    -------------------------------------------------------------------
                 Spin      RMS          Max.      Max. change for
     Amplitude   Case     Change       Change       i    j    a    b
    -------------------------------------------------------------------
        T1        AA    0.0000000000-0.0000000035    6         9
        T2        AA    0.0000000000 0.0000000006    7    4   73    9
        T2        AB    0.0000000000-0.0000000009    7    7   73   73
    -------------------------------------------------------------------
   The AA contribution to the correlation energy is:   -0.0678207 a.u.
   The AB contribution to the correlation energy is:   -0.4652852 a.u.
   The total correlation energy is -0.600926610668 a.u.
   The total correlation energy is -0.600926610668 a.u.
  Current DIIS expansion coefficients : 
 [   1]-0.0004780854 [   2] 0.0311841670 [   3]-0.1049425588 [   4] 0.0247555932
 [   5] 1.0494808840
  Convergence information after    20 iterations: 
  Largest element of residual vector : -0.35350263E-08.
  Largest element of DIIS residual   : -0.19161522E-08.
   Largest T1 amplitudes for spin case AA:
   i       a                 i       a                 i       a    
-----------------------------------------------------------------------------
[  7      73    ]-0.04162 [  6       9    ]-0.03649 [  6      10    ]-0.02590
[  6      14    ]-0.01515 [  8      75    ]-0.01387 [  8      79    ] 0.01158
[  7      76    ] 0.01052 [  4       9    ]-0.00989 [  8      83    ] 0.00973
[  7      84    ]-0.00969 [  6      33    ]-0.00964 [  6      16    ]-0.00885
[  5      15    ] 0.00864 [  6      18    ]-0.00756 [  4      10    ]-0.00745
-----------------------------------------------------------------------------
   Norm of T1AA vector (      448 symmetry allowed elements):  0.0793998308.
-----------------------------------------------------------------------------
   Largest T2 amplitudes for spin case AB:
       _       _                 _       _                 _       _
   i   j   a   b             i   j   a   b             i   j   a   b
-----------------------------------------------------------------------------
[  8   8  73  73]-0.08562 [  7   7  73  73]-0.05382 [  6   6   9   9]-0.04746
[  8   6  73   9]-0.04063 [  6   8   9  73]-0.04063 [  4   4   9   9]-0.03677
[  8   8  74  73] 0.03565 [  8   8  73  74] 0.03565 [  8   6  73  10]-0.02870
[  6   8  10  73]-0.02870 [  5   5   9   9]-0.02674 [  6   6  10   9]-0.02608
[  6   6   9  10]-0.02608 [  3   3  19  19]-0.02545 [  7   4  73   9]-0.02523
-----------------------------------------------------------------------------
   Norm of T2AB vector (   303104 symmetry allowed elements):  0.3953291011.
-----------------------------------------------------------------------------
  W(mnij) AB contribution =  0.0931883264 a.u.
  W(abef) AB contribution =  0.1271443142 a.u.
  W(mbej) AB contribution = -0.2816651605 a.u.
   After  21 iterations, amplitude changes are:
    -------------------------------------------------------------------
                 Spin      RMS          Max.      Max. change for
     Amplitude   Case     Change       Change       i    j    a    b
    -------------------------------------------------------------------
        T1        AA    0.0000000000-0.0000000015    6         9
        T2        AA    0.0000000000-0.0000000002    7    6   73    9
        T2        AB    0.0000000000 0.0000000003    7    6    9   73
    -------------------------------------------------------------------
   The AA contribution to the correlation energy is:   -0.0678207 a.u.
   The AB contribution to the correlation energy is:   -0.4652852 a.u.
   The total correlation energy is -0.600926610863 a.u.
   The total correlation energy is -0.600926610863 a.u.
  Current DIIS expansion coefficients : 
 [   1] 1.2144038899 [   2] 0.0056024530 [   3]-0.0059433951 [   4]-0.0809914255
 [   5]-0.1330715223
  Convergence information after    21 iterations: 
  Largest element of residual vector : -0.15127986E-08.
  Largest element of DIIS residual   : -0.10761972E-08.
  W(mnij) AB contribution =  0.0931883266 a.u.
  W(abef) AB contribution =  0.1271443145 a.u.
  W(mbej) AB contribution = -0.2816651613 a.u.
   After  22 iterations, amplitude changes are:
    -------------------------------------------------------------------
                 Spin      RMS          Max.      Max. change for
     Amplitude   Case     Change       Change       i    j    a    b
    -------------------------------------------------------------------
        T1        AA    0.0000000000-0.0000000005    6         9
        T2        AA    0.0000000000-0.0000000001    7    6   73    9
        T2        AB    0.0000000000-0.0000000002    8    8   73   73
    -------------------------------------------------------------------
   The AA contribution to the correlation energy is:   -0.0678207 a.u.
   The AB contribution to the correlation energy is:   -0.4652852 a.u.
   The total correlation energy is -0.600926610972 a.u.
   The total correlation energy is -0.600926610972 a.u.
  Current DIIS expansion coefficients : 
 [   1]-0.2769845284 [   2] 1.2867372659 [   3]-0.0001657637 [   4] 0.0463666314
 [   5]-0.0559536051
  Convergence information after    22 iterations: 
  Largest element of residual vector : -0.52908145E-09.
  Largest element of DIIS residual   : -0.29198456E-09.
  Amplitude equations converged in    22iterations.
   The AA contribution to the correlation energy is:   -0.0678207 a.u.
   The AB contribution to the correlation energy is:   -0.4652852 a.u.
   The total correlation energy is -0.600926610988 a.u.
   The total correlation energy is -0.600926610988 a.u.
   The CC iterations have converged.

   Largest T1 amplitudes for spin case AA:
   i       a                 i       a                 i       a    
-----------------------------------------------------------------------------
[  7      73    ]-0.04162 [  6       9    ]-0.03649 [  6      10    ]-0.02590
[  6      14    ]-0.01515 [  8      75    ]-0.01387 [  8      79    ] 0.01158
[  7      76    ] 0.01052 [  4       9    ]-0.00989 [  8      83    ] 0.00973
[  7      84    ]-0.00969 [  6      33    ]-0.00964 [  6      16    ]-0.00885
[  5      15    ] 0.00864 [  6      18    ]-0.00756 [  4      10    ]-0.00745
-----------------------------------------------------------------------------
   Norm of T1AA vector (      448 symmetry allowed elements):  0.0793998333.
-----------------------------------------------------------------------------
   Largest T2 amplitudes for spin case AB:
       _       _                 _       _                 _       _
   i   j   a   b             i   j   a   b             i   j   a   b
-----------------------------------------------------------------------------
[  8   8  73  73]-0.08562 [  7   7  73  73]-0.05382 [  6   6   9   9]-0.04746
[  8   6  73   9]-0.04063 [  6   8   9  73]-0.04063 [  4   4   9   9]-0.03677
[  8   8  74  73] 0.03565 [  8   8  73  74] 0.03565 [  8   6  73  10]-0.02870
[  6   8  10  73]-0.02870 [  5   5   9   9]-0.02674 [  6   6  10   9]-0.02608
[  6   6   9  10]-0.02608 [  3   3  19  19]-0.02545 [  7   4  73   9]-0.02523
-----------------------------------------------------------------------------
   Norm of T2AB vector (   303104 symmetry allowed elements):  0.3953291019.
-----------------------------------------------------------------------------
       Summary of iterative solution of CC equations 
      -----------------------------------------------------------
                       Correlation           Total
       Iteration         Energy              Energy
      -----------------------------------------------------------
            0        -0.611425604985    -164.520046160385  DIIS 
            1        -0.572514107813    -164.481134663213  DIIS 
            2        -0.603702888417    -164.512323443817  DIIS 
            3        -0.598323281823    -164.506943837223  DIIS 
            4        -0.599950552254    -164.508571107653  DIIS 
            5        -0.600850451392    -164.509471006792  DIIS 
            6        -0.600913788102    -164.509534343502  DIIS 
            7        -0.600920526843    -164.509541082243  DIIS 
            8        -0.600934972344    -164.509555527744  DIIS 
            9        -0.600918481159    -164.509539036559  DIIS 
           10        -0.600926511293    -164.509547066693  DIIS 
           11        -0.600925857082    -164.509546412482  DIIS 
           12        -0.600926146351    -164.509546701751  DIIS 
           13        -0.600926587650    -164.509547143050  DIIS 
           14        -0.600926561073    -164.509547116472  DIIS 
           15        -0.600926599004    -164.509547154404  DIIS 
           16        -0.600926607363    -164.509547162762  DIIS 
           17        -0.600926606311    -164.509547161710  DIIS 
           18        -0.600926609422    -164.509547164822  DIIS 
           19        -0.600926610286    -164.509547165685  DIIS 
           20        -0.600926610668    -164.509547166068  DIIS 
           21        -0.600926610863    -164.509547166262  DIIS 
           22        -0.600926610988    -164.509547166388  DIIS 
      -----------------------------------------------------------
      A miracle has come to pass. The CC iterations have converged.
 @DIMT3-I, Dimensions of T3 amplitudes : 
               # abc          # ijk       Symmetry    Spin 
                    73408             26     1          1
                    69472             30     2          1
                   226304            120     1          2
                   211456            104     2          2
                   226304            120     1          3
                   211456            104     2          3
                    73408             26     1          4
                    69472             30     2          4
 @DIMT3-I, Dimensions of T3 amplitudes : 
               # abc          # ijk       Symmetry    Spin 
                    73408             26     1          1
                    69472             30     2          1
                   226304            120     1          2
                   211456            104     2          2
                   226304            120     1          3
                   211456            104     2          3
                    73408             26     1          4
                    69472             30     2          4
 @TRPS-I, Welcome to TRPS. Watch your RUs ! 
 @TRPS-I, Method is CCSD(T) 
 @TRPS-I, Calculation type is energy 
 @TRPS-I, Reference function information : 
          Reference function is Hartree-Fock 
          Reference function is RHF Hartree-Fock 
 @TRPS-I, INT1 is true 
 @TRPS-I, INT2 is false 
 @TRPS-I, Lengths of ijka integrals. #1      11008
                                     #2      11008
                                     #3      25600
                                     #4      25600
                                    Max      25600
 @INITRP-I, Initializing W intermediate lists. 
 @SETOOOV-I, Some OOOV lists are being transposed. 
 @TRPS-I, Available memory in integer words   1499959040
          Number of pre-allocated words for TRPS2       182377
          Number of free words for TRPS2   1499776663
 @TRPS2-I, Spin case AAB 
 @TRPS2-I, Number of free integer words 1499776663
           Number of free double  words 1499776663
           Ratio                                 1
 @TRPS2-I, E4TBAA      -0.017263684670
  @TRPS2-I, E4TAAA  -9.199314839172196E-004
 @TRPS2-I, E5ST A    0.000614420807270
 @TRPS2-I, E5ST B    0.000427934468602
 @SETOOOV-I, Some OOOV lists are being transposed. 
 @CCENRG-I, CCSD/QCISD energy will now be evaluated. 
 @CCENRG-I, Correlation energies. ECCAA       -0.067820689916
                                  ECCBB        0.000000000000
                                  ECCAB       -0.465285231156
                                  Total       -0.600926610988
 @CCENRG-I, Reference   energy    -163.908620555400
            CCSD/QCISD energy     -164.509547166388
          E4T (T(CCSD)) = -0.036367232307
          E5ST          =  0.002084710552
          E4ST          =  0.000000000000
          In other words  
          <T3[2](Dagger) D3  T3[2]> = -0.036367232307
          <T1   (Dagger) Q1 WT3[2]> =  0.002084710552
          <T2   (Dagger) Q2 FT3[2]> =  0.000000000000
        E(CCSD)           =    -164.509547166388
        E(CCSD + T(CCSD)) =    -164.545914398695
        E(CCSD(T))        =    -164.543829688143
  @CHECKOUT-I, Total execution time (CPU/WALL):       24.15/      35.02 seconds.
--executable xvcc finished with status     0 in       35.45 seconds (walltime).
  The final electronic energy is      -164.543829688143290 a.u. 
  This computation required                           73.36 seconds (walltime).
