 **********************************************************************
                          MRCC program system
 **********************************************************************
 
                              Written by
    Mihaly Kallay, Zoltan Rolik, Jozsef Csontos, Istvan Ladjanszki,
       Lorant Szegedy, Bence Ladoczki, Gyula Samu, Klara Petrov,
        Mate Farkas, Peter Nagy, David Mester, and Bence Hegely
 
        Department of Physical Chemistry and Materials Science
            Budapest University of Technology and Economics
                  Budapest P.O.Box 91, H-1521 Hungary
 
                              www.mrcc.hu

 ************************ 2018-01-24 03:15:05 *************************
 Executing minp...

 Reading input from MINP...
 
 Input file:
 
# TITLE
basis=aCVDZ-EMSL
#iface=cfour
uncontract=off
calc=CC(5)(6)
mem=490GB
core=corr
cctol=7
scftol=10
itol=18
ccmaxit=999
scfmaxit=9999
scftype=RHF
scfiguess=ao
rest=2
mult=1
geom
C
C 1 R

R=1.24253

unit=angstrom

 
 
 Checking keyword combinations...
 
 Keywords:
 
 active=none
 agrid=ld0006-ld0590
 basis=acvdz-emsl
 basopt=off
 bpcompo=0.985
 bpcompv=0.98
 bpdfo=0.985
 bpocc=0.985
 bppdo=0.985
 bppdv=0.98
 bpedo=0.985
 bpedv=0.98
 calc=cc(5)(6)
 ccmaxit=999
 ccprog=mrcc
 cctol=7
 charge=0
 cialg=disk
 ciguess=off
 cmpgrp=auto
 core=corr
 corembed=off
 dboc=off
 dendec=cholesky
 dens=0
 dfalg=invsqrt
 dfbasis_cor=none
 dfbasis_scf=none
 dfintran=ovirt
 dft=off
 diag=david
 domrad=10.d0
 drpaalg=fit
 ecp=auto
 edisp=off
 embed=off
 epert=none
 eps=0.975
 excrad=0.d0
 excrad_fin=0.000000000D+00
 freq=off
 gauss=spher
 geom=zmat
 gopt=off
 ghost=none
 gtol=7
 grtol=10
 hamilton=dc
 iface=none
 intalg=auto
 itol=18
 lcorthr=loose
 lccrest=off
 lmp2dens=on
 lnoepso=3e-5
 lnoepsv=1e-6
 localcc=off
 locintrf=disk
 maxact=off
 maxex=0
 bfbasis=none
 mem=490gb
 molden=on
 mulmet=0
 mult=1
 nacto=0
 nactv=0
 naf_cor=off
 naf_scf=off
 nafalg=albe
 naftyp=
 nchol=auto
 ndeps=1e-3
 nstate=1
 nsing=0
 ntrip=0
 occ=
 optalg=
 optmaxit=50
 optetol=1e-6
 optgtol=1e-4
 optstol=1e-3
 orblocc=off
 orbloco=off
 orblocv=off
 osveps=1e-3
 ovirt=off
 ovosnorb=80.0
 ptfreq=0.0
 popul=off
 pressure=100000
 qmmm=off
 refdet=none
 rest=2
 rgrid=log3
 rohftype=semicanonical
 scspe=1.d0
 scsps=1.2d0
 scspt=0.33333333333333
 scfalg=auto
 scfdamp=off
 scfdiis=on
 scfdiis_end=9999
 scfdiis_start=1
 scfdiis_step=1
 scfdtol=14
 scfext=10
 scfiguess=ao
 scflshift=off
 scfmaxit=9999
 scftype=rhf
 scftol=10
 spairtol=1e-4
 symm=
 talg=occ
 temp=298.15
 test=off
 tprint=off
 uncontract=off
 unit=angs
 verbosity=2
 wpairtol=0.100000000E-05

 ************************ 2018-01-24 03:15:05 *************************
 Executing integ...

 Allocation of 490.0 Gbytes of memory...
 
 Number of atoms:            2
 Charge:                     0
 Number of electrons:       12
 Number of core electrons:   4
 Spin multiplicity:          1
 
                 Cartesian coordinates [bohr]      Atomic mass [AMU]  Z
   1  C     0.00000000    0.00000000    0.00000000    12.000000       6
   2  C     2.34804140    0.00000000    0.00000000    12.000000       6
 
 This molecule is linear.
 
 Rotational constants [cm-1]: 
      1.819832767313
 
 Point group: Dxh 
 Computational point group: D2h 
 
 Cartesian coordinates in standard orientation [bohr]
   1  C     0.00000000    0.00000000   -1.17402070
   2  C     0.00000000    0.00000000    1.17402070
 
 Nuclear repulsion energy [au]:         15.331927264629
 
 
 Basis set information:
 
 Maximum angular momentum: d
 Maximum number of contracted Gaussians:    5
 Maximum number of primitive Gaussians:    11
 Spherical harmonic GTOs are used.
 
    1  C  acvdz-emsl [ 11s 6p 2d | 5s 4p 2d ]
    2  C  acvdz-emsl [ 11s 6p 2d | 5s 4p 2d ]
 
 Total number of basis functions:    54
 
 
 Character table for point group D2h:
 
          E  C2z C2y C2x  i  Qxy Qxz Qyz 
    Ag    1   1   1   1   1   1   1   1
    B1g   1   1  -1  -1   1   1  -1  -1
    B2g   1  -1   1  -1   1  -1   1  -1
    B3g   1  -1  -1   1   1  -1  -1   1
    Au    1   1   1   1  -1  -1  -1  -1
    B1u   1   1  -1  -1  -1  -1   1   1
    B2u   1  -1   1  -1  -1   1  -1   1
    B3u   1  -1  -1   1  -1   1   1  -1
 
 Number of basis functions per irrep:
    Ag     13
    B1g     2
    B2g     6
    B3g     6
    Au      2
    B1u    13
    B2u     6
    B3u     6
 
 
 Calculation of overlap integrals...
 CPU time [min]:     0.009                   Wall time [min]:     0.003
 Calculation of kinetic energy integrals...
 CPU time [min]:     0.122                   Wall time [min]:     0.007
 Calculation of nuclear attraction integrals...
 CPU time [min]:     0.125                   Wall time [min]:     0.007
 
 Calculation of prescreening integrals...
 CPU time [min]:     0.140                   Wall time [min]:     0.007
 
 Calculation of two-electron integrals...
   1% done.
  13% done.
  44% done.
 100% done.
 CPU time [min]:     0.365                   Wall time [min]:     0.016

 ************************ 2018-01-24 03:15:06 *************************
 Executing scf...

 Allocation of 490.0 Gbytes of memory...
 ======================================================================
 ITERATION STEP   1
 CPU time [min]:     0.087                   Wall time [min]:     0.006
 
 ALPHA OCC:   2   0   0   0   0   2   1   1
 BETA  OCC:   2   0   0   0   0   2   1   1
 ***HARTREE-FOCK ENERGY IN STEP   1 IS     -74.4182444530258635 [AU]
 ======================================================================
 ITERATION STEP   2
 CPU time [min]:     0.192                   Wall time [min]:     0.010
 
 ALPHA OCC:   2   0   0   0   0   2   1   1
 BETA  OCC:   2   0   0   0   0   2   1   1
 ***HARTREE-FOCK ENERGY IN STEP   2 IS     -75.3662725582829864 [AU]
 ======================================================================
 ITERATION STEP   3
 CPU time [min]:     0.212                   Wall time [min]:     0.010
 
 ALPHA OCC:   2   0   0   0   0   2   1   1
 BETA  OCC:   2   0   0   0   0   2   1   1
 ***HARTREE-FOCK ENERGY IN STEP   3 IS     -75.3852473262616627 [AU]
 ======================================================================
 ITERATION STEP   4
 CPU time [min]:     0.234                   Wall time [min]:     0.011
 
 ALPHA OCC:   2   0   0   0   0   2   1   1
 BETA  OCC:   2   0   0   0   0   2   1   1
 ***HARTREE-FOCK ENERGY IN STEP   4 IS     -75.3881912232409945 [AU]
 ======================================================================
 ITERATION STEP   5
 CPU time [min]:     0.254                   Wall time [min]:     0.012
 
 ALPHA OCC:   2   0   0   0   0   2   1   1
 BETA  OCC:   2   0   0   0   0   2   1   1
 ***HARTREE-FOCK ENERGY IN STEP   5 IS     -75.3886269032493885 [AU]
 ======================================================================
 ITERATION STEP   6
 CPU time [min]:     0.273                   Wall time [min]:     0.013
 
 ALPHA OCC:   2   0   0   0   0   2   1   1
 BETA  OCC:   2   0   0   0   0   2   1   1
 ***HARTREE-FOCK ENERGY IN STEP   6 IS     -75.3886282987223524 [AU]
 ======================================================================
 ITERATION STEP   7
 CPU time [min]:     0.293                   Wall time [min]:     0.013
 
 ALPHA OCC:   2   0   0   0   0   2   1   1
 BETA  OCC:   2   0   0   0   0   2   1   1
 ***HARTREE-FOCK ENERGY IN STEP   7 IS     -75.3886283166064999 [AU]
 ======================================================================
 ITERATION STEP   8
 CPU time [min]:     0.313                   Wall time [min]:     0.014
 
 ALPHA OCC:   2   0   0   0   0   2   1   1
 BETA  OCC:   2   0   0   0   0   2   1   1
 ***HARTREE-FOCK ENERGY IN STEP   8 IS     -75.3886283169233309 [AU]
 ======================================================================
 ITERATION STEP   9
 CPU time [min]:     0.333                   Wall time [min]:     0.015
 
 ALPHA OCC:   2   0   0   0   0   2   1   1
 BETA  OCC:   2   0   0   0   0   2   1   1
 ***HARTREE-FOCK ENERGY IN STEP   9 IS     -75.3886283169544953 [AU]
 ======================================================================
 ITERATION STEP  10
 CPU time [min]:     0.353                   Wall time [min]:     0.016
 
 ALPHA OCC:   2   0   0   0   0   2   1   1
 BETA  OCC:   2   0   0   0   0   2   1   1
 ***HARTREE-FOCK ENERGY IN STEP  10 IS     -75.3886283169550495 [AU]
 ======================================================================
 ITERATION STEP  11
 CPU time [min]:     0.372                   Wall time [min]:     0.016
 
 ALPHA OCC:   2   0   0   0   0   2   1   1
 BETA  OCC:   2   0   0   0   0   2   1   1
 ***HARTREE-FOCK ENERGY IN STEP  11 IS     -75.3886283169550495 [AU]
 ======================================================================
 ITERATION STEP  12
 CPU time [min]:     0.392                   Wall time [min]:     0.017
 
 ALPHA OCC:   2   0   0   0   0   2   1   1
 BETA  OCC:   2   0   0   0   0   2   1   1
 ***HARTREE-FOCK ENERGY IN STEP  12 IS     -75.3886283169550495 [AU]
 ======================================================================
 
 SUCCESS...
 THE SCF ITERATION HAS CONVERGED!
 
                   Ag  B1g B2g B3g Au  B1u B2u B3u 
 FINAL ALPHA OCC:   2   0   0   0   0   2   1   1
 FINAL BETA  OCC:   2   0   0   0   0   2   1   1
 
 ***FINAL HARTREE-FOCK ENERGY:    -75.3886283169550495 [AU]
 
 RETURNING FROM SCF ALGORITHM
 ======================================================================

 ************************ 2018-01-24 03:15:08 *************************
 Executing ovirt...

 ovirt, the routine of orbital optimization and integral transformation 
Wed Jan 24 03:15:08 EST 2018
 Allocated memory:                  501760  Mb
 RHF calculation! 
 integral transforamtion: AOs ------ MOs
 # of basis functions, # of int. blocks    54     1
100 % 
 second part
100 %
 integral transformation is completed! 
CPU and WC time          21.15           1.97     AOs -> MOs 
Integrals are written to fort.55
Wed Jan 24 03:15:13 EST 2018
  ovirt terminated normally 

 ************************ 2018-01-24 03:15:17 *************************
 Executing goldstone...

 Generation of CC equations in terms of H and T...
 Generation of antisymmetrized Goldstone diagrams...
 Number of diagrams in T^1 equations:    15
 Number of diagrams in T^2 equations:    38
 Number of diagrams in T^3 equations:    54
 Number of diagrams in T^4 equations:    81
 Number of diagrams in T^5 equations:   101
 Number of diagrams in T^6 equations:    14
 Translation of diagrams to factorized equations...
 Optimizing intermediate calculation...
 Number of floating-point operations per iteration step:   8.3915E+14
 Probable CPU time per iteration step (hours):   8391.49
 Required memory (Mbytes):  816910.4
 Number of intermediates:                                 162
 Number of intermediates to be stored:                     70
 Length of intermediate file (Mbytes):   89802.0

 ************************ 2018-01-24 03:15:20 *************************
 Executing xmrcc...

 **********************************************************************
 CC(5)(6) calculation 
 
 
 Allocation of****** Mbytes of memory...
 Number of spinorbitals:                   108
 Number of alpha electrons:                        6
 Number of beta electrons:                         6
 Spin multiplicity:                     1
 z-component of spin:  0.0
 Spatial symmetry:                      1
 Convergence criterion:  1.0E-07
 Construction of occupation graphs...
 Number of                     0 -fold excitations:                      1
 Number of                     1 -fold excitations:                    108
 Number of                     2 -fold excitations:                  16302
 Number of                     3 -fold excitations:                1329540
 Number of                     4 -fold excitations:               61541328
 Number of                     5 -fold excitations:             1675802912
 Total number of configurations:             1738690191
 Calculation of coupling coefficients...
 Length of intermediate file (Mbytes):   51028.8
 
 ======================================================================
 
 Spin case  1   Alpha:  0   Beta:  6
 Number of excitations:                1536975
 Spin case  2   Alpha:  1   Beta:  5
 Number of excitations:              369988652
 Spin case  3   Alpha:  2   Beta:  4
 Number of excitations:             6172313564
 Spin case  4   Alpha:  3   Beta:  3
 Number of excitations:            14957603376
 Number of                     6 -fold excitations:            28045281758
 
 Memory requirements /Mbyte/: 
               Minimal        Optimal
 Real*8:     409431.2680    409431.2680
 Integer:      1153.2316
 Total:      410584.4996    410584.4996
 

 ************************ 2018-01-24 03:16:33 *************************
 Executing goldstone...

 Generation of CC equations in terms of H and T...
 Generation of antisymmetrized Goldstone diagrams...
 Number of diagrams in T^1 equations:    15
 Number of diagrams in T^2 equations:    33
 Number of diagrams in T^3 equations:     2
 Translation of diagrams to factorized equations...
 Optimizing intermediate calculation...
 Number of floating-point operations per iteration step:   5.7413E+08
 Probable CPU time per iteration step (hours):      0.01
 Required memory (Mbytes):     713.0
 Number of intermediates:                                  48
 Number of intermediates to be stored:                     20
 Length of intermediate file (Mbytes):      16.5

 ************************ 2018-01-24 03:16:34 *************************
 Executing xmrcc...

 **********************************************************************
 CC(2)(3) calculation 
 
 
 Allocation of 713.0 Mbytes of memory...
 Number of spinorbitals:                   108
 Number of alpha electrons:                        6
 Number of beta electrons:                         6
 Spin multiplicity:                     1
 z-component of spin:  0.0
 Spatial symmetry:                      1
 Convergence criterion:  1.0E-07
 Construction of occupation graphs...
 Number of                     0 -fold excitations:                      1
 Number of                     1 -fold excitations:                    108
 Number of                     2 -fold excitations:                  16302
 Total number of configurations:                  16411
 Calculation of coupling coefficients...
 Length of intermediate file (Mbytes):      13.3
 
 ======================================================================
 
 Spin case  1   Alpha:  0   Beta:  3
 Number of excitations:                  43236
 Spin case  2   Alpha:  1   Beta:  2
 Number of excitations:                 621534
 Number of                     3 -fold excitations:                1329540
 
 Memory requirements /Mbyte/: 
               Minimal        Optimal
 Real*8:         24.2329        81.1843
 Integer:         3.6035
 Total:          27.8364        84.7878
 

 ************************ 2018-01-24 03:16:35 *************************
 Executing mrcc...

 **********************************************************************
 CCSD(T) calculation                                                    
 
 
 OpenMP parallel version is running.
 Number of CPUs:  28
 Allocation of   81.2 Mbytes of memory...
 Number of spinorbitals: 108
 Number of alpha electrons:  6
 Number of beta  electrons:  6
 Spin multiplicity: 1
 z-component of spin:  0.0
 Spatial symmetry: 1
 Convergence criterion:  1.0E-07
 Construction of occupation graphs...
 Number of 0-fold excitations: 1
 Number of 1-fold excitations: 108
 Number of 2-fold excitations: 16302
 Total number of determinants: 16411
 Calculation of coupling coefficients...
 Initial cluster amplitudes are generated.
 Length of intermediate file (Mbytes):      13.3
 Reading integral list from unit 55...
 Sorting integrals...
 Energy of reference determinant [au]:     -75.388628316955
 Calculation of MP denominators...
 
 Starting CC iteration...
 ======================================================================
 Norm of residual vector:     2.17450337
 CPU time [min]:     1.009                   Wall time [min]:     0.041
 
 Iteration  1  CC energy:   -75.77864601  Energy decrease:   0.39001769
 ======================================================================
 Norm of residual vector:     0.30720836
 CPU time [min]:     1.470                   Wall time [min]:     0.058
 
 Iteration  2  CC energy:   -75.74565247  Energy decrease:   0.03299354
 ======================================================================
 Norm of residual vector:     0.09648106
 CPU time [min]:     1.861                   Wall time [min]:     0.072
 
 Iteration  3  CC energy:   -75.76941711  Energy decrease:   0.02376464
 ======================================================================
 Norm of residual vector:     0.04288633
 CPU time [min]:     2.276                   Wall time [min]:     0.088
 
 Iteration  4  CC energy:   -75.77819370  Energy decrease:   0.00877659
 ======================================================================
 Norm of residual vector:     0.01771635
 CPU time [min]:     2.618                   Wall time [min]:     0.100
 
 Iteration  5  CC energy:   -75.78049564  Energy decrease:   0.00230194
 ======================================================================
 Norm of residual vector:     0.00532774
 CPU time [min]:     3.069                   Wall time [min]:     0.117
 
 Iteration  6  CC energy:   -75.78089572  Energy decrease:   0.00040008
 ======================================================================
 Norm of residual vector:     0.00115854
 CPU time [min]:     3.439                   Wall time [min]:     0.131
 
 Iteration  7  CC energy:   -75.78086772  Energy decrease:   0.00002800
 ======================================================================
 Norm of residual vector:     0.00052382
 CPU time [min]:     3.814                   Wall time [min]:     0.145
 
 Iteration  8  CC energy:   -75.78088549  Energy decrease:   0.00001777
 ======================================================================
 Norm of residual vector:     0.00029658
 CPU time [min]:     4.245                   Wall time [min]:     0.161
 
 Iteration  9  CC energy:   -75.78089905  Energy decrease:   0.00001355
 ======================================================================
 Norm of residual vector:     0.00012661
 CPU time [min]:     4.673                   Wall time [min]:     0.177
 
 Iteration 10  CC energy:   -75.78089613  Energy decrease:   0.00000292
 ======================================================================
 Norm of residual vector:     0.00004118
 CPU time [min]:     5.430                   Wall time [min]:     0.210
 
 Iteration 11  CC energy:   -75.78089974  Energy decrease:   0.00000361
 ======================================================================
 Norm of residual vector:     0.00001182
 CPU time [min]:     5.885                   Wall time [min]:     0.227
 
 Iteration 12  CC energy:   -75.78089992  Energy decrease:   0.00000018
 ======================================================================
 Norm of residual vector:     0.00000349
 CPU time [min]:     6.346                   Wall time [min]:     0.244
 
 Iteration 13  CC energy:   -75.78089972  Energy decrease:   0.00000019
 ======================================================================
 Norm of residual vector:     0.00000094
 CPU time [min]:     6.689                   Wall time [min]:     0.257
 
 Iteration 14  CC energy:   -75.78089979  Energy decrease:   0.00000007
 ======================================================================
 Norm of residual vector:     0.00000026
 CPU time [min]:     7.119                   Wall time [min]:     0.273
 
 Iteration 15  CC energy:   -75.78089980  Energy decrease:   0.00000001
 ======================================================================
 Norm of residual vector:     0.00000007
 CPU time [min]:     7.497                   Wall time [min]:     0.287
 
 Iteration 16  CC energy:   -75.78089979  Energy decrease:   3.4330E-09
 ======================================================================
 
 Iteration has converged in 16 steps.
 
 Final results:
 Total CCSD energy [au]:             -75.780899794441
 Total MP2 energy [au]:              -75.778646008350
 
 Perturbative corrections are calculated...
 ======================================================================
 Spin case  1   Alpha:  0   Beta:  3
 Number of excitations:        43236
 CPU time [min]:     7.610                   Wall time [min]:     0.292
 ======================================================================
 Spin case  2   Alpha:  1   Beta:  2
 Number of excitations:        621534
 CPU time [min]:     7.731                   Wall time [min]:     0.296
 ======================================================================
 Number of 3-fold excitations: 1329540
 CPU time [min]:     7.731                   Wall time [min]:     0.296
 
 Total CCSD[T] energy [au]:          -75.814589495331
 Total CCSD(T) energy [au]:          -75.810537217695

 ************************ 2018-01-24 03:16:54 *************************
 Executing goldstone...

 Generation of CC equations in terms of H and T...
 Generation of antisymmetrized Goldstone diagrams...
 Number of diagrams in T^1 equations:    15
 Number of diagrams in T^2 equations:    38
 Number of diagrams in T^3 equations:    49
 Number of diagrams in T^4 equations:     5
 Translation of diagrams to factorized equations...
 Optimizing intermediate calculation...
 Number of floating-point operations per iteration step:   1.2272E+11
 Probable CPU time per iteration step (hours):      1.23
 Required memory (Mbytes):    1568.2
 Number of intermediates:                                  80
 Number of intermediates to be stored:                     31
 Length of intermediate file (Mbytes):      31.9

 ************************ 2018-01-24 03:16:55 *************************
 Executing xmrcc...

 **********************************************************************
 CC(3)(4) calculation 
 
 
 Allocation of1568.2 Mbytes of memory...
 Number of spinorbitals:                   108
 Number of alpha electrons:                        6
 Number of beta electrons:                         6
 Spin multiplicity:                     1
 z-component of spin:  0.0
 Spatial symmetry:                      1
 Convergence criterion:  1.0E-07
 Construction of occupation graphs...
 Number of                     0 -fold excitations:                      1
 Number of                     1 -fold excitations:                    108
 Number of                     2 -fold excitations:                  16302
 Number of                     3 -fold excitations:                1329540
 Total number of configurations:                1345951
 Calculation of coupling coefficients...
 Length of intermediate file (Mbytes):      24.5
 
 ======================================================================
 
 Spin case  1   Alpha:  0   Beta:  4
 Number of excitations:                 363887
 Spin case  2   Alpha:  1   Beta:  3
 Number of excitations:               12453640
 Spin case  3   Alpha:  2   Beta:  2
 Number of excitations:               35906274
 Number of                     4 -fold excitations:               61541328
 
 Memory requirements /Mbyte/: 
               Minimal        Optimal
 Real*8:        142.8584       168.3290
 Integer:         8.0641
 Total:         150.9225       176.3932
 

 ************************ 2018-01-24 03:16:56 *************************
 Executing mrcc...

 **********************************************************************
 CCSDT(Q) calculation                                                   
 
 
 OpenMP parallel version is running.
 Number of CPUs:  28
 Allocation of  168.3 Mbytes of memory...
 Number of spinorbitals: 108
 Number of alpha electrons:  6
 Number of beta  electrons:  6
 Spin multiplicity: 1
 z-component of spin:  0.0
 Spatial symmetry: 1
 Convergence criterion:  1.0E-07
 Construction of occupation graphs...
 Number of 0-fold excitations: 1
 Number of 1-fold excitations: 108
 Number of 2-fold excitations: 16302
 Number of 3-fold excitations: 1329540
 Total number of determinants: 1345951
 Calculation of coupling coefficients...
 Initial cluster amplitudes are read from unit 16.
 Length of intermediate file (Mbytes):      24.5
 Reading integral list from unit 55...
 Sorting integrals...
 Energy of reference determinant [au]:     -75.388628316955
 Calculation of MP denominators...
 
 Starting CC iteration...
 ======================================================================
 Norm of residual vector:     0.36165321
 CPU time [min]:     3.528                   Wall time [min]:     0.131
 
 Iteration  1  CC energy:   -75.78089979  Energy decrease:   1.5622E-10
 ======================================================================
 Norm of residual vector:     0.09759273
 CPU time [min]:     7.119                   Wall time [min]:     0.265
 
 Iteration  2  CC energy:   -75.80053022  Energy decrease:   0.01963043
 ======================================================================
 Norm of residual vector:     0.04333382
 CPU time [min]:    10.895                   Wall time [min]:     0.405
 
 Iteration  3  CC energy:   -75.80306252  Energy decrease:   0.00253230
 ======================================================================
 Norm of residual vector:     0.01741029
 CPU time [min]:    12.746                   Wall time [min]:     0.472
 
 Iteration  4  CC energy:   -75.80600761  Energy decrease:   0.00294509
 ======================================================================
 Norm of residual vector:     0.00994244
 CPU time [min]:    16.623                   Wall time [min]:     0.615
 
 Iteration  5  CC energy:   -75.80803765  Energy decrease:   0.00203004
 ======================================================================
 Norm of residual vector:     0.00550265
 CPU time [min]:    21.916                   Wall time [min]:     0.876
 
 Iteration  6  CC energy:   -75.80869577  Energy decrease:   0.00065812
 ======================================================================
 Norm of residual vector:     0.00303271
 CPU time [min]:    26.747                   Wall time [min]:     1.055
 
 Iteration  7  CC energy:   -75.80900485  Energy decrease:   0.00030908
 ======================================================================
 Norm of residual vector:     0.00199194
 CPU time [min]:    32.814                   Wall time [min]:     1.288
 
 Iteration  8  CC energy:   -75.80905377  Energy decrease:   0.00004892
 ======================================================================
 Norm of residual vector:     0.00126260
 CPU time [min]:    37.130                   Wall time [min]:     1.449
 
 Iteration  9  CC energy:   -75.80902825  Energy decrease:   0.00002552
 ======================================================================
 Norm of residual vector:     0.00058524
 CPU time [min]:    42.319                   Wall time [min]:     1.650
 
 Iteration 10  CC energy:   -75.80902369  Energy decrease:   0.00000456
 ======================================================================
 Norm of residual vector:     0.00020809
 CPU time [min]:    47.300                   Wall time [min]:     1.839
 
 Iteration 11  CC energy:   -75.80901775  Energy decrease:   0.00000594
 ======================================================================
 Norm of residual vector:     0.00006888
 CPU time [min]:    52.777                   Wall time [min]:     2.052
 
 Iteration 12  CC energy:   -75.80901523  Energy decrease:   0.00000252
 ======================================================================
 Norm of residual vector:     0.00002145
 CPU time [min]:    58.213                   Wall time [min]:     2.255
 
 Iteration 13  CC energy:   -75.80901477  Energy decrease:   0.00000045
 ======================================================================
 Norm of residual vector:     0.00000789
 CPU time [min]:    62.836                   Wall time [min]:     2.427
 
 Iteration 14  CC energy:   -75.80901466  Energy decrease:   0.00000011
 ======================================================================
 Norm of residual vector:     0.00000327
 CPU time [min]:    66.806                   Wall time [min]:     2.575
 
 Iteration 15  CC energy:   -75.80901458  Energy decrease:   0.00000009
 ======================================================================
 Norm of residual vector:     0.00000144
 CPU time [min]:    71.728                   Wall time [min]:     2.758
 
 Iteration 16  CC energy:   -75.80901452  Energy decrease:   0.00000006
 ======================================================================
 Norm of residual vector:     0.00000059
 CPU time [min]:    76.184                   Wall time [min]:     2.925
 
 Iteration 17  CC energy:   -75.80901451  Energy decrease:   0.00000001
 ======================================================================
 Norm of residual vector:     0.00000021
 CPU time [min]:    81.475                   Wall time [min]:     3.122
 
 Iteration 18  CC energy:   -75.80901451  Energy decrease:   3.2475E-10
 ======================================================================
 Norm of residual vector:     0.00000007
 CPU time [min]:    86.999                   Wall time [min]:     3.328
 
 Iteration 19  CC energy:   -75.80901451  Energy decrease:   1.3184E-09
 ======================================================================
 
 Iteration has converged in 19 steps.
 
 Final results:
 Total CCSDT energy [au]:            -75.809014510306
 
 Perturbative corrections are calculated...
 ======================================================================
 Spin case  1   Alpha:  0   Beta:  4
 Number of excitations:        363887
 CPU time [min]:    88.333                   Wall time [min]:     3.378
 ======================================================================
 Spin case  2   Alpha:  1   Beta:  3
 Number of excitations:        12453640
 CPU time [min]:    95.019                   Wall time [min]:     3.654
 ======================================================================
 Spin case  3   Alpha:  2   Beta:  2
 Number of excitations:        35906274
 CPU time [min]:   107.642                   Wall time [min]:     4.174
 ======================================================================
 Number of 4-fold excitations: 61541328
 CPU time [min]:   107.642                   Wall time [min]:     4.174
 
 Total CCSDT[Q] energy [au]:         -75.811738007288
 Total CCSDT(Q) energy [au]:         -75.813730557000

 ************************ 2018-01-24 03:21:07 *************************
 Executing goldstone...

 Generation of CC equations in terms of H and T...
 Generation of antisymmetrized Goldstone diagrams...
 Number of diagrams in T^1 equations:    15
 Number of diagrams in T^2 equations:    38
 Number of diagrams in T^3 equations:    54
 Number of diagrams in T^4 equations:    76
 Number of diagrams in T^5 equations:     8
 Translation of diagrams to factorized equations...
 Optimizing intermediate calculation...
 Number of floating-point operations per iteration step:   1.1043E+13
 Probable CPU time per iteration step (hours):    110.43
 Required memory (Mbytes):   46167.6
 Number of intermediates:                                 118
 Number of intermediates to be stored:                     51
 Length of intermediate file (Mbytes):    2036.1

 ************************ 2018-01-24 03:21:09 *************************
 Executing xmrcc...

 **********************************************************************
 CC(4)(5) calculation 
 
 
 Allocation of****** Mbytes of memory...
 Number of spinorbitals:                   108
 Number of alpha electrons:                        6
 Number of beta electrons:                         6
 Spin multiplicity:                     1
 z-component of spin:  0.0
 Spatial symmetry:                      1
 Convergence criterion:  1.0E-07
 Construction of occupation graphs...
 Number of                     0 -fold excitations:                      1
 Number of                     1 -fold excitations:                    108
 Number of                     2 -fold excitations:                  16302
 Number of                     3 -fold excitations:                1329540
 Number of                     4 -fold excitations:               61541328
 Total number of configurations:               62887279
 Calculation of coupling coefficients...
 Length of intermediate file (Mbytes):    1258.4
 
 ======================================================================
 
 Spin case  1   Alpha:  0   Beta:  5
 Number of excitations:                1285966
 Spin case  2   Alpha:  1   Beta:  4
 Number of excitations:              104995030
 Spin case  3   Alpha:  2   Beta:  3
 Number of excitations:              731620460
 Number of                     5 -fold excitations:             1675802912
 
 Memory requirements /Mbyte/: 
               Minimal        Optimal
 Real*8:      14306.3218     14306.3218
 Integer:        81.8063
 Total:       14388.1280     14388.1280
 

 ************************ 2018-01-24 03:21:20 *************************
 Executing mrcc...

 **********************************************************************
 CCSDTQ(P) calculation                                                  
 
 
 OpenMP parallel version is running.
 Number of CPUs:  28
 Allocation of14306.3 Mbytes of memory...
 Number of spinorbitals: 108
 Number of alpha electrons:  6
 Number of beta  electrons:  6
 Spin multiplicity: 1
 z-component of spin:  0.0
 Spatial symmetry: 1
 Convergence criterion:  1.0E-07
 Construction of occupation graphs...
 Number of 0-fold excitations: 1
 Number of 1-fold excitations: 108
 Number of 2-fold excitations: 16302
 Number of 3-fold excitations: 1329540
 Number of 4-fold excitations: 61541328
 Total number of determinants: 62887279
 Calculation of coupling coefficients...
 Initial cluster amplitudes are read from unit 16.
 Length of intermediate file (Mbytes):    1258.4
 Reading integral list from unit 55...
 Sorting integrals...
 Energy of reference determinant [au]:     -75.388628316955
 Calculation of MP denominators...
 
 Starting CC iteration...
 ======================================================================
 Norm of residual vector:     0.13358687
 CPU time [min]:   263.408                   Wall time [min]:    36.345
 
 Iteration  1  CC energy:   -75.80901451  Energy decrease:   8.0533E-10
 ======================================================================
 Norm of residual vector:     0.03446858
 CPU time [min]:   517.517                   Wall time [min]:    71.563
 
 Iteration  2  CC energy:   -75.80961416  Energy decrease:   0.00059965
 ======================================================================
 Norm of residual vector:     0.01691150
 CPU time [min]:   775.064                   Wall time [min]:   106.599
 
 Iteration  3  CC energy:   -75.81152225  Energy decrease:   0.00190809
 ======================================================================
 Norm of residual vector:     0.00702881
 CPU time [min]:  1095.071                   Wall time [min]:   138.496
 
 Iteration  4  CC energy:   -75.81147693  Energy decrease:   0.00004533
 ======================================================================
 Norm of residual vector:     0.00251002
 CPU time [min]:  1356.772                   Wall time [min]:   159.732
 
 Iteration  5  CC energy:   -75.81183684  Energy decrease:   0.00035992
 ======================================================================
 Norm of residual vector:     0.00122299
 CPU time [min]:  1596.560                   Wall time [min]:   181.516
 
 Iteration  6  CC energy:   -75.81191226  Energy decrease:   0.00007541
 ======================================================================
 Norm of residual vector:     0.00066158
 CPU time [min]:  1873.981                   Wall time [min]:   203.837
 
 Iteration  7  CC energy:   -75.81197945  Energy decrease:   0.00006720
 ======================================================================
 Norm of residual vector:     0.00031623
 CPU time [min]:  2141.942                   Wall time [min]:   225.061
 
 Iteration  8  CC energy:   -75.81200463  Energy decrease:   0.00002518
 ======================================================================
 Norm of residual vector:     0.00014822
 CPU time [min]:  2425.813                   Wall time [min]:   248.124
 
 Iteration  9  CC energy:   -75.81201182  Energy decrease:   0.00000719
 ======================================================================
 Norm of residual vector:     0.00008306
 CPU time [min]:  2714.598                   Wall time [min]:   269.839
 
 Iteration 10  CC energy:   -75.81201772  Energy decrease:   0.00000590
 ======================================================================
 Norm of residual vector:     0.00005999
 CPU time [min]:  2966.524                   Wall time [min]:   290.275
 
 Iteration 11  CC energy:   -75.81202170  Energy decrease:   0.00000398
 ======================================================================
 Norm of residual vector:     0.00004449
 CPU time [min]:  3266.234                   Wall time [min]:   314.892
 
 Iteration 12  CC energy:   -75.81202271  Energy decrease:   0.00000101
 ======================================================================
 Norm of residual vector:     0.00002626
 CPU time [min]:  3543.259                   Wall time [min]:   337.011
 
 Iteration 13  CC energy:   -75.81202279  Energy decrease:   0.00000008
 ======================================================================
 Norm of residual vector:     0.00001324
 CPU time [min]:  3813.531                   Wall time [min]:   359.942
 
 Iteration 14  CC energy:   -75.81202198  Energy decrease:   0.00000080
 ======================================================================
 Norm of residual vector:     0.00000646
 CPU time [min]:  4106.614                   Wall time [min]:   384.969
 
 Iteration 15  CC energy:   -75.81202153  Energy decrease:   0.00000046
 ======================================================================
 Norm of residual vector:     0.00000303
 CPU time [min]:  4362.732                   Wall time [min]:   405.469
 
 Iteration 16  CC energy:   -75.81202136  Energy decrease:   0.00000017
 ======================================================================
 Norm of residual vector:     0.00000132
 CPU time [min]:  4649.872                   Wall time [min]:   429.013
 
 Iteration 17  CC energy:   -75.81202133  Energy decrease:   0.00000003
 ======================================================================
 Norm of residual vector:     0.00000056
 CPU time [min]:  4890.455                   Wall time [min]:   450.498
 
 Iteration 18  CC energy:   -75.81202134  Energy decrease:   3.0548E-09
 ======================================================================
 Norm of residual vector:     0.00000025
 CPU time [min]:  5143.824                   Wall time [min]:   473.581
 
 Iteration 19  CC energy:   -75.81202134  Energy decrease:   2.6370E-09
 ======================================================================
 Norm of residual vector:     0.00000011
 CPU time [min]:  5433.729                   Wall time [min]:   500.179
 
 Iteration 20  CC energy:   -75.81202134  Energy decrease:   2.3895E-09
 ======================================================================
 Norm of residual vector:     0.00000004
 CPU time [min]:  5675.450                   Wall time [min]:   518.707
 
 Iteration 21  CC energy:   -75.81202134  Energy decrease:   2.3680E-10
 ======================================================================
 
 Iteration has converged in 21 steps.
 
 Final results:
 Total CCSDTQ energy [au]:           -75.812021340280
 
 Perturbative corrections are calculated...
 ======================================================================
 Spin case  1   Alpha:  0   Beta:  5
 Number of excitations:        1285966
 CPU time [min]:  5697.821                   Wall time [min]:   520.376
 ======================================================================
 Spin case  2   Alpha:  1   Beta:  4
 Number of excitations:        104995030
 CPU time [min]:  5993.038                   Wall time [min]:   534.295
 ======================================================================
 Spin case  3   Alpha:  2   Beta:  3
 Number of excitations:        731620460
 CPU time [min]:  7182.498                   Wall time [min]:   587.716
 ======================================================================
 Number of 5-fold excitations: 1675802912
 CPU time [min]:  7184.751                   Wall time [min]:   589.447
 
 Total CCSDTQ[P] energy [au]:        -75.812812016150
 Total CCSDTQ(P) energy [au]:        -75.812812016150

 ************************ 2018-01-24 13:11:07 *************************
 Executing goldstone...

 Generation of CC equations in terms of H and T...
 Generation of antisymmetrized Goldstone diagrams...
 Number of diagrams in T^1 equations:    15
 Number of diagrams in T^2 equations:    38
 Number of diagrams in T^3 equations:    54
 Number of diagrams in T^4 equations:    81
 Number of diagrams in T^5 equations:   101
 Number of diagrams in T^6 equations:    14
 Translation of diagrams to factorized equations...
 Optimizing intermediate calculation...
 Number of floating-point operations per iteration step:   8.3915E+14
 Probable CPU time per iteration step (hours):   8391.49
 Required memory (Mbytes):  816910.4
 Number of intermediates:                                 162
 Number of intermediates to be stored:                     70
 Length of intermediate file (Mbytes):   89802.0

 ************************ 2018-01-24 13:11:10 *************************
 Executing xmrcc...

 **********************************************************************
 CC(5)(6) calculation 
 
 
 Allocation of****** Mbytes of memory...
 Number of spinorbitals:                   108
 Number of alpha electrons:                        6
 Number of beta electrons:                         6
 Spin multiplicity:                     1
 z-component of spin:  0.0
 Spatial symmetry:                      1
 Convergence criterion:  1.0E-07
 Construction of occupation graphs...
 Number of                     0 -fold excitations:                      1
 Number of                     1 -fold excitations:                    108
 Number of                     2 -fold excitations:                  16302
 Number of                     3 -fold excitations:                1329540
 Number of                     4 -fold excitations:               61541328
 Number of                     5 -fold excitations:             1675802912
 Total number of configurations:             1738690191
 Calculation of coupling coefficients...
 Length of intermediate file (Mbytes):   51028.8
 
 ======================================================================
 
 Spin case  1   Alpha:  0   Beta:  6
 Number of excitations:                1536975
 Spin case  2   Alpha:  1   Beta:  5
 Number of excitations:              369988652
 Spin case  3   Alpha:  2   Beta:  4
 Number of excitations:             6172313564
 Spin case  4   Alpha:  3   Beta:  3
 Number of excitations:            14957603376
 Number of                     6 -fold excitations:            28045281758
 
 Memory requirements /Mbyte/: 
               Minimal        Optimal
 Real*8:     409431.2680    409431.2680
 Integer:      1153.2316
 Total:      410584.4996    410584.4996
 

 ************************ 2018-01-24 13:12:12 *************************
 Executing mrcc...

 **********************************************************************
 CC(5)(6) calculation                                                   
 
 
 OpenMP parallel version is running.
 Number of CPUs:  28
 Allocation of******* Mbytes of memory...
 Number of spinorbitals: 108
 Number of alpha electrons:  6
 Number of beta  electrons:  6
 Spin multiplicity: 1
 z-component of spin:  0.0
 Spatial symmetry: 1
 Convergence criterion:  1.0E-07
 Construction of occupation graphs...
 Number of 0-fold excitations: 1
 Number of 1-fold excitations: 108
 Number of 2-fold excitations: 16302
 Number of 3-fold excitations: 1329540
 Number of 4-fold excitations: 61541328
 Number of 5-fold excitations: 1675802912
 Total number of determinants: 1738690191
 Calculation of coupling coefficients...
 Initial cluster amplitudes are read from unit 16.
 Length of intermediate file (Mbytes):   51028.8
 Reading integral list from unit 55...
 Sorting integrals...
 Energy of reference determinant [au]:     -75.388628316955
 Calculation of MP denominators...
 
 Starting CC iteration...
 ======================================================================
 Norm of residual vector:     0.04739946
 CPU time [min]: 11718.037                   Wall time [min]:  1010.501
 
 Iteration  1  CC energy:   -75.81202134  Energy decrease:   9.1703E-11
 ======================================================================
 Norm of residual vector:     0.01161769
 CPU time [min]: 23538.463                   Wall time [min]:  1947.357
 
 Iteration  2  CC energy:   -75.81202134  Energy decrease:   5.8886E-10
 ======================================================================
 Norm of residual vector:     0.00477042
 CPU time [min]: 33588.839                   Wall time [min]:  2919.544
 
 Iteration  3  CC energy:   -75.81243599  Energy decrease:   0.00041465
 ======================================================================
 Norm of residual vector:     0.00177031
 CPU time [min]: 43325.794                   Wall time [min]:  3897.893
 
 Iteration  4  CC energy:   -75.81249720  Energy decrease:   0.00006121
 ======================================================================
 Norm of residual vector:     0.00059667
 CPU time [min]: 52602.088                   Wall time [min]:  4866.664
 
 Iteration  5  CC energy:   -75.81256625  Energy decrease:   0.00006905
 ======================================================================
 Norm of residual vector:     0.00026575
 CPU time [min]: 62541.669                   Wall time [min]:  5837.285
 
 Iteration  6  CC energy:   -75.81257200  Energy decrease:   0.00000575
 ======================================================================
 Norm of residual vector:     0.00013670
 CPU time [min]: 72425.785                   Wall time [min]:  6835.808
 
 Iteration  7  CC energy:   -75.81258084  Energy decrease:   0.00000884
 ======================================================================
 Norm of residual vector:     0.00007964
 CPU time [min]: 82471.146                   Wall time [min]:  7742.315
 
 Iteration  8  CC energy:   -75.81257986  Energy decrease:   0.00000098
 ======================================================================
 Norm of residual vector:     0.00004410
 CPU time [min]: 94349.893                   Wall time [min]:  8615.943
 
 Iteration  9  CC energy:   -75.81258376  Energy decrease:   0.00000390
 ======================================================================
 Norm of residual vector:     0.00002267
 CPU time [min]:105614.820                   Wall time [min]:  9414.339
 
 Iteration 10  CC energy:   -75.81258407  Energy decrease:   0.00000031
 ======================================================================
 Norm of residual vector:     0.00001427
 CPU time [min]:116855.973                   Wall time [min]: 10238.507
 
 Iteration 11  CC energy:   -75.81258494  Energy decrease:   0.00000087
 ======================================================================
 Norm of residual vector:     0.00001044
 CPU time [min]:128124.060                   Wall time [min]: 11055.038
 
 Iteration 12  CC energy:   -75.81258527  Energy decrease:   0.00000033
 ======================================================================
 Norm of residual vector:     0.00000786
 CPU time [min]:138641.193                   Wall time [min]: 11844.066
 
 Iteration 13  CC energy:   -75.81258545  Energy decrease:   0.00000019
 ======================================================================
 Norm of residual vector:     0.00000497
 CPU time [min]:149356.231                   Wall time [min]: 12654.278
 
 Iteration 14  CC energy:   -75.81258542  Energy decrease:   0.00000003
 ======================================================================
 Norm of residual vector:     0.00000243
 CPU time [min]:160181.399                   Wall time [min]: 13473.234
 
 Iteration 15  CC energy:   -75.81258533  Energy decrease:   0.00000009
 ======================================================================
 Norm of residual vector:     0.00000120
 CPU time [min]:171992.939                   Wall time [min]: 14377.815
 
 Iteration 16  CC energy:   -75.81258527  Energy decrease:   0.00000006
 ======================================================================
 Norm of residual vector:     0.00000060
 CPU time [min]:183125.171                   Wall time [min]: 15258.895
 
 Iteration 17  CC energy:   -75.81258524  Energy decrease:   0.00000003
 ======================================================================
 Norm of residual vector:     0.00000029
 CPU time [min]:194471.263                   Wall time [min]: 16183.494
 
 Iteration 18  CC energy:   -75.81258522  Energy decrease:   0.00000002
 ======================================================================
 Norm of residual vector:     0.00000014
 CPU time [min]:205633.149                   Wall time [min]: 17107.886
 
 Iteration 19  CC energy:   -75.81258521  Energy decrease:   0.00000001
 ======================================================================
 Norm of residual vector:     0.00000007
 CPU time [min]:216794.462                   Wall time [min]: 17842.269
 
 Iteration 20  CC energy:   -75.81258521  Energy decrease:   1.1245E-09
 ======================================================================
 
 Iteration has converged in 20 steps.
 
 Final results:
 Total CCSDTQP energy [au]:          -75.812585211664
 
 Perturbative corrections are calculated...
 ======================================================================
 Spin case  1   Alpha:  0   Beta:  6
 Number of excitations:        1536975
 CPU time [min]:217990.841                   Wall time [min]: 17956.228
 ======================================================================
 Spin case  2   Alpha:  1   Beta:  5
 Number of excitations:        369988652
 CPU time [min]:223459.621                   Wall time [min]: 18212.570
 ======================================================================
 Spin case  3   Alpha:  2   Beta:  4
 Number of excitations:        6172313564
 CPU time [min]:265257.515                   Wall time [min]: 19961.144
 ======================================================================
 Spin case  4   Alpha:  3   Beta:  3
 Number of excitations:        14957603376
 CPU time [min]:330584.890                   Wall time [min]: 22796.936
 ======================================================================
 Number of 6-fold excitations: 28045281758
 CPU time [min]:330706.683                   Wall time [min]: 22936.584
 
 Total CC(5)[6] energy [au]:         -75.812617449308
 Total CC(5)(6) energy [au]:         -75.812691578901
 
 ************************ 2018-02-09 11:29:15 *************************
                      Normal termination of mrcc.
 **********************************************************************
--- SharcNET Job Epilogue ---
Job completed successfully.
               jobid: 1511409
               resid: 2992763
         exit status: 0
      allocated time: 1412050
           user time: 17134900
         system time: 3145810
peak rss=536460152832; peak vsz=536882290688 (bytes)
atime=1412050; utime=17134900; stime=3145810; exit=0
