 --invoking executable--
/project1/nike/cfour_v2.00beta_May2019xnmol_noLABBASIS/bin/xjoda


   *************************************************************************
         <<<     CCCCCC     CCCCCC   |||     CCCCCC     CCCCCC   >>>
       <<<      CCC        CCC       |||    CCC        CCC         >>>
      <<<      CCC        CCC        |||   CCC        CCC            >>>
    <<<        CCC        CCC        |||   CCC        CCC              >>>
      <<<      CCC        CCC        |||   CCC        CCC            >>>
       <<<      CCC        CCC       |||    CCC        CCC         >>>
         <<<     CCCCCC     CCCCCC   |||     CCCCCC     CCCCCC   >>>
   *************************************************************************

     ****************************************************************
     * CFOUR Coupled-Cluster techniques for Computational Chemistry *
     ****************************************************************
 

   Department of Chemistry                Institut fuer Physikalische Chemie
   University of Texas at Austin          Universitaet Mainz
   Austin, TX  78712, USA                 D-55099 Mainz, Germany
 
                       Version 2.00beta
 
                     wob144                                            
                     Tue Mar 10 00:38:26 EDT 2020                      
                     integer*8 version is running
 
********************************************************************************
*                          Input from ZMAT file                                *
********************************************************************************
TITLE                                                                           
As                                                                              
H 1 R                                                                           
H 1 R 2 A                                                                       
H 1 R 2 A 3 D                                                                   
                                                                                
R=2.85537617431                                                                 
A=92.083                                                                        
D=92.2                                                                          
                                                                                
*ACES2(CALC=CCSD(T)                                                             
UNITS=BOHR                                                                      
#GEOM=1.511*10/5.29177210903                                                    
#COORD=CARTESIAN                                                                
COORD=INTERNAL                                                                  
PRINT=4                                                                         
JODA_PRINT=4                                                                    
INPUT_MRCC=OFF                                                                  
#CC_PROG=MRCC                                                                   
#FROZEN_CORE=ON                                                                 
DROPMO=1>9                                                                      
CONTRACTION=GENERAL                                                             
#CONTRACTION=SEGMENTED                                                          
RELATIVISTIC=OFF                                                                
#EXCITE=EOMEE                                                                   
#ESTATE_CONV=5                                                                  
#ESTATE_SYM=2/2/2/2/2/2/2/2                                                     
XFORM_TOL=18                                                                    
SAVE_INTS=ON                                                                    
SCF_EXPORDER=6                                                                  
SCF_EXPSTART=5                                                                  
#SCF_DAMPING=1000                                                               
SCF_EXTRAPOLATION=ON                                                            
SCF_CONV=12                                                                     
SCF_MAXCYC=99999                                                                
CC_CONV=9                                                                       
CC_MAXCYC=999                                                                   
T3_EXTRAPOL=ON                                                                  
REFERENCE=ROHF                                                                  
CHARGE=+1                                                                       
MULT=2                                                                          
ABCDTYPE=STANDARD                                                               
#OCCUPATION=3-2-2-0-1-0-0-0/3-1-1-0-1-0-0-0                                     
MEM=4                                                                           
MEM_UNIT=GB                                                                     
BASIS=SPECIAL)                                                                  
                                                                                
AS:def2-TZVPP                                                                   
H:def2-TZVPP                                                                    
H:def2-TZVPP                                                                    
H:def2-TZVPP                                                                    
                                                                                
********************************************************************************
  @GTFLGS-W, Keyword #GEOM not known and is ignored.
  @GTFLGS-W, Keyword #COORD not known and is ignored.
  @GTFLGS-W, Keyword #CC_PROG not known and is ignored.
  @GTFLGS-W, Keyword #FROZEN_CORE not known and is ignored.
  @GTFLGS-W, Keyword #CONTRACTION not known and is ignored.
  @GTFLGS-W, Keyword #EXCITE not known and is ignored.
  @GTFLGS-W, Keyword #ESTATE_CONV not known and is ignored.
  @GTFLGS-W, Keyword #ESTATE_SYM not known and is ignored.
  @GTFLGS-W, Keyword #SCF_DAMPING not known and is ignored.
  @GTFLGS-W, Keyword #OCCUPATION not known and is ignored.
    -------------------------------------------------------------------
                    CFOUR Control Parameters 
    -------------------------------------------------------------------
        External           Internal           Value            Units
          Name               Name
    -------------------------------------------------------------------
       ABCDTYPE             IABCDT         STANDARD     [  0]   ***   
       ANHARMONIC           IANHAR         OFF          [  0]   ***   
       ANH_ALGORIT          IANALG         STANDARD     [  0]   ***   
       ANH_DERIVAT          IANDER         SECOND       [  1]   ***   
       ANH_STEPSIZ          ICUBST             50000          x 10-6  
       ANH_SYMMETR          IANHSM         ABELIAN      [  0]   ***   
       AO_LADDERS           IAOLAD         SINGLEPASS   [  1]   ***   
       BASIS                IBASIS         SPECIAL      [  0]   ***   
       BREIT                IBREIT         OFF          [  0]   ***   
       BRUCK_CONV           IBRTOL          10D-  4             ***   
       BRUECKNER            IBRKNR             OFF      [  0]   ***   
       BUFFERSIZE           IBUFFS            600               ***   
       CACHE_RECS           ICHREC             10               ***   
       CALCLEVEL            ICLLVL           CCSD(T)    [ 22]   ***   
       CCORBOPT             ICCORB             OFF      [  0] x 0.01  
       CC_CONV              ICCCNV          10D-  9             ***   
       CC_EXPORDER          ICCEOR              5               ***   
       CC_EXTRAPOL          ICCEXT             DIIS     [  1]   ***   
       CC_MAXCYC            ICCCYC            999              cycles 
       CC_PROGRAM           ICCPRO         VCC          [  0]   ***   
       CHARGE               ICHRGE              1               ***   
       CHOLESKY             ICHOLE         OFF          [  0]   ***   
       CIS_CONV             ICISTL              5               ***   
       COMM_SIZE            IPSIZE            ***               ***   
       CONSTANT             ICONST         OLD          [  1]   ***   
       CONTINUUM            ICONTU         NONE         [  0]   ***   
       CONTRACTION          ICNTYP          GENERAL     [  1]   ***   
       COORDINATES          ICOORD         INTERNAL     [  0]   ***   
       CPHF_CONVER          ICPHFT          10D- 16             ***   
       CPHF_MAXCYC          ICPHFC             64              cycles 
       CUBIC                ICUBIC         OFF          [  0]   ***   
       CURVILINEAR          ICURVY            OFF       [  0]   ***   
       DBOC                 IDBOC          OFF          [  0]   ***   
       DCT                  IDCT           OFF          [  0]   ***   
       DERIV_LEV            IDRLVL            ZERO      [  0]   ***   
       DIAG_MRCC            IEOMST          10D-  0             ***   
       DIFF_TYPE            IDIFTY         RELAXED      [  0]   ***   
       DIRECT               IDIRCT         OFF          [  0]   ***   
       DROPMO               IDRPMO A   1,  2,  3,  4,  5,  6,  7,  8,
                                       9,
                                   B   1,  2,  3,  4,  5,  6,  7,  8,
                                       9,
       ECP                  IECP           OFF          [  0]   ***   
       EIGENVECTOR          IVEC                1               ***   
       EL_ANHARM            IELANH         OFF          [  0]   ***   
       EOMFOLLOW            IEOMSR         ENERGY       [  0]   ***   
       EOM_MRCC             IMRCCE         NEW          [  1]   ***   
       EOM_NONIT            EOMNON         OFF          [  0]   ***   
       EOM_NSING            IEOMSI          10D-  0             ***   
       EOM_NSTATES          IMRCCD         DAVIDSON     [  0]   ***   
       EOM_NTRIP            IEOMTR          10D-  0             ***   
       EOM_ORDER            IEXORD         ENERGY       [  0]   ***   
       ESTATE_CONV          IEXTOL          10D-  5             ***   
       ESTATE_DIAG          IEXDIG         ITERATIVE    [  0]   ***   
       ESTATE_LOCK          IESLOC         ON           [  1]   ***   
       ESTATE_MAXC          IEXMXC             20               ***   
       ESTATE_PROP          IEXPRP         OFF          [  0]   ***   
       EVAL_HESS            IRECAL              0            # of cyc.
       EXCITATION           IEXCIT              0               ***   
       EXCITE               IEXCIT         NONE         [  0]   ***   
       FCGRADNEW            IFCGNW         OFF          [  0]   ***   
       FC_FIELD             IFINFC              0             x 10-6  
       FD_CALTYPE           IFDCAL         GRADONLY     [  0]   ***   
       FD_PROJECT           IFDPRJ         OFF          [  1]   ***   
       FD_STEPSIZE          IDISFD              0            10-4 bohr
       FD_USEGROUP          IFDGRP         FULL         [  0]   ***   
       FILE_RECSIZ          IFLREC              4096           words  
       FINITE_PERT          IFIPER              0             x 10-6  
       FIXGEOM              IFIXGM         OFF          [  0]   ***   
       FOCK                 IFOCK          AO           [  1]   ***   
       FREQ_ALGORI          IVIALG         STANDARD     [  0]   ***   
       FROZEN_CORE          IFROCO         OFF          [  0]   ***   
       FROZEN_VIRT          IFROVI         OFF          [  0]   ***   
       GAMMA_ABCD           IGABCD         STORE        [  0]   ***   
       GAMMA_ABCI           IGABCI         STORE        [  0]   ***   
       GENBAS_1             IGNBS1              0               ***   
       GENBAS_2             IGNBS2              0               ***   
       GENBAS_3             IGNBS3              0               ***   
       GENBAS_4             IGNBS4              0               ***   
       GEO_CONV             ICONTL              5              H/bohr 
       GEO_MAXCYC           IOPTCY             50               ***   
       GEO_MAXSTEP          IMXSTP            300            millibohr
       GEO_METHOD           INR            SINGLE_POINT [  5]   ***   
       GIAO                 IGIAO          OFF          [  1]   ***   
       GIMIC                IGIMIC         OFF          [  0]   ***   
       GRID                 IGRID          OFF          [  0]   ***   
       GRID_ALGO            IGALGO         SERIAL       [  0]   ***   
       GUESS                IGUESS            MOREAD    [  0]   ***   
       HBAR                 IHBAR              OFF      [  0]   ***   
       HESS_TYPE            IHESTP         SCF          [  0]   ***   
       HF2_FILE             IHF2Fl         USE          [  1]   ***   
       HFSTABILITY          ISTABL         OFF          [  0]   ***   
       INCORE               INCORE             OFF      [  0]   ***   
       INPUT_MRCC           IMRCC          OFF          [  0]   ***   
       INTEGRALS            INTTYP             VMOL     [  1]   ***   
       JODA_PRINT           IJPRNT              4               ***   
       LINDEP_TOL           ILINDP              8               ***   
       LINEQ_CONV           IZTACN          10D-  7           cycles  
       LINEQ_EXPOR          ILMAXD              5               ***   
       LINEQ_MAXCY          ILMAXC             50               ***   
       LINEQ_TYPE           ILTYPE         DIIS         [  1]   ***   
       LOCK_ORBOCC          ILOCOC             OFF      [  0]   ***   
       MEMORY_SIZE          IMEMSZ         500000000           words  
       MEM_UNIT             IMEMU          GB           [  3]   ***   
       MRCC                 IMRCCC         OFF          [  0]   ***   
       MULTIPLICTY          IMULTP              2               ***   
       NEGEVAL              IDIE             ABORT      [  0]   ***   
       NEWNORM              INEWNO         OFF          [  0]   ***   
       NON-HF               INONHF              ON      [  1]   ***   
       NTOP_TAMP            ITOPT2             15               ***   
       NUC_MODEL            INUCMO         POINT        [  0]   ***   
       OCCUPATION           IOCCU   ESTIMATED BY SCF 
       OPEN-SHELL           IOPEN          SPIN-ORBITAL [  0]   ***   
       ORBITALS             IORBTP         SEMICANONICAL[  1]   ***   
       PARALLEL             IPARAL         ON           [  1]   ***   
       PARA_INT             IPINTS         ON           [  1]   ***   
       PARA_PRINT           IPPRIN              0               ***   
       PERT_ORB             IPTORB         STANDARD     [  0]   ***   
       POINTS               IGRDFD              0               ***   
       PRINT                IPRNT               4               ***   
       PROPS                IPROPS             OFF      [  0]   ***   
       PROP_INTEGR          IINTYP         INTERNAL     [  0]   ***   
       PSI                  IPSI           OFF          [  0]   ***   
       QUARTIC              IQUART         OFF          [  0]   ***   
       RAMAN_INT            IRAMIN         OFF          [  0]   ***   
       RAMAN_ORB            IRAMRE         UNRELAXED    [  0]   ***   
       RDO                  IRDOFM             OFF      [  0]   ***   
       REFERENCE            IREFNC             ROHF     [  2]   ***   
       RELATIVIST           IRELAT         OFF          [  0]   ***   
       RELAX_DENS           IRDENS             OFF      [  0]   ***   
       RESET_FLAGS          IRESET             OFF      [  0]   ***   
       RESTART_CC           ICCRES         OFF          [  0]   ***   
       ROT_EVEC             ROTVEC              0               ***   
       SAVE_INTS            ISVINT              ON      [  1]   ***   
       SCALE_ON             ISTCRT              0               ***   
       SCF_CONV             ISCFCV          10D- 12             ***   
       SCF_DAMPING          IDAMP               0             x 10-3  
       SCF_EXPORDE          IRPPOR              6               ***   
       SCF_EXPSTAR          IRPPLS              5               ***   
       SCF_EXTRAPO          IRPP                ON      [  1]   ***   
       SCF_MAXCYC           ISCFCY            ***              cycles 
       SCF_NOSTOP           ISCFST         OFF          [  0]   ***   
       SCF_PRINT            ISCFPR              0               ***   
       SD_FIELD             IFINSD              0             x 10-6  
       SEQUENCE             ISEQUE         OFF          [  0]   ***   
       SOPERT               IPERSO         OFF          [  0]   ***   
       SPHERICAL            IDFGHI             ON       [  1]   ***   
       SPINORBIT            ISOCAL         OFF          [  0]   ***   
       SPINROTATIO          ISRCON         OFF          [  0]   ***   
       SPIN_FLIP            ISPFLP         OFF          [  0]   ***   
       SPIN_ORBIT           ISPORB         OFF          [  0]   ***   
       SPIN_SCAL            ISCSMP         OFF          [  0]   ***   
       SUBGROUP             ISUBGP         DEFAULT      [  0]   ***   
       SUBGRPAXIS           ISBXYZ         X            [  0]   ***   
       SYMMETRY             ISYM             ON         [  0]   ***   
       SYM_CHECK            ISYMCK         OVERRIDE     [  1]   ***   
       T3_EXTRAPOL          IT3EXT         ON           [  1]   ***   
       TAMP_SUM             IEVERY              5               ***   
       TESTSUITE            ITESTS         OFF          [  0]   ***   
       THERMOCH             ITHERM         OFF          [  0]   ***   
       TOL_CHOLESK          ITOLCH          10D-  4             ***   
       TRANGRAD             IRESRM         OFF          [  0]   ***   
       TRANS_INV            ITRAIN         USE          [  0]   ***   
       TREAT_PERT           ITREAT         SIMULTANEOUS [  0]   ***   
       UIJ_THRESHO          IUIJTH              1               ***   
       UNITS                IUNITS         BOHR         [  1]   ***   
       UNOS                 IUNOS          OFF          [  0]   ***   
       UPDATE_HESS          IHUPDT         ON           [  1]   ***   
       VIBPHASE             ISETPH         STANDARD     [  0]   ***   
       VIBRATION            IVIB              NO        [  0]   ***   
       VIB_ALGORIT          IGEALG         STANDARD     [  0]   ***   
       VNATORB              IVNORB         OFF          [  0]   ***   
       VTRAN                IVTRAN         FULL/PARTIAL [  0]   ***   
       XFIELD               IXEFLD              0             x 10-6  
       XFORM_TOL            IXFTOL          10D- 18             ***   
       YFIELD               IYEFLD              0             x 10-6  
       ZFIELD               IZEFLD              0             x 10-6  
    -------------------------------------------------------------------
   4 entries found in Z-matrix 
   Job Title : TITLE                                                                           
 Variable names read by FETCHZ
  1           
  2           
  3           
  4 R         
  5           
  6           
  7 R         
  8 A         
  9           
 10 R         
 11 A         
 12 D         
 Atomic symbols read by FETCHZ
  1 As   
  2 H    
  3 H    
  4 H    
 Connectivity matrix read by FETCHZ
  1   0
  2   0
  3   0
  4   1
  5   0
  6   0
  7   1
  8   2
  9   0
 10   1
 11   2
 12   3
   There are  3 unique internal coordinates.
   Of these,  0 will be optimized.
   User supplied Z-matrix: 
--------------------------------------------------------------------------------
       SYMBOL    BOND      LENGTH    ANGLE     ANGLE     DIHED     ANGLE
                  TO      (ANGST)    WRT      (DEG)      WRT      (DEG)
--------------------------------------------------------------------------------
        As   
        H          1         R    
        H          1         R          2        A    
        H          1         R          2        A          3        D    
                  *Initial values for internal coordinates* 
                      Name             Value
                        R               2.8553761743
                        A              92.0830000000
                        D              92.2000000000
--------------------------------------------------------------------------------
  1  AS        33    74.92159
  2  H          1     1.00783
  3  H          1     1.00783
  4  H          1     1.00783
   74.9215942000
    1.0078250350
    1.0078250350
    1.0078250350
 After translation to center of mass coordinates 
       -0.035479110220    0.036868250512   -0.034235975606
       -0.035479110220    0.036868250512    2.821140198704
        2.818010294898    0.036868250512   -0.138020905616
       -0.145018316736   -2.814517894393   -0.138020905616
  Inertia tensor (amu*bohr**2)
   16.23540   -0.41674    0.38169
   -0.41674   16.26742   -0.39663
    0.38169   -0.39663   16.20817
    Inertia tensor:
       16.235398987851   -0.416738896262    0.381686008127
       -0.416738896262   16.267417974899   -0.396630447533
        0.381686008127   -0.396630447533   16.208169796331
    Principal axis orientation for molecular system: 
        0.000000000000    0.000141311999   -0.061563927867
        0.000000000001   -2.376638541421    1.520867942765
        2.056084963025    1.183066712032    1.527893595817
       -2.056084963026    1.183066712031    1.527893595817
    Diagonalized inertia tensor:
       15.834362187133    0.000000000000    0.000000000000
        0.000000000000   15.841683853656    0.000000000000
        0.000000000000    0.000000000000   17.034940718290
    Eigenvectors of inertia tensor: 
        0.720551111680    0.384279017977    0.577179115872
        0.693401828276   -0.399324983447   -0.599777843988
        0.000000000000   -0.832387646435    0.554193834378
 factor:   60.1997200000000     
   Rotational constants (in cm-1): 
          3.5338966537             3.8000834101             3.8018405344
   Rotational constants (in MHz): 
     105943.5712548299        113923.6505716206        113976.3278420219
  @SYMMETRY-I, Handedness of inertial frame:-1.00000
  @SYMMETRY-I, Sense of inertial frame y-axis will be changed.
  @SYMMETRY-I, The symmetry group is 1-fold degenerate.
  @SYMMETRY-I, The molecule belongs to an Abelian group.
   Principal axis orientation for molecule:
        0.000000000000   -0.000141311999   -0.061563927867
        0.000000000001    2.376638541421    1.520867942765
        2.056084963025   -1.183066712032    1.527893595817
       -2.056084963026   -1.183066712031    1.527893595817
   Reflection in plane  1 is a valid symmetry operation.
  Symmetry bits:    1   0   0
********************************************************************************
   The full molecular point group is C s .
   The largest Abelian subgroup of the full molecular point group is C s .
   The computational point group is C s .
********************************************************************************
--------------------------------------------------------------------------------
   Analysis of internal coordinates specified by Z-matrix 
--------------------------------------------------------------------------------
   *The nuclear repulsion energy is   35.401137442811226 a.u.
   *There are   4 degrees of freedom within the tot. symm. molecular subspace.
   *Z-matrix requests optimization of   0 coordinates.
   *The optimization is constrained.
   *The following   3 parameters can have non-zero 
    derivatives within the totally symmetric subspace:
             A    [ 3]  D    [ 6]  R    [ 1]
   *The following   0 parameters are to be optimized:

   *The following coordinates must be varied in an  unconstrained optimization.
             A    [ 3]  D    [ 6]  R    [ 1]
--------------------------------------------------------------------------------
 ----------------------------------------------------------------
 Z-matrix   Atomic            Coordinates (in bohr)
  Symbol    Number           X              Y              Z
 ----------------------------------------------------------------
     AS       33        -0.00014131    -0.06156393     0.00000000
     H         1         2.37663854     1.52086794     0.00000000
     H         1        -1.18306671     1.52789360     2.05608496
     H         1        -1.18306671     1.52789360    -2.05608496
 ----------------------------------------------------------------
   Interatomic distance matrix (Angstroms) 
 
                 AS            H             H             H    
                [ 1]        [ 2]        [ 3]        [ 4]
  AS   [ 1]     0.00000
  H    [ 2]     1.51100     0.00000
  H    [ 3]     1.51100     2.17536     0.00000
  H    [ 4]     1.51100     2.17536     2.17607     0.00000
  Inertia tensor (amu*bohr**2)
   15.84168    0.00000    0.00000
    0.00000   17.03494    0.00000
    0.00000    0.00000   15.83436
   Rotational constants (in cm-1): 
          3.8000834101             3.5338966537             3.8018405344
   Rotational constants (in MHz): 
     113923.6505716206        105943.5712548299        113976.3278420220
  @GTFLGS-W, Keyword #GEOM not known and is ignored.
  @GTFLGS-W, Keyword #COORD not known and is ignored.
  @GTFLGS-W, Keyword #CC_PROG not known and is ignored.
  @GTFLGS-W, Keyword #FROZEN_CORE not known and is ignored.
  @GTFLGS-W, Keyword #CONTRACTION not known and is ignored.
  @GTFLGS-W, Keyword #EXCITE not known and is ignored.
  @GTFLGS-W, Keyword #ESTATE_CONV not known and is ignored.
  @GTFLGS-W, Keyword #ESTATE_SYM not known and is ignored.
  @GTFLGS-W, Keyword #SCF_DAMPING not known and is ignored.
  @GTFLGS-W, Keyword #OCCUPATION not known and is ignored.
  There are   90 basis functions.
 @GEOPT-W, Archive file not created for single-point calculation.
  @CHECKOUT-I, Total execution time (CPU/WALL):        0.24/       3.76 seconds.
--executable xjoda finished with status     0 in        4.67 seconds (walltime).
 --invoking executable--
/project1/nike/cfour_v2.00beta_May2019xnmol_noLABBASIS/bin/xvmol
Running with 1 threads/proc

********************************************************************************
                   INPUT FROM MOL FILE                                          
********************************************************************************
INTGRL        1    0    1    0    0    0    0    0    0
         *** CFOUR Program System (Release V0.1) *** 
TITLE
    3    1 Z          0.10E-08              0    0
   9999.00      3.00
         33.00000000    1    4    1    1    1    1
AS#1  -0.000141311999337  -0.061563927866986   0.000000000000000
   17    6
   498032.421580000       2.274019690000000E-004  0.000000000000000E+000
  0.000000000000000E+000  0.000000000000000E+000  0.000000000000000E+000
  0.000000000000000E+000
   74656.8687430000       1.763281641300000E-003  0.000000000000000E+000
  0.000000000000000E+000  0.000000000000000E+000  0.000000000000000E+000
  0.000000000000000E+000
   16990.9600040000       9.172804038100000E-003  0.000000000000000E+000
  0.000000000000000E+000  0.000000000000000E+000  0.000000000000000E+000
  0.000000000000000E+000
   4809.62003210000       3.733782934400000E-002  0.000000000000000E+000
  0.000000000000000E+000  0.000000000000000E+000  0.000000000000000E+000
  0.000000000000000E+000
   1566.28870550000       0.121995361170000       0.000000000000000E+000
  0.000000000000000E+000  0.000000000000000E+000  0.000000000000000E+000
  0.000000000000000E+000
   563.213604990000       0.291374753240000       0.000000000000000E+000
  0.000000000000000E+000  0.000000000000000E+000  0.000000000000000E+000
  0.000000000000000E+000
   219.111799780000       0.423263514790000       0.000000000000000E+000
  0.000000000000000E+000  0.000000000000000E+000  0.000000000000000E+000
  0.000000000000000E+000
   86.8660610300000       0.229214642780000       0.000000000000000E+000
  0.000000000000000E+000  0.000000000000000E+000  0.000000000000000E+000
  0.000000000000000E+000
   538.195124790000       0.000000000000000E+000 -2.525419729700000E-002
  0.000000000000000E+000  0.000000000000000E+000  0.000000000000000E+000
  0.000000000000000E+000
   167.148502240000       0.000000000000000E+000 -0.119154611150000     
  0.000000000000000E+000  0.000000000000000E+000  0.000000000000000E+000
  0.000000000000000E+000
   27.6055171590000       0.000000000000000E+000  0.546284959800000     
  0.000000000000000E+000  0.000000000000000E+000  0.000000000000000E+000
  0.000000000000000E+000
   11.9478585210000       0.000000000000000E+000  0.530015209760000     
  0.000000000000000E+000  0.000000000000000E+000  0.000000000000000E+000
  0.000000000000000E+000
   18.5380231330000       0.000000000000000E+000  0.000000000000000E+000
 -0.234791881360000       0.000000000000000E+000  0.000000000000000E+000
  0.000000000000000E+000
   3.20189857390000       0.000000000000000E+000  0.000000000000000E+000
  0.691670534280000       0.000000000000000E+000  0.000000000000000E+000
  0.000000000000000E+000
   1.43565220770000       0.000000000000000E+000  0.000000000000000E+000
  0.000000000000000E+000   1.00000000000000       0.000000000000000E+000
  0.000000000000000E+000
  0.318378052000000       0.000000000000000E+000  0.000000000000000E+000
  0.000000000000000E+000  0.000000000000000E+000   1.00000000000000     
  0.000000000000000E+000
  0.116226321860000       0.000000000000000E+000  0.000000000000000E+000
  0.000000000000000E+000  0.000000000000000E+000  0.000000000000000E+000
   1.00000000000000     
   13    5
   2678.94215460000       2.331895528700000E-003  0.000000000000000E+000
  0.000000000000000E+000  0.000000000000000E+000  0.000000000000000E+000
   634.617658400000       1.904214997700000E-002  0.000000000000000E+000
  0.000000000000000E+000  0.000000000000000E+000  0.000000000000000E+000
   203.939676060000       9.022974491300000E-002  0.000000000000000E+000
  0.000000000000000E+000  0.000000000000000E+000  0.000000000000000E+000
   76.3238903690000       0.261690376930000       0.000000000000000E+000
  0.000000000000000E+000  0.000000000000000E+000  0.000000000000000E+000
   30.6641249430000       0.418571681550000       0.000000000000000E+000
  0.000000000000000E+000  0.000000000000000E+000  0.000000000000000E+000
   12.5050567320000       0.234478301900000       0.000000000000000E+000
  0.000000000000000E+000  0.000000000000000E+000  0.000000000000000E+000
   49.2562295490000       0.000000000000000E+000 -2.123553987000000E-002
  0.000000000000000E+000  0.000000000000000E+000  0.000000000000000E+000
   7.72748914660000       0.000000000000000E+000  0.304702066680000     
  0.000000000000000E+000  0.000000000000000E+000  0.000000000000000E+000
   3.54104934760000       0.000000000000000E+000  0.528883731070000     
  0.000000000000000E+000  0.000000000000000E+000  0.000000000000000E+000
   1.69855855010000       0.000000000000000E+000  0.372722509550000     
  0.000000000000000E+000  0.000000000000000E+000  0.000000000000000E+000
  0.768480710440000       0.000000000000000E+000  0.000000000000000E+000
   1.00000000000000       0.000000000000000E+000  0.000000000000000E+000
  0.300508232600000       0.000000000000000E+000  0.000000000000000E+000
  0.000000000000000E+000   1.00000000000000       0.000000000000000E+000
  9.819063943700000E-002  0.000000000000000E+000  0.000000000000000E+000
  0.000000000000000E+000  0.000000000000000E+000   1.00000000000000     
    8    4
   135.332893050000       9.929114410599999E-003  0.000000000000000E+000
  0.000000000000000E+000  0.000000000000000E+000
   39.8602127440000       6.656884349599999E-002  0.000000000000000E+000
  0.000000000000000E+000  0.000000000000000E+000
   14.4464283590000       0.222757683070000       0.000000000000000E+000
  0.000000000000000E+000  0.000000000000000E+000
   5.64329003560000       0.403092243820000       0.000000000000000E+000
  0.000000000000000E+000  0.000000000000000E+000
   2.16681886230000       0.416716679460000       0.000000000000000E+000
  0.000000000000000E+000  0.000000000000000E+000
  0.765149705690000       0.000000000000000E+000  0.189355022880000     
  0.000000000000000E+000  0.000000000000000E+000
  0.424346530000000       0.000000000000000E+000  0.000000000000000E+000
   1.00000000000000       0.000000000000000E+000
  0.163315270000000       0.000000000000000E+000  0.000000000000000E+000
  0.000000000000000E+000   1.00000000000000     
    1    1
  0.432719410000000        1.00000000000000     
          1.00000000    1    3    1    1    1
H #2   2.376638541421395   1.520867942764585   0.000000000000556
    5    3
   34.0613410000000       6.025197800000000E-003  0.000000000000000E+000
  0.000000000000000E+000
   5.12357460000000       4.502109400000000E-002  0.000000000000000E+000
  0.000000000000000E+000
   1.16466260000000       0.201897260000000       0.000000000000000E+000
  0.000000000000000E+000
  0.327230410000000       0.000000000000000E+000   1.00000000000000     
  0.000000000000000E+000
  0.103072410000000       0.000000000000000E+000  0.000000000000000E+000
   1.00000000000000     
    2    2
   1.40700000000000        1.00000000000000       0.000000000000000E+000
  0.388000000000000       0.000000000000000E+000   1.00000000000000     
    1    1
   1.05700000000000        1.00000000000000     
          1.00000000    1    3    1    1    1
H #3  -1.183066712031722   1.527893595817124   2.056084963025460
    5    3
   34.0613410000000       6.025197800000000E-003  0.000000000000000E+000
  0.000000000000000E+000
   5.12357460000000       4.502109400000000E-002  0.000000000000000E+000
  0.000000000000000E+000
   1.16466260000000       0.201897260000000       0.000000000000000E+000
  0.000000000000000E+000
  0.327230410000000       0.000000000000000E+000   1.00000000000000     
  0.000000000000000E+000
  0.103072410000000       0.000000000000000E+000  0.000000000000000E+000
   1.00000000000000     
    2    2
   1.40700000000000        1.00000000000000       0.000000000000000E+000
  0.388000000000000       0.000000000000000E+000   1.00000000000000     
    1    1
   1.05700000000000        1.00000000000000     
FINISH
                                                                                
********************************************************************************

ONE- AND TWO-ELECTRON INTEGRALS OVER SYMMETRY-ADAPTED AOS ARE CALCULATED.


    BASIS FUNCTION NOT NORMALIZED:
    CENTER (AS ORDERED IN MOL FILE): ?
    ANGULAR MOMENTUM TYPE:           S
    OFFSET WITHIN ANGULAR MOMENTUM:  1
    <CHI|CHI>:                       0.9466687019

    BASIS FUNCTION NOT NORMALIZED:
    CENTER (AS ORDERED IN MOL FILE): ?
    ANGULAR MOMENTUM TYPE:           S
    OFFSET WITHIN ANGULAR MOMENTUM:  2
    <CHI|CHI>:                       0.9760955452

    BASIS FUNCTION NOT NORMALIZED:
    CENTER (AS ORDERED IN MOL FILE): ?
    ANGULAR MOMENTUM TYPE:           S
    OFFSET WITHIN ANGULAR MOMENTUM:  3
    <CHI|CHI>:                       0.3397264991

    BASIS FUNCTION NOT NORMALIZED:
    CENTER (AS ORDERED IN MOL FILE): ?
    ANGULAR MOMENTUM TYPE:           P
    OFFSET WITHIN ANGULAR MOMENTUM:  1
    <CHI|CHI>:                       0.7585379157

    BASIS FUNCTION NOT NORMALIZED:
    CENTER (AS ORDERED IN MOL FILE): ?
    ANGULAR MOMENTUM TYPE:           P
    OFFSET WITHIN ANGULAR MOMENTUM:  2
    <CHI|CHI>:                       1.2213696107

    BASIS FUNCTION NOT NORMALIZED:
    CENTER (AS ORDERED IN MOL FILE): ?
    ANGULAR MOMENTUM TYPE:           D
    OFFSET WITHIN ANGULAR MOMENTUM:  1
    <CHI|CHI>:                       0.8254709428

    BASIS FUNCTION NOT NORMALIZED:
    CENTER (AS ORDERED IN MOL FILE): ?
    ANGULAR MOMENTUM TYPE:           D
    OFFSET WITHIN ANGULAR MOMENTUM:  2
    <CHI|CHI>:                       0.0358553247

    BASIS FUNCTION NOT NORMALIZED:
    CENTER (AS ORDERED IN MOL FILE): ?
    ANGULAR MOMENTUM TYPE:           S
    OFFSET WITHIN ANGULAR MOMENTUM:  1
    <CHI|CHI>:                       0.0560960211

    BASIS FUNCTION NOT NORMALIZED:
    CENTER (AS ORDERED IN MOL FILE): ?
    ANGULAR MOMENTUM TYPE:           S
    OFFSET WITHIN ANGULAR MOMENTUM:  1
    <CHI|CHI>:                       0.0560960211
CARTESIAN GAUSSIANS ARE USED.

3 TYPES OF ATOMS
1 SYMMETRY OPERATIONS

REFLECTION IN THE XY-PLANE

INTEGRALS LESS THAN 1e-14 ARE NEGLECTED.

ATOMIC TYPE NUMBER 1:
---------------------

    NUCLEAR CHARGE:                       33
    NUMBER OF SYMMETRY INDEPENDENT ATOMS: 1
    HIGHEST ORBITAL TYPE:                 F

    1 GROUPS OF CGTOS OF S TYPE
    1 GROUPS OF CGTOS OF P TYPE
    1 GROUPS OF CGTOS OF D TYPE
    1 GROUPS OF CGTOS OF F TYPE

    NUCLEAR COORDINATES (IN A.U.) ARE:

    AS#1  -0.000141311999337  -0.061563927866986   0.000000000000000

ATOMIC TYPE NUMBER 2:
---------------------

    NUCLEAR CHARGE:                       1
    NUMBER OF SYMMETRY INDEPENDENT ATOMS: 1
    HIGHEST ORBITAL TYPE:                 D

    1 GROUPS OF CGTOS OF S TYPE
    1 GROUPS OF CGTOS OF P TYPE
    1 GROUPS OF CGTOS OF D TYPE

    NUCLEAR COORDINATES (IN A.U.) ARE:

    H #2   2.376638541421395   1.520867942764585   0.000000000000556

ATOMIC TYPE NUMBER 3:
---------------------

    NUCLEAR CHARGE:                       1
    NUMBER OF SYMMETRY INDEPENDENT ATOMS: 1
    HIGHEST ORBITAL TYPE:                 D

    1 GROUPS OF CGTOS OF S TYPE
    1 GROUPS OF CGTOS OF P TYPE
    1 GROUPS OF CGTOS OF D TYPE

    NUCLEAR COORDINATES (IN A.U.) ARE:

    H #3  -1.183066712031722   1.527893595817124   2.056084963025460

INTERNUCLEAR DISTANCES (A):

    FOR ATOM AS#1 (COORDINATES:  -0.00014  -0.06156   0.00000)

    H #2 1 DISTANCE IS   1.51100
    H #3 1 DISTANCE IS   1.51100

    FOR ATOM H #2 (COORDINATES:   2.37664   1.52087   0.00000)

    H #3 1 DISTANCE IS   2.17536

    FOR ATOM H #3 (COORDINATES:  -1.18307   1.52789   2.05608)

    H #3 2 DISTANCE IS   2.17607

GROUP MULTIPLICATION TABLE:

    1 2
    2 1

GAUSSIAN BASIS INFORMATION:

ATOM                EXPONENT       COEFFICIENTS

AS#1  1  S   
                  1  498032.421580   3.1228312   0.0000000   0.0000000   0.0000000   0.0000000   0.0000000
                  2   74656.868743   5.8335792   0.0000000   0.0000000   0.0000000   0.0000000   0.0000000
                  3   16990.960004   9.9994621   0.0000000   0.0000000   0.0000000   0.0000000   0.0000000
                  4    4809.620032  15.7958581   0.0000000   0.0000000   0.0000000   0.0000000   0.0000000
                  5    1566.288706  22.2488856   0.0000000   0.0000000   0.0000000   0.0000000   0.0000000
                  6     563.213605  24.6756075   0.0000000   0.0000000   0.0000000   0.0000000   0.0000000
                  7     219.111800  17.6571758   0.0000000   0.0000000   0.0000000   0.0000000   0.0000000
                  8      86.866061   4.7773938   0.0000000   0.0000000   0.0000000   0.0000000   0.0000000
                  9     538.195125   0.0000000  -2.0356463   0.0000000   0.0000000   0.0000000   0.0000000
                 10     167.148502   0.0000000  -3.9957807   0.0000000   0.0000000   0.0000000   0.0000000
                 11      27.605517   0.0000000   4.7460257   0.0000000   0.0000000   0.0000000   0.0000000
                 12      11.947859   0.0000000   2.4570829   0.0000000   0.0000000   0.0000000   0.0000000
                 13      18.538023   0.0000000   0.0000000  -2.5649330   0.0000000   0.0000000   0.0000000
                 14       3.201899   0.0000000   0.0000000   2.0244187   0.0000000   0.0000000   0.0000000
                 15       1.435652   0.0000000   0.0000000   0.0000000   0.9347533   0.0000000   0.0000000
                 16       0.318378   0.0000000   0.0000000   0.0000000   0.0000000   0.3020768   0.0000000
                 17       0.116226   0.0000000   0.0000000   0.0000000   0.0000000   0.0000000   0.1418693

AS#1  1  X   
                 18    2678.942155  73.5554236   0.0000000   0.0000000   0.0000000   0.0000000
                 19     634.617658  99.2676207   0.0000000   0.0000000   0.0000000   0.0000000
                 20     203.939676 113.8094506   0.0000000   0.0000000   0.0000000   0.0000000
                 21      76.323890  96.6195071   0.0000000   0.0000000   0.0000000   0.0000000
                 22      30.664125  49.4321504   0.0000000   0.0000000   0.0000000   0.0000000
                 23      12.505057   9.0242514   0.0000000   0.0000000   0.0000000   0.0000000
                 24      49.256230   0.0000000  -3.5740144   0.0000000   0.0000000   0.0000000
                 25       7.727489   0.0000000   5.0633732   0.0000000   0.0000000   0.0000000
                 26       3.541049   0.0000000   3.3135362   0.0000000   0.0000000   0.0000000
                 27       1.698559   0.0000000   0.9321865   0.0000000   0.0000000   0.0000000
                 28       0.768481   0.0000000   0.0000000   1.0256078   0.0000000   0.0000000
                 29       0.300508   0.0000000   0.0000000   0.0000000   0.3171470   0.0000000
                 30       0.098191   0.0000000   0.0000000   0.0000000   0.0000000   0.0783480

AS#1  1  Y   
                 31    2678.942155  73.5554236   0.0000000   0.0000000   0.0000000   0.0000000
                 32     634.617658  99.2676207   0.0000000   0.0000000   0.0000000   0.0000000
                 33     203.939676 113.8094506   0.0000000   0.0000000   0.0000000   0.0000000
                 34      76.323890  96.6195071   0.0000000   0.0000000   0.0000000   0.0000000
                 35      30.664125  49.4321504   0.0000000   0.0000000   0.0000000   0.0000000
                 36      12.505057   9.0242514   0.0000000   0.0000000   0.0000000   0.0000000
                 37      49.256230   0.0000000  -3.5740144   0.0000000   0.0000000   0.0000000
                 38       7.727489   0.0000000   5.0633732   0.0000000   0.0000000   0.0000000
                 39       3.541049   0.0000000   3.3135362   0.0000000   0.0000000   0.0000000
                 40       1.698559   0.0000000   0.9321865   0.0000000   0.0000000   0.0000000
                 41       0.768481   0.0000000   0.0000000   1.0256078   0.0000000   0.0000000
                 42       0.300508   0.0000000   0.0000000   0.0000000   0.3171470   0.0000000
                 43       0.098191   0.0000000   0.0000000   0.0000000   0.0000000   0.0783480

AS#1  1  Z   
                 44    2678.942155  73.5554236   0.0000000   0.0000000   0.0000000   0.0000000
                 45     634.617658  99.2676207   0.0000000   0.0000000   0.0000000   0.0000000
                 46     203.939676 113.8094506   0.0000000   0.0000000   0.0000000   0.0000000
                 47      76.323890  96.6195071   0.0000000   0.0000000   0.0000000   0.0000000
                 48      30.664125  49.4321504   0.0000000   0.0000000   0.0000000   0.0000000
                 49      12.505057   9.0242514   0.0000000   0.0000000   0.0000000   0.0000000
                 50      49.256230   0.0000000  -3.5740144   0.0000000   0.0000000   0.0000000
                 51       7.727489   0.0000000   5.0633732   0.0000000   0.0000000   0.0000000
                 52       3.541049   0.0000000   3.3135362   0.0000000   0.0000000   0.0000000
                 53       1.698559   0.0000000   0.9321865   0.0000000   0.0000000   0.0000000
                 54       0.768481   0.0000000   0.0000000   1.0256078   0.0000000   0.0000000
                 55       0.300508   0.0000000   0.0000000   0.0000000   0.3171470   0.0000000
                 56       0.098191   0.0000000   0.0000000   0.0000000   0.0000000   0.0783480

AS#1  1  XX  
                 57     135.332893 167.2960141   0.0000000   0.0000000   0.0000000
                 58      39.860213 132.0792280   0.0000000   0.0000000   0.0000000
                 59      14.446428  74.8225896   0.0000000   0.0000000   0.0000000
                 60       5.643290  26.1339635   0.0000000   0.0000000   0.0000000
                 61       2.166819   5.0599897   0.0000000   0.0000000   0.0000000
                 62       0.765150   0.0000000   1.7845401   0.0000000   0.0000000
                 63       0.424347   0.0000000   0.0000000   0.6360353   0.0000000
                 64       0.163315   0.0000000   0.0000000   0.0000000   0.1196099

AS#1  1  XY  
                 65     135.332893 167.2960141   0.0000000   0.0000000   0.0000000
                 66      39.860213 132.0792280   0.0000000   0.0000000   0.0000000
                 67      14.446428  74.8225896   0.0000000   0.0000000   0.0000000
                 68       5.643290  26.1339635   0.0000000   0.0000000   0.0000000
                 69       2.166819   5.0599897   0.0000000   0.0000000   0.0000000
                 70       0.765150   0.0000000   1.7845401   0.0000000   0.0000000
                 71       0.424347   0.0000000   0.0000000   0.6360353   0.0000000
                 72       0.163315   0.0000000   0.0000000   0.0000000   0.1196099

AS#1  1  XZ  
                 73     135.332893 167.2960141   0.0000000   0.0000000   0.0000000
                 74      39.860213 132.0792280   0.0000000   0.0000000   0.0000000
                 75      14.446428  74.8225896   0.0000000   0.0000000   0.0000000
                 76       5.643290  26.1339635   0.0000000   0.0000000   0.0000000
                 77       2.166819   5.0599897   0.0000000   0.0000000   0.0000000
                 78       0.765150   0.0000000   1.7845401   0.0000000   0.0000000
                 79       0.424347   0.0000000   0.0000000   0.6360353   0.0000000
                 80       0.163315   0.0000000   0.0000000   0.0000000   0.1196099

AS#1  1  YY  
                 81     135.332893 167.2960141   0.0000000   0.0000000   0.0000000
                 82      39.860213 132.0792280   0.0000000   0.0000000   0.0000000
                 83      14.446428  74.8225896   0.0000000   0.0000000   0.0000000
                 84       5.643290  26.1339635   0.0000000   0.0000000   0.0000000
                 85       2.166819   5.0599897   0.0000000   0.0000000   0.0000000
                 86       0.765150   0.0000000   1.7845401   0.0000000   0.0000000
                 87       0.424347   0.0000000   0.0000000   0.6360353   0.0000000
                 88       0.163315   0.0000000   0.0000000   0.0000000   0.1196099

AS#1  1  YZ  
                 89     135.332893 167.2960141   0.0000000   0.0000000   0.0000000
                 90      39.860213 132.0792280   0.0000000   0.0000000   0.0000000
                 91      14.446428  74.8225896   0.0000000   0.0000000   0.0000000
                 92       5.643290  26.1339635   0.0000000   0.0000000   0.0000000
                 93       2.166819   5.0599897   0.0000000   0.0000000   0.0000000
                 94       0.765150   0.0000000   1.7845401   0.0000000   0.0000000
                 95       0.424347   0.0000000   0.0000000   0.6360353   0.0000000
                 96       0.163315   0.0000000   0.0000000   0.0000000   0.1196099

AS#1  1  ZZ  
                 97     135.332893 167.2960141   0.0000000   0.0000000   0.0000000
                 98      39.860213 132.0792280   0.0000000   0.0000000   0.0000000
                 99      14.446428  74.8225896   0.0000000   0.0000000   0.0000000
                100       5.643290  26.1339635   0.0000000   0.0000000   0.0000000
                101       2.166819   5.0599897   0.0000000   0.0000000   0.0000000
                102       0.765150   0.0000000   1.7845401   0.0000000   0.0000000
                103       0.424347   0.0000000   0.0000000   0.6360353   0.0000000
                104       0.163315   0.0000000   0.0000000   0.0000000   0.1196099

AS#1  1  F300
                105       0.432719   0.8658934

AS#1  1  F210
                106       0.432719   0.8658934

AS#1  1  F201
                107       0.432719   0.8658934

AS#1  1  F120
                108       0.432719   0.8658934

AS#1  1  F111
                109       0.432719   0.8658934

AS#1  1  F102
                110       0.432719   0.8658934

AS#1  1  F030
                111       0.432719   0.8658934

AS#1  1  F021
                112       0.432719   0.8658934

AS#1  1  F012
                113       0.432719   0.8658934

AS#1  1  F003
                114       0.432719   0.8658934

H #2  1  S   
                115      34.061341   0.2556299   0.0000000   0.0000000
                116       5.123575   0.4613600   0.0000000   0.0000000
                117       1.164663   0.6811215   0.0000000   0.0000000
                118       0.327230   0.0000000   0.3083545   0.0000000
                119       0.103072   0.0000000   0.0000000   0.1296483

H #2  1  X   
                120       1.407000   2.1842770   0.0000000
                121       0.388000   0.0000000   0.4364955

H #2  1  Y   
                122       1.407000   2.1842770   0.0000000
                123       0.388000   0.0000000   0.4364955

H #2  1  Z   
                124       1.407000   2.1842770   0.0000000
                125       0.388000   0.0000000   0.4364955

H #2  1  XX  
                126       1.057000   3.1412414

H #2  1  XY  
                127       1.057000   3.1412414

H #2  1  XZ  
                128       1.057000   3.1412414

H #2  1  YY  
                129       1.057000   3.1412414

H #2  1  YZ  
                130       1.057000   3.1412414

H #2  1  ZZ  
                131       1.057000   3.1412414

H #3  1  S   
                132      34.061341   0.2556299   0.0000000   0.0000000
                133       5.123575   0.4613600   0.0000000   0.0000000
                134       1.164663   0.6811215   0.0000000   0.0000000
                135       0.327230   0.0000000   0.3083545   0.0000000
                136       0.103072   0.0000000   0.0000000   0.1296483

H #3  2  S   
                137      34.061341   0.2556299   0.0000000   0.0000000
                138       5.123575   0.4613600   0.0000000   0.0000000
                139       1.164663   0.6811215   0.0000000   0.0000000
                140       0.327230   0.0000000   0.3083545   0.0000000
                141       0.103072   0.0000000   0.0000000   0.1296483

H #3  1  X   
                142       1.407000   2.1842770   0.0000000
                143       0.388000   0.0000000   0.4364955

H #3  2  X   
                144       1.407000   2.1842770   0.0000000
                145       0.388000   0.0000000   0.4364955

H #3  1  Y   
                146       1.407000   2.1842770   0.0000000
                147       0.388000   0.0000000   0.4364955

H #3  2  Y   
                148       1.407000   2.1842770   0.0000000
                149       0.388000   0.0000000   0.4364955

H #3  1  Z   
                150       1.407000   2.1842770   0.0000000
                151       0.388000   0.0000000   0.4364955

H #3  2  Z   
                152       1.407000   2.1842770   0.0000000
                153       0.388000   0.0000000   0.4364955

H #3  1  XX  
                154       1.057000   3.1412414

H #3  2  XX  
                155       1.057000   3.1412414

H #3  1  XY  
                156       1.057000   3.1412414

H #3  2  XY  
                157       1.057000   3.1412414

H #3  1  XZ  
                158       1.057000   3.1412414

H #3  2  XZ  
                159       1.057000   3.1412414

H #3  1  YY  
                160       1.057000   3.1412414

H #3  2  YY  
                161       1.057000   3.1412414

H #3  1  YZ  
                162       1.057000   3.1412414

H #3  2  YZ  
                163       1.057000   3.1412414

H #3  1  ZZ  
                164       1.057000   3.1412414

H #3  2  ZZ  
                165       1.057000   3.1412414

SYMMETRY TRANSFORMATION INTO 90 SYMMETRY-ADAPTED BASIS FUNCTIONS

    IRREDUCIBLE REPRESENTATION NUMBER 1

    1    1 AS#1 S      1   1.0
    2    2 AS#1 S      2   1.0
    3    3 AS#1 S      3   1.0
    4    4 AS#1 S      4   1.0
    5    5 AS#1 S      5   1.0
    6    6 AS#1 S      6   1.0
    7    7 AS#1 X      7   1.0
    8    8 AS#1 X      8   1.0
    9    9 AS#1 X      9   1.0
   10   10 AS#1 X     10   1.0
   11   11 AS#1 X     11   1.0
   12   12 AS#1 Y     12   1.0
   13   13 AS#1 Y     13   1.0
   14   14 AS#1 Y     14   1.0
   15   15 AS#1 Y     15   1.0
   16   16 AS#1 Y     16   1.0
   17   17 AS#1 XX    22  -1.0  34  -1.0  42   2.0
   18   18 AS#1 XX    23  -1.0  35  -1.0  43   2.0
   19   19 AS#1 XX    24  -1.0  36  -1.0  44   2.0
   20   20 AS#1 XX    25  -1.0  37  -1.0  45   2.0
   21   21 AS#1 XY    26   1.0
   22   22 AS#1 XY    27   1.0
   23   23 AS#1 XY    28   1.0
   24   24 AS#1 XY    29   1.0
   25   25 AS#1 YY    22   1.0  34  -1.0
   26   26 AS#1 YY    23   1.0  35  -1.0
   27   27 AS#1 YY    24   1.0  36  -1.0
   28   28 AS#1 YY    25   1.0  37  -1.0
   29   29 AS#1 ZZ    46  -1.0  49  -1.0  51   4.0
   30   30 AS#1 ZZ    47  -1.0  52  -1.0  54   4.0
   31   31 AS#1 ZZ    46   1.0  49  -3.0
   32   32 AS#1 ZZ    47   3.0  52  -1.0
   33   33 AS#1 F300  56   1.0
   34   34 AS#1 F210  57   1.0
   35   35 AS#1 F120  58   1.0
   36   36 AS#1 F102  59   1.0
   37   37 AS#1 F030  60   1.0
   38   38 AS#1 F012  61   1.0
   39   39 H #2 S     62   1.0
   40   40 H #2 S     65  -1.0  68  -1.0  70   2.0
   41   41 H #2 S     66   1.0
   42   42 H #2 X     65   1.0  68  -1.0
   43   43 H #2 X     71   1.0  72   1.0
   44   44 H #2 Y     73   1.0  74   1.0
   45   45 H #2 Y     75   1.0  76   1.0
   46   46 H #2 XX    77   1.0  78   1.0
   47   47 H #2 XY    79   1.0  80   1.0
   48   48 H #2 YY    81   1.0  82   1.0
   49   49 H #2 ZZ    83   1.0  84   1.0
   50   50 H #3 S     85   1.0  86  -1.0
   51   51 H #3 S     87   1.0  88  -1.0
   52   52 H #3 S     89  -1.0  90  -1.0  95  -1.0  96  -1.0  99   2.0 100   2.0
   53   53 H #3 X     91   1.0  92   1.0
   54   54 H #3 X     93   1.0  94  -1.0
   55   55 H #3 Y     89   1.0  90   1.0  95  -1.0  96  -1.0
   56   56 H #3 Y     97   1.0  98  -1.0
   57   57 H #3 Z     17   1.0
   58   58 H #3 Z     18   1.0
   59   59 H #3 XX    19   1.0
   60   60 H #3 XY    20   1.0
   61   61 H #3 XZ    21   1.0
   62   62 H #3 YY    30   1.0
   63   63 H #3 YZ    31   1.0
   64   64 H #3 ZZ    32   1.0

    IRREDUCIBLE REPRESENTATION NUMBER 2

   65    1 AS#1 Z     33   1.0
   66    2 AS#1 Z     38   1.0
   67    3 AS#1 Z     39   1.0
   68    4 AS#1 Z     40   1.0
   69    5 AS#1 Z     41   1.0
   70    6 AS#1 XZ    48  -3.0  53  -3.0  55   2.0
   71    7 AS#1 XZ    50   1.0
   72    8 AS#1 XZ    48   1.0  53  -1.0
   73    9 AS#1 XZ    63   1.0
   74   10 AS#1 YZ    64   1.0
   75   11 AS#1 YZ    67   1.0
   76   12 AS#1 YZ    69   1.0
   77   13 AS#1 YZ    71   1.0  72  -1.0
   78   14 AS#1 F201  73   1.0  74  -1.0
   79   15 AS#1 F111  75   1.0  76  -1.0
   80   16 AS#1 F021  77   1.0  78  -1.0
   81   17 AS#1 F003  79   1.0  80  -1.0
   82   18 H #2 Z     81   1.0  82  -1.0
   83   19 H #2 Z     83   1.0  84  -1.0
   84   20 H #2 XZ    85   1.0  86   1.0
   85   21 H #2 YZ    87   1.0  88   1.0
   86   22 H #3 S     89  -1.0  90   1.0  95  -1.0  96   1.0  99   2.0 100  -2.0
   87   23 H #3 S     91   1.0  92  -1.0
   88   24 H #3 S     93   1.0  94   1.0
   89   25 H #3 X     89   1.0  90  -1.0  95  -1.0  96   1.0
   90   26 H #3 X     97   1.0  98   1.0
   91   27 H #3 Y   
   92   28 H #3 Y   
   93   29 H #3 Z   
   94   30 H #3 Z   
   95   31 H #3 XX  
   96   32 H #3 XY  
   97   33 H #3 XZ  
   98   34 H #3 YY  
   99   35 H #3 YZ  
  100   36 H #3 ZZ  

NUCLEAR REPULSION ENERGY:   35.4011374428 A.U.

One-electron integrals took 0.015943 seconds

  @TWOEL-I,    1324444 INTEGRALS OF SYMMETRY TYPE  I I I I
  @TWOEL-I,    1695745 INTEGRALS OF SYMMETRY TYPE  I J I J
  @TWOEL-I,     885313 INTEGRALS OF SYMMETRY TYPE  I I J J
  @TWOEL-I, TOTAL NUMBER OF 2-E INTEGRALS    3905502

Two-electron integrals took 8.051612 seconds

Nuclear repulsion energy: 35.401137442811
--executable xvmol finished with status     0 in       11.93 seconds (walltime).
 --invoking executable--
/project1/nike/cfour_v2.00beta_May2019xnmol_noLABBASIS/bin/xvmol2ja
--executable xvmol2ja finished with status     0 in        0.97 seconds (walltime).
 --invoking executable--
/project1/nike/cfour_v2.00beta_May2019xnmol_noLABBASIS/bin/xvscf
  There are   90 functions in the AO basis.

  There are 2 irreducible representations.

       Irrep        # of functions
         1                 56
         2                 34


  Parameters for SCF calculation: 
        SCF reference function: ROHF  
  Maximum number of iterations: ****
     Full symmetry point group: C s 
     Computational point group: C s 
        Initial density matrix: CORE                   
     SCF convergence tolerance: 10**(-12)
  DIIS convergence acceleration:  ON
          Latest start for DIIS:   5
                     DIIS order:   6

  Memory information:     418596 words required.
  Fock matrices are constructed from AO integral file.
 @GETMEM-I,  Allocated       3 MB of main memory.
  Initialization and symmetry analysis required      0.002 seconds.

  @INITGES-I, Occupancies from core Hamiltonian:

          Alpha population by irrep:  13    5
           Beta population by irrep:  12    5


 total no. of electrons in initial guess :  0.000000000000000E+000
 total no. of electrons in initial guess :  0.000000000000000E+000
  --------------------------------------------------------------------
  Iteration         Total Energy            Largest Density Difference
  --------------------------------------------------------------------
       0            35.401137442811226              0.0000000000D+00
   current occupation vector 
    13  5
    12  5
  processed                1324444  ao basis integrals from 
                  2208  buffers.
  processed                 885313  ao basis integrals from 
                  1476  buffers.
  processed                1695745  ao basis integrals from 
                  2827  buffers.
       1         -2196.416942771259528              0.9616147115D+01
   current occupation vector 
    13  5
    12  5
  processed                1324444  ao basis integrals from 
                  2208  buffers.
  processed                 885313  ao basis integrals from 
                  1476  buffers.
  processed                1695745  ao basis integrals from 
                  2827  buffers.
       2         -2138.331537560973629              0.1194733702D+02
   current occupation vector 
    13  5
    13  4
  processed                1324444  ao basis integrals from 
                  2208  buffers.
  processed                 885313  ao basis integrals from 
                  1476  buffers.
  processed                1695745  ao basis integrals from 
                  2827  buffers.
       3         -2210.801424103205591              0.1199953192D+02
   current occupation vector 
    13  5
    12  5
  processed                1324444  ao basis integrals from 
                  2208  buffers.
  processed                 885313  ao basis integrals from 
                  1476  buffers.
  processed                1695745  ao basis integrals from 
                  2827  buffers.
       4         -2143.001663818166435              0.1162704739D+02
   current occupation vector 
    13  5
    12  5
 
 sum over diagonal and offdiagdiagonal of C(T)*S*C for irrep
                     1
  1.566524687746096E-013 -6.016453873339032E-013
 reorthoganalization of MOs is carried out
 sum over diagonal and offdiagdiagonal of C(T)*S*C for irrep
                     1
 -9.325873406851315E-015 -9.137480248309461E-014
 
 sum over diagonal and offdiagdiagonal of C(T)*S*C for irrep
                     2
  1.016964290556643E-013  6.583782942891565E-014
 reorthoganalization of MOs is carried out
 sum over diagonal and offdiagdiagonal of C(T)*S*C for irrep
                     2
 -6.661338147750939E-016 -2.959680549084951E-014
  processed                1324444  ao basis integrals from 
                  2208  buffers.
  processed                 885313  ao basis integrals from 
                  1476  buffers.
  processed                1695745  ao basis integrals from 
                  2827  buffers.
       5         -2211.180088541739678              0.1162576472D+02
   current occupation vector 
    13  5
    12  5
  processed                1324444  ao basis integrals from 
                  2208  buffers.
  processed                 885313  ao basis integrals from 
                  1476  buffers.
  processed                1695745  ao basis integrals from 
                  2827  buffers.
       6         -2235.349461744522159              0.3199152786D+01
   current occupation vector 
    13  5
    12  5
  processed                1324444  ao basis integrals from 
                  2208  buffers.
  processed                 885313  ao basis integrals from 
                  1476  buffers.
  processed                1695745  ao basis integrals from 
                  2827  buffers.
       7         -2235.569605829608918              0.4726753908D+00
   current occupation vector 
    13  5
    12  5
  processed                1324444  ao basis integrals from 
                  2208  buffers.
  processed                 885313  ao basis integrals from 
                  1476  buffers.
  processed                1695745  ao basis integrals from 
                  2827  buffers.
       8         -2235.579748348700377              0.3629462524D-01
   current occupation vector 
    13  5
    12  5
  processed                1324444  ao basis integrals from 
                  2208  buffers.
  processed                 885313  ao basis integrals from 
                  1476  buffers.
  processed                1695745  ao basis integrals from 
                  2827  buffers.
       9         -2235.583227120773245              0.3401782714D-01
   current occupation vector 
    13  5
    12  5
 
 sum over diagonal and offdiagdiagonal of C(T)*S*C for irrep
                     1
  2.899902540320909E-013 -1.707803749865842E-013
 reorthoganalization of MOs is carried out
 sum over diagonal and offdiagdiagonal of C(T)*S*C for irrep
                     1
 -5.551115123125783E-015  3.975540517330548E-014
 
 sum over diagonal and offdiagdiagonal of C(T)*S*C for irrep
                     2
  1.005862060310392E-013 -7.877206784644277E-014
 reorthoganalization of MOs is carried out
 sum over diagonal and offdiagdiagonal of C(T)*S*C for irrep
                     2
 -1.221245327087672E-015 -2.508769818165358E-014
  processed                1324444  ao basis integrals from 
                  2208  buffers.
  processed                 885313  ao basis integrals from 
                  1476  buffers.
  processed                1695745  ao basis integrals from 
                  2827  buffers.
      10         -2235.583267027472175              0.1912785903D-02
   current occupation vector 
    13  5
    12  5
  processed                1324444  ao basis integrals from 
                  2208  buffers.
  processed                 885313  ao basis integrals from 
                  1476  buffers.
  processed                1695745  ao basis integrals from 
                  2827  buffers.
      11         -2235.583271514423359              0.4663357229D-03
   current occupation vector 
    13  5
    12  5
  processed                1324444  ao basis integrals from 
                  2208  buffers.
  processed                 885313  ao basis integrals from 
                  1476  buffers.
  processed                1695745  ao basis integrals from 
                  2827  buffers.
      12         -2235.583271591782250              0.1778291417D-03
   current occupation vector 
    13  5
    12  5
  processed                1324444  ao basis integrals from 
                  2208  buffers.
  processed                 885313  ao basis integrals from 
                  1476  buffers.
  processed                1695745  ao basis integrals from 
                  2827  buffers.
      13         -2235.583271595935912              0.1618116804D-04
   current occupation vector 
    13  5
    12  5
  processed                1324444  ao basis integrals from 
                  2208  buffers.
  processed                 885313  ao basis integrals from 
                  1476  buffers.
  processed                1695745  ao basis integrals from 
                  2827  buffers.
      14         -2235.583271596124632              0.5054002236D-05
   current occupation vector 
    13  5
    12  5
 
 sum over diagonal and offdiagdiagonal of C(T)*S*C for irrep
                     1
  8.881784197001252E-015 -2.389699296817418E-013
 reorthoganalization of MOs is carried out
 sum over diagonal and offdiagdiagonal of C(T)*S*C for irrep
                     1
  1.665334536937735E-014  9.613261630957366E-014
 
 sum over diagonal and offdiagdiagonal of C(T)*S*C for irrep
                     2
 -5.262457136723242E-014 -3.867047690271226E-014
 reorthoganalization of MOs is carried out
 sum over diagonal and offdiagdiagonal of C(T)*S*C for irrep
                     2
  5.107025913275720E-015 -2.949434729697994E-015
  processed                1324444  ao basis integrals from 
                  2208  buffers.
  processed                 885313  ao basis integrals from 
                  1476  buffers.
  processed                1695745  ao basis integrals from 
                  2827  buffers.
      15         -2235.583271596141458              0.1204961388D-05
   current occupation vector 
    13  5
    12  5
  processed                1324444  ao basis integrals from 
                  2208  buffers.
  processed                 885313  ao basis integrals from 
                  1476  buffers.
  processed                1695745  ao basis integrals from 
                  2827  buffers.
      16         -2235.583271596134182              0.4835125605D-06
   current occupation vector 
    13  5
    12  5
  processed                1324444  ao basis integrals from 
                  2208  buffers.
  processed                 885313  ao basis integrals from 
                  1476  buffers.
  processed                1695745  ao basis integrals from 
                  2827  buffers.
      17         -2235.583271596139184              0.1515317518D-06
   current occupation vector 
    13  5
    12  5
  processed                1324444  ao basis integrals from 
                  2208  buffers.
  processed                 885313  ao basis integrals from 
                  1476  buffers.
  processed                1695745  ao basis integrals from 
                  2827  buffers.
      18         -2235.583271596130999              0.1462857155D-07
   current occupation vector 
    13  5
    12  5
  processed                1324444  ao basis integrals from 
                  2208  buffers.
  processed                 885313  ao basis integrals from 
                  1476  buffers.
  processed                1695745  ao basis integrals from 
                  2827  buffers.
      19         -2235.583271596143277              0.2091383636D-08
   current occupation vector 
    13  5
    12  5
 
 sum over diagonal and offdiagdiagonal of C(T)*S*C for irrep
                     1
  1.081357225984902E-013 -2.296274505347580E-013
 reorthoganalization of MOs is carried out
 sum over diagonal and offdiagdiagonal of C(T)*S*C for irrep
                     1
 -4.107825191113079E-015  1.629152058025221E-014
 
 sum over diagonal and offdiagdiagonal of C(T)*S*C for irrep
                     2
  7.771561172376096E-014  1.048837613133444E-014
 reorthoganalization of MOs is carried out
 sum over diagonal and offdiagdiagonal of C(T)*S*C for irrep
                     2
  7.771561172376096E-015 -4.122302401969225E-016
  processed                1324444  ao basis integrals from 
                  2208  buffers.
  processed                 885313  ao basis integrals from 
                  1476  buffers.
  processed                1695745  ao basis integrals from 
                  2827  buffers.
      20         -2235.583271596145096              0.8079844016D-09
   current occupation vector 
    13  5
    12  5
  processed                1324444  ao basis integrals from 
                  2208  buffers.
  processed                 885313  ao basis integrals from 
                  1476  buffers.
  processed                1695745  ao basis integrals from 
                  2827  buffers.
      21         -2235.583271596144186              0.2513881325D-09
   current occupation vector 
    13  5
    12  5
  processed                1324444  ao basis integrals from 
                  2208  buffers.
  processed                 885313  ao basis integrals from 
                  1476  buffers.
  processed                1695745  ao basis integrals from 
                  2827  buffers.
      22         -2235.583271596148734              0.2205433058D-10
   current occupation vector 
    13  5
    12  5
  processed                1324444  ao basis integrals from 
                  2208  buffers.
  processed                 885313  ao basis integrals from 
                  1476  buffers.
  processed                1695745  ao basis integrals from 
                  2827  buffers.
      23         -2235.583271596149643              0.3925627184D-11
   current occupation vector 
    13  5
    12  5
  processed                1324444  ao basis integrals from 
                  2208  buffers.
  processed                 885313  ao basis integrals from 
                  1476  buffers.
  processed                1695745  ao basis integrals from 
                  2827  buffers.
      24         -2235.583271596150098              0.1942335182D-11
   current occupation vector 
    13  5
    12  5
 
 sum over diagonal and offdiagdiagonal of C(T)*S*C for irrep
                     1
  2.287059430727822E-013 -6.694901187262275E-014
 reorthoganalization of MOs is carried out
 sum over diagonal and offdiagdiagonal of C(T)*S*C for irrep
                     1
  9.769962616701378E-015 -5.072560990450032E-014
 
 sum over diagonal and offdiagdiagonal of C(T)*S*C for irrep
                     2
  1.263433802023428E-013  6.703365684325678E-014
 reorthoganalization of MOs is carried out
 sum over diagonal and offdiagdiagonal of C(T)*S*C for irrep
                     2
  4.329869796038111E-015 -2.438645608660904E-014

  SCF has converged.

 Density matrix saved to file den.dat
 total alpha spin electron number:   18.0000000000000     
 total  beta spin electron number:   17.0000000000000     
  processed                1324444  ao basis integrals from 
                  2208  buffers.
  processed                 885313  ao basis integrals from 
                  1476  buffers.
  processed                1695745  ao basis integrals from 
                  2827  buffers.
     E(ROHF)=     -2235.583271596153281              0.5920264279D-12


       The average multiplicity is    2.0000000
  The expectation value of S**2 is    0.7500000

 @PUTMOS-I, Writing converged MOs to NEWMOS. 
 @PUTMOS-I, Symmetry   1 Full Blocks 14 Partial Blocksize   0
 @PUTMOS-I, Symmetry   2 Full Blocks  8 Partial Blocksize   2
  @DMPJOB-I, Rotating orbitals to semicanonical basis.
             *** Eigenvalues correspond to new basis. ***

--------------------------------------------------------------------------------
Eigenvalue   -432.911470    -56.635333    -50.482850    -50.479256    -50.479255
 Symmetry         A'            A'            A'           E             E       
--------------------------------------------------------------------------------
   1 S         0.9974377     0.3248709     0.0005920    -0.0000002     0.0000000
   1 S         0.0075752    -1.0392935    -0.0019565     0.0000007     0.0000000
   1 S        -0.0031726    -0.0393223    -0.0002048     0.0000001     0.0000000
   1 S         0.0027138     0.0124052     0.0002802    -0.0000001     0.0000000
   1 S        -0.0012626    -0.0041924     0.0001651    -0.0000003     0.0000000
   1 S        -0.0002941    -0.0004963    -0.0019665     0.0000017     0.0000000
   1 PX        0.0000000     0.0000040    -0.0018510     0.9920951     0.0000000
   1 PY       -0.0000012     0.0018394    -0.9921093    -0.0018510     0.0000000
   1 PZ        0.0000000     0.0000000     0.0000000     0.0000000     0.9920968
   1 PX        0.0000000     0.0000001    -0.0000409     0.0219512     0.0000000
   1 PY       -0.0000208     0.0000339    -0.0218795    -0.0000409     0.0000000
   1 PZ        0.0000000     0.0000000     0.0000000     0.0000000     0.0219514
   1 PX        0.0000004     0.0000011     0.0000136    -0.0076188     0.0000000
   1 PY        0.0001954     0.0005178     0.0071864     0.0000140     0.0000000
   1 PZ        0.0000000     0.0000000     0.0000000     0.0000000    -0.0076196
   1 PX       -0.0000015    -0.0000043    -0.0000086     0.0055919     0.0000000
   1 PY       -0.0006953    -0.0019644    -0.0042928    -0.0000100     0.0000000
   1 PZ        0.0000000     0.0000000     0.0000000     0.0000000     0.0055937
   1 PX       -0.0000002    -0.0000003    -0.0000001    -0.0003386     0.0000000
   1 PY       -0.0000683    -0.0001327     0.0002740     0.0000012     0.0000000
   1 PZ        0.0000000     0.0000000     0.0000000     0.0000000    -0.0003376
   1 DX2      -0.0000002     0.0000060    -0.0000392     0.0000205     0.0000000
   1 DXY       0.0000000    -0.0000001     0.0000005    -0.0000611     0.0000000
   1 DXZ       0.0000000     0.0000000     0.0000000     0.0000000    -0.0000414
   1 DY2       0.0000004    -0.0000119     0.0000783     0.0000001     0.0000000
   1 DYZ       0.0000000     0.0000000     0.0000000     0.0000000    -0.0000609
   1 DZZ      -0.0000002     0.0000059    -0.0000392    -0.0000206     0.0000000
   1 DX2       0.0000037     0.0000099     0.0000139    -0.0002449     0.0000000
   1 DXY       0.0000000     0.0000000    -0.0000001    -0.0006209     0.0000000
   1 DXZ       0.0000000     0.0000000     0.0000000     0.0000000     0.0004857
   1 DY2      -0.0000075    -0.0000201    -0.0000279     0.0000012     0.0000000
   1 DYZ       0.0000000     0.0000000     0.0000000     0.0000000    -0.0006234
   1 DZZ       0.0000038     0.0000102     0.0000141     0.0002437     0.0000000
   1 DX2      -0.0000103    -0.0000287     0.0000034     0.0005206     0.0000000
   1 DXY       0.0000000     0.0000000    -0.0000002     0.0014112     0.0000000
   1 DXZ       0.0000000     0.0000000     0.0000000     0.0000000    -0.0010320
   1 DY2       0.0000210     0.0000583    -0.0000065    -0.0000027     0.0000000
   1 DYZ       0.0000000     0.0000000     0.0000000     0.0000000     0.0014163
   1 DZZ      -0.0000106    -0.0000296     0.0000031    -0.0005178     0.0000000
   1 DX2       0.0000006    -0.0000009     0.0000746     0.0001782     0.0000000
   1 DXY       0.0000000    -0.0000001    -0.0000014     0.0007334     0.0000000
   1 DXZ       0.0000000     0.0000000     0.0000000     0.0000000    -0.0003518
   1 DY2      -0.0000011     0.0000019    -0.0001492    -0.0000014     0.0000000
   1 DYZ       0.0000000     0.0000000     0.0000000     0.0000000     0.0007359
   1 DZZ       0.0000005    -0.0000010     0.0000746    -0.0001768     0.0000000
   1 FX3      -0.0000313    -0.0000897    -0.0000274    -0.0000405     0.0000000
   1 FX2Y     -0.0000526    -0.0001503    -0.0000503     0.0002748     0.0000000
   1 FX2Z      0.0000000     0.0000000     0.0000000     0.0000000    -0.0000424
   1 FXY2      0.0000004     0.0000011     0.0000003     0.0001631     0.0000000
   1 FXYZ      0.0000000     0.0000000     0.0000000     0.0000000    -0.0005464
   1 FXZ2      0.0000936     0.0002680     0.0000819    -0.0000416     0.0000000
   1 FY3       0.0000352     0.0001007     0.0000337    -0.0000004     0.0000000
   1 FY2Z      0.0000000     0.0000000     0.0000000     0.0000000     0.0001655
   1 FYZ2     -0.0000531    -0.0001518    -0.0000508    -0.0002737     0.0000000
   1 FZ3       0.0000000     0.0000000     0.0000000     0.0000000    -0.0000410
   2 S        -0.0000721    -0.0001890    -0.0000458     0.0000953     0.0000000
   2 S         0.0004615     0.0013067     0.0008136    -0.0023176     0.0000000
   2 S         0.0000310     0.0000312     0.0002143    -0.0000639     0.0000000
   2 PX       -0.0000015    -0.0000188     0.0000462     0.0000700     0.0000000
   2 PY       -0.0000034    -0.0000172    -0.0000160     0.0000350     0.0000000
   2 PZ        0.0000000     0.0000000     0.0000000     0.0000000     0.0000421
   2 PX       -0.0002749    -0.0007692    -0.0005130     0.0010173     0.0000000
   2 PY       -0.0001767    -0.0005053    -0.0000227     0.0007359     0.0000000
   2 PZ        0.0000000     0.0000000     0.0000000     0.0000000    -0.0002564
   2 DX2       0.0000273     0.0000725    -0.0000106     0.0000037     0.0000000
   2 DXY       0.0000752     0.0002038    -0.0001369     0.0000108     0.0000000
   2 DXZ       0.0000000     0.0000000     0.0000000     0.0000000     0.0000762
   2 DY2      -0.0000007    -0.0000010    -0.0000234     0.0000038     0.0000000
   2 DYZ       0.0000000     0.0000000     0.0000000     0.0000000    -0.0000301
   2 DZZ      -0.0000266    -0.0000715     0.0000340    -0.0000074     0.0000000
   3 S        -0.0000721    -0.0001890    -0.0000457    -0.0000475     0.0000826
   3 S         0.0004616     0.0013069     0.0008131     0.0011578    -0.0020076
   3 S         0.0000310     0.0000313     0.0002140     0.0000316    -0.0000555
   3 PX        0.0000008     0.0000094    -0.0000231     0.0000490    -0.0000120
   3 PY       -0.0000035    -0.0000173    -0.0000159    -0.0000177     0.0000304
   3 PZ       -0.0000013    -0.0000162     0.0000400    -0.0000121     0.0000630
   3 PX        0.0001369     0.0003830     0.0002563     0.0000607    -0.0005493
   3 PY       -0.0001775    -0.0005077    -0.0000242    -0.0003691     0.0006402
   3 PZ       -0.0002378    -0.0006655    -0.0004442    -0.0005504     0.0006982
   3 DX2      -0.0000132    -0.0000358     0.0000231    -0.0000263    -0.0000206
   3 DXY      -0.0000376    -0.0001019     0.0000682    -0.0000197    -0.0000176
   3 DXZ      -0.0000463    -0.0001239     0.0000381     0.0000377     0.0000107
   3 DY2      -0.0000005    -0.0000004    -0.0000238    -0.0000018     0.0000034
   3 DYZ       0.0000653     0.0001771    -0.0001186    -0.0000177     0.0000006
   3 DZZ       0.0000137     0.0000362     0.0000007     0.0000281     0.0000172
   4 S        -0.0000721    -0.0001890    -0.0000457    -0.0000475    -0.0000826
   4 S         0.0004616     0.0013069     0.0008131     0.0011578     0.0020076
   4 S         0.0000310     0.0000313     0.0002140     0.0000316     0.0000555
   4 PX        0.0000008     0.0000094    -0.0000231     0.0000490     0.0000120
   4 PY       -0.0000035    -0.0000173    -0.0000159    -0.0000177    -0.0000304
   4 PZ        0.0000013     0.0000162    -0.0000400     0.0000121     0.0000630
   4 PX        0.0001369     0.0003830     0.0002563     0.0000607     0.0005493
   4 PY       -0.0001775    -0.0005077    -0.0000242    -0.0003691    -0.0006402
   4 PZ        0.0002378     0.0006655     0.0004442     0.0005504     0.0006982
   4 DX2      -0.0000132    -0.0000358     0.0000231    -0.0000263     0.0000206
[...]
  W(mbej) BB contribution =  -0.0047328150 a.u.
  W(mbej) AB contribution = -0.1413228850 a.u.
   After  17 iterations, amplitude changes are:
    -------------------------------------------------------------------
                 Spin      RMS          Max.      Max. change for
     Amplitude   Case     Change       Change       i    j    a    b
    -------------------------------------------------------------------
        T1        AA    0.0000000000-0.0000000040    9        53
        T1        BB    0.0000000001-0.0000000241    5         9
        T2        AA    0.0000000000-0.0000000005    9    6   53   11
        T2        BB    0.0000000000 0.0000000009    5    4   14    9
        T2        AB    0.0000000000-0.0000000031    5    5   10    9
    -------------------------------------------------------------------
   The AA contribution to the correlation energy is:   -0.0383726 a.u.
   The BB contribution to the correlation energy is:   -0.0273455 a.u.
   The AB contribution to the correlation energy is:   -0.2065590 a.u.
   The total correlation energy is -0.272277139619 a.u.
   The total correlation energy is -0.272277139619 a.u.
  Current DIIS expansion coefficients : 
 [   1]-0.4193168387 [   2] 1.4824777114 [   3]-0.0084390231 [   4] 0.1020533885
 [   5]-0.1567752381
  Convergence information after    17 iterations: 
  Largest element of residual vector : -0.24139585E-07.
  Largest element of DIIS residual   : -0.97627325E-08.
  W(mnij) AA contribution =  0.0048185854 a.u.
  W(mnij) BB contribution =  0.0032867682 a.u.
  W(mnij) AB contribution =  0.0450112140 a.u.
  W(abef) AA contribution =  0.0047746442 a.u.
  W(abef) BB contribution =  0.0027914624 a.u.
  W(abef) AB contribution =  0.0570053686 a.u.
  W(mbej) AA contribution =  -0.0092533796 a.u.
  W(mbej) BB contribution =  -0.0047328150 a.u.
  W(mbej) AB contribution = -0.1413228837 a.u.
   After  18 iterations, amplitude changes are:
    -------------------------------------------------------------------
                 Spin      RMS          Max.      Max. change for
     Amplitude   Case     Change       Change       i    j    a    b
    -------------------------------------------------------------------
        T1        AA    0.0000000000-0.0000000010    6        11
        T1        BB    0.0000000000-0.0000000080    5         9
        T2        AA    0.0000000000-0.0000000003    9    6   53   11
        T2        BB    0.0000000000-0.0000000004    5    4   10    9
        T2        AB    0.0000000000-0.0000000020    5    5   10    9
    -------------------------------------------------------------------
   The AA contribution to the correlation energy is:   -0.0383726 a.u.
   The BB contribution to the correlation energy is:   -0.0273455 a.u.
   The AB contribution to the correlation energy is:   -0.2065590 a.u.
   The total correlation energy is -0.272277140141 a.u.
   The total correlation energy is -0.272277140141 a.u.
  Current DIIS expansion coefficients : 
 [   1]-0.2571278493 [   2]-0.2312560840 [   3] 1.3606957185 [   4]-0.0202985604
 [   5] 0.1479867753
  Convergence information after    18 iterations: 
  Largest element of residual vector : -0.80482513E-08.
  Largest element of DIIS residual   : -0.34260049E-08.
  W(mnij) AA contribution =  0.0048185855 a.u.
  W(mnij) BB contribution =  0.0032867682 a.u.
  W(mnij) AB contribution =  0.0450112137 a.u.
  W(abef) AA contribution =  0.0047746442 a.u.
  W(abef) BB contribution =  0.0027914624 a.u.
  W(abef) AB contribution =  0.0570053681 a.u.
  W(mbej) AA contribution =  -0.0092533797 a.u.
  W(mbej) BB contribution =  -0.0047328151 a.u.
  W(mbej) AB contribution = -0.1413228820 a.u.
   After  19 iterations, amplitude changes are:
    -------------------------------------------------------------------
                 Spin      RMS          Max.      Max. change for
     Amplitude   Case     Change       Change       i    j    a    b
    -------------------------------------------------------------------
        T1        AA    0.0000000000 0.0000000006    6        11
        T1        BB    0.0000000000-0.0000000023    4         9
        T2        AA    0.0000000000-0.0000000002    9    5   53   10
        T2        BB    0.0000000000-0.0000000002    5    4   10    9
        T2        AB    0.0000000000-0.0000000009    5    5   10    9
    -------------------------------------------------------------------
   The AA contribution to the correlation energy is:   -0.0383726 a.u.
   The BB contribution to the correlation energy is:   -0.0273455 a.u.
   The AB contribution to the correlation energy is:   -0.2065590 a.u.
   The total correlation energy is -0.272277139662 a.u.
   The total correlation energy is -0.272277139662 a.u.
  Current DIIS expansion coefficients : 
 [   1] 0.1337611356 [   2]-0.1297264775 [   3]-0.3587122914 [   4] 1.3906695713
 [   5]-0.0359919381
  Convergence information after    19 iterations: 
  Largest element of residual vector : -0.22700351E-08.
  Largest element of DIIS residual   : -0.13600302E-08.
  W(mnij) AA contribution =  0.0048185855 a.u.
  W(mnij) BB contribution =  0.0032867682 a.u.
  W(mnij) AB contribution =  0.0450112134 a.u.
  W(abef) AA contribution =  0.0047746442 a.u.
  W(abef) BB contribution =  0.0027914624 a.u.
  W(abef) AB contribution =  0.0570053679 a.u.
  W(mbej) AA contribution =  -0.0092533797 a.u.
  W(mbej) BB contribution =  -0.0047328151 a.u.
  W(mbej) AB contribution = -0.1413228811 a.u.
   After  20 iterations, amplitude changes are:
    -------------------------------------------------------------------
                 Spin      RMS          Max.      Max. change for
     Amplitude   Case     Change       Change       i    j    a    b
    -------------------------------------------------------------------
        T1        AA    0.0000000000 0.0000000004    6        11
        T1        BB    0.0000000000-0.0000000009    4         9
        T2        AA    0.0000000000-0.0000000001    9    5   53   10
        T2        BB    0.0000000000-0.0000000001    5    4   10    9
        T2        AB    0.0000000000 0.0000000003    5    5   11    9
    -------------------------------------------------------------------
   The AA contribution to the correlation energy is:   -0.0383726 a.u.
   The BB contribution to the correlation energy is:   -0.0273455 a.u.
   The AB contribution to the correlation energy is:   -0.2065590 a.u.
   The total correlation energy is -0.272277139598 a.u.
   The total correlation energy is -0.272277139598 a.u.
  Current DIIS expansion coefficients : 
 [   1]-0.0016430239 [   2] 0.0271979606 [   3]-0.0674886072 [   4]-0.2291414252
 [   5] 1.2710750958
  Convergence information after    20 iterations: 
  Largest element of residual vector : -0.88095533E-09.
  Largest element of DIIS residual   : -0.45528800E-09.
  Amplitude equations converged in    20iterations.
   The AA contribution to the correlation energy is:   -0.0383726 a.u.
   The BB contribution to the correlation energy is:   -0.0273455 a.u.
   The AB contribution to the correlation energy is:   -0.2065590 a.u.
   The total correlation energy is -0.272277139546 a.u.
   The total correlation energy is -0.272277139546 a.u.
   The CC iterations have converged.

            ----------------------------------------------
                     Projected spin multiplicities: 
            ----------------------------------------------
             <0|S^2|0>                  =    0.7500000000.
             <0|S^2 (T2+T1**2) |0>      =    0.0000000000.
             <0|S^2 T1|0>               =   -0.0000000006.
             Projected <0|S^2 exp(T)|0> =    0.7499999994.
             Approximate spin mult.     =    1.9999999994.
            ----------------------------------------------
   Largest T1 amplitudes for spin case AA:
   i       a                 i       a                 i       a    
-----------------------------------------------------------------------------
[  6      12    ]-0.02738 [  5      10    ]-0.02222 [  9      53    ] 0.02219
[  4      12    ] 0.01841 [  5      16    ] 0.01065 [  9      56    ] 0.01064
[  4      22    ] 0.00871 [  4      11    ] 0.00810 [  2      12    ] 0.00802
[  9      57    ]-0.00669 [  5      18    ]-0.00668 [  5      20    ]-0.00643
[  9      59    ] 0.00643 [  2      25    ]-0.00629 [  6      22    ]-0.00621
-----------------------------------------------------------------------------
   Norm of T1AA vector (      345 symmetry allowed elements):  0.0604043899.
-----------------------------------------------------------------------------
   Largest T2 amplitudes for spin case AA:
   i   j   a   b             i   j   a   b             i   j   a   b
-----------------------------------------------------------------------------
[  9   6  53  12]-0.02214 [  6   5  12  10] 0.02211 [  9   5  54  10] 0.01787
[  9   5  53  13] 0.01785 [  6   5  13  10] 0.01597 [  6   5  54  53]-0.01596
[  9   6  54  10]-0.01595 [  9   6  53  13] 0.01594 [  6   5  13  12]-0.01094
[  9   6  54  12]-0.01092 [  9   5  54  13]-0.01045 [  9   6  55  15]-0.00787
[  6   5  15  14] 0.00787 [  6   4  15  11]-0.00757 [  9   6  53  22]-0.00729
-----------------------------------------------------------------------------
   Norm of T2AA vector (    46008 symmetry allowed elements):  0.0988255048.
-----------------------------------------------------------------------------
   Largest T1 amplitudes for spin case BB:
   i       a                 i       a                 i       a    
-----------------------------------------------------------------------------
[  4       9    ] 0.03522 [  8      53    ] 0.01253 [  5      10    ]-0.01253
[  4      14    ]-0.01008 [  4      11    ] 0.00953 [  4      17    ] 0.00931
[  4      25    ] 0.00623 [  4      19    ] 0.00450 [  2      24    ]-0.00432
[  7      62    ]-0.00432 [  8      59    ]-0.00421 [  5      20    ] 0.00421
[  5      13    ]-0.00383 [  8      55    ] 0.00383 [  5      16    ] 0.00379
-----------------------------------------------------------------------------
   Norm of T1BB vector (      307 symmetry allowed elements):  0.0488709755.
-----------------------------------------------------------------------------
   Largest T2 amplitudes for spin case BB:
   i   j   a   b             i   j   a   b             i   j   a   b
-----------------------------------------------------------------------------
[  8   5  54  10] 0.01483 [  8   5  53  12] 0.01482 [  8   4  53   9]-0.01020
[  5   4  10   9] 0.01020 [  8   5  55  10]-0.00971 [  8   5  53  13]-0.00970
[  8   5  55  12] 0.00689 [  8   5  54  13] 0.00689 [  8   5  54  16]-0.00671
[  8   5  56  12] 0.00671 [  5   4  13   9]-0.00669 [  8   4  55   9] 0.00668
[  3   2  37  36] 0.00571 [  7   3  69  37]-0.00571 [  5   4  13  11] 0.00541
-----------------------------------------------------------------------------
   Norm of T2BB vector (    36716 symmetry allowed elements):  0.0723363898.
-----------------------------------------------------------------------------
   Largest T2 amplitudes for spin case AB:
       _       _                 _       _                 _       _
   i   j   a   b             i   j   a   b             i   j   a   b
-----------------------------------------------------------------------------
[  5   5  10  10]-0.05290 [  9   8  53  53]-0.05287 [  6   4  12   9]-0.03336
[  9   4  53   9]-0.03257 [  5   4  10   9] 0.03257 [  5   5  10  16] 0.02247
[  9   8  53  56]-0.02246 [  4   5  10   9] 0.02180 [  4   8  53   9]-0.02180
[  9   8  17   9]-0.02080 [  5   5  17   9]-0.02078 [  5   5  10  18] 0.02049
[  9   8  53  57]-0.02048 [  5   5  18  10] 0.01982 [  9   8  57  53]-0.01980
-----------------------------------------------------------------------------
   Norm of T2AB vector (   189846 symmetry allowed elements):  0.2862696634.
-----------------------------------------------------------------------------
       Summary of iterative solution of CC equations 
      -----------------------------------------------------------
                       Correlation           Total
       Iteration         Energy              Energy
      -----------------------------------------------------------
            0        -0.254608257338   -2235.837879853491  DIIS 
            1        -0.261125777132   -2235.844397373285  DIIS 
            2        -0.269929877550   -2235.853201473703  DIIS 
            3        -0.271159747550   -2235.854431343704  DIIS 
            4        -0.272235726339   -2235.855507322492  DIIS 
            5        -0.272284640546   -2235.855556236699  DIIS 
            6        -0.272274842212   -2235.855546438365  DIIS 
            7        -0.272277265529   -2235.855548861682  DIIS 
            8        -0.272275667896   -2235.855547264049  DIIS 
            9        -0.272277330685   -2235.855548926838  DIIS 
           10        -0.272277101745   -2235.855548697898  DIIS 
           11        -0.272277227785   -2235.855548823939  DIIS 
           12        -0.272277143604   -2235.855548739757  DIIS 
           13        -0.272277137045   -2235.855548733198  DIIS 
           14        -0.272277137132   -2235.855548733285  DIIS 
           15        -0.272277137485   -2235.855548733638  DIIS 
           16        -0.272277140173   -2235.855548736326  DIIS 
           17        -0.272277139619   -2235.855548735773  DIIS 
           18        -0.272277140141   -2235.855548736294  DIIS 
           19        -0.272277139662   -2235.855548735816  DIIS 
           20        -0.272277139546   -2235.855548735699  DIIS 
      -----------------------------------------------------------
      A miracle has come to pass. The CC iterations have converged.
 @DIMT3-I, Dimensions of T3 amplitudes : 
               # abc          # ijk       Symmetry    Spin 
                    29799             38     1          1
                    29841             46     2          1
                    93759            144     1          2
                    92829            144     2          2
                    95140            123     1          3
                    94076            129     2          3
                    31108             25     1          4
                    31088             31     2          4
 @DIMT3-I, Dimensions of T3 amplitudes : 
               # abc          # ijk       Symmetry    Spin 
                    29799             38     1          1
                    29841             46     2          1
                    93759            144     1          2
                    92829            144     2          2
                    95140            123     1          3
                    94076            129     2          3
                    31108             25     1          4
                    31088             31     2          4
 @TRPS-I, Welcome to TRPS. Watch your RUs ! 
 @TRPS-I, Method is CCSD(T) 
 @TRPS-I, Calculation type is energy 
 @TRPS-I, Reference function information : 
          Reference function is general non-HF 
 @TRPS-I, Reference function is ROHF 
 @TRPS-I, INT1 is true 
 @TRPS-I, INT2 is false 
 @TRPS-I, Lengths of ijka integrals. #1      11664
                                     #2       8146
                                     #3      20820
                                     #4      23787
                                    Max      23787
 @INITRP-I, Initializing W intermediate lists. 
 @TSPABCI-I, AbIc/AbcI record transposition. 
 @TSPABCI-I, (O,v) ---> (v,O) transposition. 
 @TSPABCI-I, In-core algorithm is being used. 
 @TSPABCI-I, In-core algorithm is being used. 
 @TRPS-I, Available memory in integer words    499959040
          Number of pre-allocated words for TRPS14        71542
          Number of free words for TRPS14    499887498
 @TRPS14-I, Spin case AAA 
 @TRPS14-I, Number of free integer words  499887498
            Number of free double words   499887498
            Ratio                                 1
 @TRPS14-I, E4TAAA      -0.000365277608
 @TRPS14-I, E5ST A    0.000041389396658
 @TRPS14-I, E4ST A    0.000004270212657
 @TRPS-I, Available memory in integer words    499959040
          Number of pre-allocated words for TRPS14        71534
          Number of free words for TRPS14    499887506
 @TRPS14-I, Spin case BBB 
 @TRPS14-I, Number of free integer words  499887506
            Number of free double words   499887506
            Ratio                                 1
 @TRPS14-I, E4TBBB      -0.000218548046
 @TRPS14-I, E5ST B    0.000016927621382
 @TRPS14-I, E4ST B   -0.000003080382713
 @SETOOOV-I, Some OOOV lists are being transposed. 
 @TRPS-I, Available memory in integer words    499959040
          Number of pre-allocated words for TRPS2       108477
          Number of free words for TRPS2    499850563
 @TRPS2-I, Spin case AAB 
 @TRPS2-I, Number of free integer words  499850563
           Number of free double  words  499850563
           Ratio                                 1
 @TRPS2-I, E4TBAA      -0.004618641182
 @TRPS2-I, E5ST A    0.000250319954572
 @TRPS2-I, E5ST B    0.000121384053522
 @TRPS2-I, E4ST A    0.000016132977013
 @TRPS2-I, E4ST B   -0.000010930802126
 @SETOOOV-I, Some OOOV lists are being transposed. 
 @TSPABCI2-I, (Alpha,Beta) ---> (Beta,Alpha). 
 @TSPABCI2-I, In-core algorithm is being used. 
 @TSPABCI2-I, In-core algorithm is being used. 
 @TSPABCI2-I, In-core algorithm is being used. 
 @TSPABCI2-I, In-core algorithm is being used. 
 @AT2IAB-I, Some AbIj lists are being altered. 
 @TRPS-I, Available memory in integer words    499959040
          Number of pre-allocated words for TRPS3       394691
          Number of free words for TRPS3    499564349
 @TRPS3-I, Spin case BBA 
 @TRPS3-I, Number of free integer words  499564349
           Number of free double  words  499564349
           Ratio                                 1
 @TRPS3-I, E4TBBA      -0.003418559612
 @TRPS3-I, E5ST A    0.000361301108037
 @TRPS3-I, E5ST B    0.000250355989954
 @TRPS3-I, E4ST A    0.000021195233247
 @TRPS3-I, E4ST B   -0.000026805518819
 @TSPABCI2-I, (Beta,Alpha) ---> (Alpha,Beta). 
 @TSPABCI2-I, In-core algorithm is being used. 
 @TSPABCI2-I, In-core algorithm is being used. 
 @TSPABCI2-I, In-core algorithm is being used. 
 @TSPABCI2-I, In-core algorithm is being used. 
 @AT2IAB-I, Some AbIj lists are being altered. 
 @TSPABCI-I, AbIc/AbcI record transposition. 
 @TSPABCI-I, (v,O) ---> (O,v) transposition. 
 @TSPABCI-I, In-core algorithm is being used. 
 @TSPABCI-I, In-core algorithm is being used. 
 @CCENRG-I, CCSD/QCISD energy will now be evaluated. 
 @CCENRG-I, Correlation energies. ECCAA       -0.038372585898
                                  ECCBB       -0.027345522816
                                  ECCAB       -0.206559030832
                                  Total       -0.272277139546
 @CCENRG-I, Reference   energy   -2235.583271596153
            CCSD/QCISD energy    -2235.855548735699
          E4T (T(CCSD)) = -0.008621026447
          E5ST          =  0.000611657098
          E4ST          = -0.000005610286
          In other words  
          <T3[2](Dagger) D3  T3[2]> = -0.008621026447
          <T1   (Dagger) Q1 WT3[2]> =  0.000611657098
          <T2   (Dagger) Q2 FT3[2]> = -0.000005610286
        E(CCSD)           =   -2235.855548735699
        E(CCSD(T))        =   -2235.863563715334
  @CHECKOUT-I, Total execution time (CPU/WALL):       58.00/      80.68 seconds.
--executable xvcc finished with status     0 in       83.09 seconds (walltime).
  The final electronic energy is     -2235.863563715333839 a.u. 
  This computation required                          171.31 seconds (walltime).
--- SharcNET Job Epilogue ---
Job completed successfully.
               jobid: 1968167
               resid: 3436313
         exit status: 0
      allocated time: 172.531
           user time: 70.31
         system time: 6.01
peak rss=522457088; peak vsz=522457088 (bytes)
atime=172.531; utime=70.31; stime=6.01; exit=0
