Starting run at: Tue Mar 19 11:05:40 EDT 2024
 --invoking executable--
/cvmfs/restricted.computecanada.ca/easybuild/software/2020/avx2/Compiler/intel2020/cfour/2.1/bin/xjoda


   *************************************************************************
         <<<     CCCCCC     CCCCCC   |||     CCCCCC     CCCCCC   >>>
       <<<      CCC        CCC       |||    CCC        CCC         >>>
      <<<      CCC        CCC        |||   CCC        CCC            >>>
    <<<        CCC        CCC        |||   CCC        CCC              >>>
      <<<      CCC        CCC        |||   CCC        CCC            >>>
       <<<      CCC        CCC       |||    CCC        CCC         >>>
         <<<     CCCCCC     CCCCCC   |||     CCCCCC     CCCCCC   >>>
   *************************************************************************

     ****************************************************************
     * CFOUR Coupled-Cluster techniques for Computational Chemistry *
     ****************************************************************
 

   Department of Chemistry                Institut fuer Physikalische Chemie
   University of Florida                  Universitaet Mainz
   Gainesville, FL 32611, USA             D-55099 Mainz, Germany

   Department of Chemistry                Fakultaet fuer Chemie und Biowiss.
   Johns Hopkins University               Karlsruher Institut fuer Technologie
   Baltimore, MD 21218, USA               D-76131 Karlsruhe, Germany

   Department of Chemistry                Department of Physical Chemistry
   Southern Methodist University          Eotvos Lorand University
   Dallas, TX 75275, USA                  H-1053 Budapest, Hungary

 
                       Version 2.1
 
                     gra702                                            
                     Tue Mar 19 11:05:40 EDT 2024                      
                     integer*8 version is running
 
********************************************************************************
*                          Input from ZMAT file                                *
********************************************************************************
TITLE                                                                           
O                                                                               
                                                                                
*ACES2(CALC=CCSDT                                                               
#FROZEN_CORE=ON                                                                 
#DROPMO=1                                                                       
#INPUT_MRCC=OFF                                                                 
#CC_PROG=MRCC                                                                   
XFORM_TOL=18                                                                    
SAVE_INTS=ON                                                                    
SCF_EXPORDER=6                                                                  
SCF_EXPSTART=5                                                                  
#SCF_DAMPING=1000                                                               
SCF_EXTRAPOLATION=ON                                                            
SCF_CONV=10                                                                     
SCF_MAXCYC=9999                                                                 
CC_CONV=10                                                                      
CC_MAXCYC=999                                                                   
T3_EXTRAPOL=ON                                                                  
REFERENCE=ROHF                                                                  
CHARGE=+1                                                                       
MULT=4                                                                          
ABCDTYPE=STANDARD                                                               
OCCUPATION=2-1-1-0-1-0-0-0/2-0-0-0-0-0-0-0                                      
MEM=20                                                                          
MEM_UNIT=GB                                                                     
BASIS=SPECIAL)                                                                  
                                                                                
O:aCVQZ-EMSL                                                                    
                                                                                
********************************************************************************
  @GTFLGS-W, Keyword #FROZEN_CORE not known and is ignored.
  @GTFLGS-W, Keyword #DROPMO not known and is ignored.
  @GTFLGS-W, Keyword #INPUT_MRCC not known and is ignored.
  @GTFLGS-W, Keyword #CC_PROG not known and is ignored.
  @GTFLGS-W, Keyword #SCF_DAMPING not known and is ignored.
    -------------------------------------------------------------------
                    CFOUR Control Parameters 
    -------------------------------------------------------------------
        External           Internal           Value            Units
          Name               Name
    -------------------------------------------------------------------
       ABCDTYPE             IABCDT         STANDARD    [  0]    ***   
       ANHARMONIC           IANHAR         OFF         [  0]    ***   
       ANH_ALGORIT          IANALG         STANDARD    [  0]    ***   
       ANH_DERIVAT          IANDER         SECOND      [  1]    ***   
       ANH_MODE             ANHMOD         VIBRATION   [  0]    ***   
       ANH_STEPSIZ          ICUBST             50000          x 10-6  
       ANH_SYMMETR          IANHSM         ABELIAN     [  0]    ***   
       AO_LADDERS           IAOLAD         SINGLEPASS  [  1]    ***   
       AV_SCF               IAVSCF         OFF         [  0]    ***   
       BASIS                IBASIS         SPECIAL     [  0]    ***   
       BOTHVECTORS          BOTHVC         OFF         [  0]    ***   
       BOX_POTENT           IPIAB          OFF         [  0]    ***   
       BREIT                IBREIT         OFF         [  0]    ***   
       BRUCK_CONV           IBRTOL          10D-  4             ***   
       BRUECKNER            IBRKNR         OFF         [  0]    ***   
       BUFFERSIZE           IBUFFS              4096            ***   
       CACHE_RECS           ICHREC             10               ***   
       CALCLEVEL            ICLLVL         CCSDT       [ 18]    ***   
       CCORBOPT             ICCORB         OFF         [  0]  x 0.01  
       CC_CONV              ICCCNV          10D- 10             ***   
       CC_EXPORDER          ICCEOR              5               ***   
       CC_EXTRAPOL          ICCEXT         DIIS        [  1]    ***   
       CC_GUESS             ICCGES         MP2         [  0]    ***   
       CC_MAXCYC            ICCCYC            999              cycles 
       CC_PROGRAM           ICCPRO         VCC         [  0]    ***   
       CHARGE               ICHRGE              1               ***   
       CHOLESKY             ICHOLE         OFF         [  0]    ***   
       CIS_CONV             ICISTL              5               ***   
       COMM_SIZE            IPSIZE            ***               ***   
       CONSTANT             ICONST         OLD         [  1]    ***   
       CONTINUUM            ICONTU         NONE        [  0]    ***   
       CONTRACTION          ICNTYP         GENERAL     [  1]    ***   
       COORDINATES          ICOORD         INTERNAL    [  0]    ***   
       CPHF_CONVER          ICPHFT          10D- 16             ***   
       CPHF_MAXCYC          ICPHFC             64              cycles 
       CUBIC                ICUBIC         OFF         [  0]    ***   
       CURVILINEAR          ICURVY         OFF         [  0]    ***   
       DBOC                 IDBOC          OFF         [  0]    ***   
       DCT                  IDCT           OFF         [  0]    ***   
       DERIV_LEV            IDRLVL         ZERO        [  0]    ***   
       DEVMEM_SIZE          IDVMEM         *********           MByte  
       DIAG_MRCC            IEOMST          10D-  0             ***   
       DIFF_TYPE            IDIFTY         RELAXED     [  0]    ***   
       DIRECT               IDIRCT         OFF         [  0]    ***   
       DROPMO               IDRPMO      NONE         
       ECP                  IECP           OFF         [  0]    ***   
       EIGENVECTOR          IVEC                1               ***   
       EL_ANHARM            IELANH         OFF         [  0]    ***   
       EOMFOLLOW            IEOMSR         ENERGY      [  0]    ***   
       EOMIP                IEOMIP         OFF         [  0]    ***   
       EOMLEVEL             HBARFM         SAME        [  0]    ***   
       EOM_MRCC             IMRCCE         NEW         [  1]    ***   
       EOM_NONIT            EOMNON         OFF         [  0]    ***   
       EOM_NSING            IEOMSI          10D-  0             ***   
       EOM_NSTATES          IMRCCD         DAVIDSON    [  0]    ***   
       EOM_NTRIP            IEOMTR          10D-  0             ***   
       EOM_ORDER            IEXORD         ENERGY      [  0]    ***   
       EOM_PROPSTA          IEOMST              0               ***   
       ESTATE_CONV          IEXTOL          10D-  5             ***   
       ESTATE_DIAG          IEXDIG         ITERATIVE   [  0]    ***   
       ESTATE_LOCK          IESLOC         ON          [  1]    ***   
       ESTATE_MAXC          IEXMXC             40               ***   
       ESTATE_PROP          IEXPRP         OFF         [  0]    ***   
       EVAL_HESS            IRECAL              0            # of cyc.
       EXCITATION           IEXCIT              0               ***   
       EXCITE               IEXCIT         NONE        [  0]    ***   
       EXTERN_POT           IEXPOT         OFF         [  0]    ***   
       FCGRADNEW            IFCGNW         OFF         [  0]    ***   
       FC_FIELD             IFINFC              0             x 10-6  
       FD_CALTYPE           IFDCAL         GRADONLY    [  0]    ***   
       FD_PROJECT           IFDPRJ         OFF         [  1]    ***   
       FD_STEPSIZE          IDISFD              0            10-4 bohr
       FD_USEGROUP          IFDGRP         FULL        [  0]    ***   
       FILE_RECSIZ          IFLREC              4096           words  
       FINITE_PERT          IFIPER              0             x 10-6  
       FIXGEOM              IFIXGM         OFF         [  0]    ***   
       FOCK                 IFOCK          AO          [  1]    ***   
       FREQ_ALGORI          IVIALG         STANDARD    [  0]    ***   
       FROZEN_CORE          IFROCO         OFF         [  0]    ***   
       GAMMA_ABCD           IGABCD         STORE       [  0]    ***   
       GAMMA_ABCI           IGABCI         STORE       [  0]    ***   
       GENBAS_1             IGNBS1              0               ***   
       GENBAS_2             IGNBS2              0               ***   
       GENBAS_3             IGNBS3              0               ***   
       GENBAS_4             IGNBS4              0               ***   
       GEO_CONV             ICONTL              5              H/bohr 
       GEO_MAXCYC           IOPTCY             50               ***   
       GEO_MAXSTEP          IMXSTP            300            millibohr
       GEO_METHOD           INR            SINGLE_POINT[  5]    ***   
       GIAO                 IGIAO          OFF         [  1]    ***   
       GIMIC                IGIMIC         OFF         [  0]    ***   
       GRID                 IGRID          OFF         [  0]    ***   
       GRID_ALGO            IGALGO         SERIAL      [  0]    ***   
       GUESS                IGUESS         MOREAD      [  0]    ***   
       HBAR                 IHBAR          OFF         [  0]    ***   
       HESS_TYPE            IHESTP         SCF         [  0]    ***   
       HF2_FILE             IHF2Fl         USE         [  1]    ***   
       HFSTABILITY          ISTABL         OFF         [  0]    ***   
       INCORE               INCORE         OFF         [  0]    ***   
       INPUT_MRCC           IMRCC          ON          [  1]    ***   
       INTEGRALS            INTTYP         VMOL        [  1]    ***   
       JODA_PRINT           IJPRNT              0               ***   
       KEYWORD_OUT          IDMPKW         NO          [  0]    ***   
       LINDEP_TOL           ILINDP              8               ***   
       LINEQ_CONV           IZTACN          10D-  7           cycles  
       LINEQ_EXPOR          ILMAXD              5               ***   
       LINEQ_MAXCY          ILMAXC            100               ***   
       LINEQ_TYPE           ILTYPE         DIIS        [  1]    ***   
       LOCK_ORBOCC          ILOCOC         OFF         [  0]    ***   
       MEMORY_SIZE          IMEMSZ         *********           words  
       MEM_UNIT             IMEMU          GB          [  3]    ***   
       MRCC                 IMRCCC         OFF         [  0]    ***   
       MULTIPLICTY          IMULTP              4               ***   
       NACOUPLING           IVCOUP         OFF         [  0]    ***   
       NEGEVAL              IDIE           ABORT       [  0]    ***   
       NEWNORM              INEWNO         OFF         [  0]    ***   
       NON-HF               INONHF         ON          [  1]    ***   
       NTOP_TAMP            ITOPT2             15               ***   
       NUC_MODEL            INUCMO         POINT       [  0]    ***   
       OCCUPATION           IOCCU  A   2,  1,  1,  0,  1,  0,  0,  0,
                                   B   2,  0,  0,  0,  0,  0,  0,  0,
       OPEN-SHELL           IOPEN          SPIN-ORBITAL[  0]    ***   
       OPTVIB               IOPTVB         OFF         [  0]    ***   
       ORBITALS             IORBTP         SEMICANONICA[  1]    ***   
       PARALLEL             IPARAL         ON          [  1]    ***   
       PARA_INT             IPINTS         ON          [  1]    ***   
       PARA_PRINT           IPPRIN              0               ***   
       PERT_ORB             IPTORB         STANDARD    [  0]    ***   
       POINTS               IGRDFD              0               ***   
       PRINT                IPRNT               0               ***   
       PROPS                IPROPS         OFF         [  0]    ***   
       PROP_INTEGR          IINTYP         INTERNAL    [  0]    ***   
       PSI                  IPSI           OFF         [  0]    ***   
       QC_ALG               IQCALG         FLM         [  0]    ***   
       QC_LINALG            IQCLIN         TRIDIAG     [  2]    ***   
       QC_MAXCYC            IQCMAX          10D-100           cycles  
       QC_MAXSCFCY          IQCMSC          10D- 15           cycles  
       QC_RTRUST            IQCRTR          10D-  0           x 10-3  
       QC_SKIPSCF           IQCSKI         OFF         [  0]    ***   
       QC_START             IQCSTA          10D-  1             ***   
       QRHFGUESS            IQGUES         OFF         [  0]    ***   
       QUARTIC              IQUART         OFF         [  0]    ***   
       RAMAN_INT            IRAMIN         OFF         [  0]    ***   
       RAMAN_ORB            IRAMRE         UNRELAXED   [  0]    ***   
       RDO                  IRDOFM         OFF         [  0]    ***   
       REDUCE_REPR          REDREP         Ir          [  0]    ***   
       REFERENCE            IREFNC         ROHF        [  2]    ***   
       RELATIVIST           IRELAT         OFF         [  0]    ***   
       RELAX_DENS           IRDENS         OFF         [  0]    ***   
       RESET_FLAGS          IRESET         OFF         [  0]    ***   
       RESTART_CC           ICCRES         OFF         [  0]    ***   
       ROT_EVEC             ROTVEC              0               ***   
       SAVE_INTS            ISVINT         ON          [  1]    ***   
       SCALE_ON             ISTCRT              0               ***   
       SCF_CONV             ISCFCV          10D- 10             ***   
       SCF_DAMPING          IDAMP               0             x 10-3  
       SCF_EXPORDE          IRPPOR              6               ***   
       SCF_EXPSTAR          IRPPLS              5               ***   
       SCF_EXTRAPO          IRPP           ON          [  1]    ***   
       SCF_MAXCYC           ISCFCY            ***              cycles 
       SCF_NOSTOP           ISCFST         OFF         [  0]    ***   
       SCF_PRINT            ISCFPR              0               ***   
       SCF_PROG             ISCFPR         SCF         [  0]    ***   
       SD_FIELD             IFINSD              0             x 10-6  
       SOPERT               IPERSO         OFF         [  0]    ***   
       SPHERICAL            IDFGHI         ON          [  1]    ***   
       SPINORBIT            ISOCAL         OFF         [  0]    ***   
       SPINROTATIO          ISRCON         OFF         [  0]    ***   
       SPIN_FLIP            ISPFLP         OFF         [  0]    ***   
       SPIN_ORBIT           ISPORB         OFF         [  0]    ***   
       SPIN_SCAL            ISCSMP         OFF         [  0]    ***   
       STEEPSCALE           ISTPSC              1000          x 10-3  
       SUBGROUP             ISUBGP         DEFAULT     [  0]    ***   
       SUBGRPAXIS           ISBXYZ         X           [  0]    ***   
       SYMMETRY             ISYM           ON          [  0]    ***   
       SYM_CHECK            ISYMCK         OVERRIDE    [  1]    ***   
       T3_EXTRAPOL          IT3EXT         ON          [  1]    ***   
       T4_EXTRAPOL          IT4EXP         OFF         [  0]    ***   
       TAMP_SUM             IEVERY              5               ***   
       TESTSUITE            ITESTS         OFF         [  0]    ***   
       THERMOCH             ITHERM         OFF         [  0]    ***   
       TOL_CHOLESK          ITOLCH          10D-  4             ***   
       TRANGRAD             IRESRM         OFF         [  0]    ***   
       TRANS_INV            ITRAIN         USE         [  0]    ***   
       TREAT_PERT           ITREAT         SIMULTANEOUS[  0]    ***   
       TRIP_ALGORI          ITRALG         NORMAL      [  0]    ***   
       UIJ_THRESHO          IUIJTH              1               ***   
       UNITS                IUNITS         ANGSTROM    [  0]    ***   
       UNOS                 IUNOS          OFF         [  0]    ***   
       UPDATE_HESS          IHUPDT         ON          [  1]    ***   
       VIBPHASE             ISETPH         STANDARD    [  0]    ***   
       VIBRATION            IVIB           NO          [  0]    ***   
       VIB_ALGORIT          IGEALG         STANDARD    [  0]    ***   
       VNATORB              IVNORB         OFF         [  0]    ***   
       VTRAN                IVTRAN         FULL/PARTIAL[  0]    ***   
       XFIELD               IXEFLD              0             x 10-6  
       XFORM_TOL            IXFTOL          10D- 18             ***   
       YFIELD               IYEFLD              0             x 10-6  
       ZFIELD               IZEFLD              0             x 10-6  
       ZSCALE_EXP           IZEXPS         OFF         [  0]    ***   
    -------------------------------------------------------------------
   1 entries found in Z-matrix 
   Job Title : TITLE                                                                           
   Rotational constants (in cm-1): 

   Rotational constants (in MHz): 

********************************************************************************
   The full molecular point group is I h .
   The largest Abelian subgroup of the full molecular point group is D2h .
   The computational point group is D2h .
********************************************************************************
  ECPDATA file not present.   Using default ECPDATA. 
  @GTFLGS-W, Keyword #FROZEN_CORE not known and is ignored.
  @GTFLGS-W, Keyword #DROPMO not known and is ignored.
  @GTFLGS-W, Keyword #INPUT_MRCC not known and is ignored.
  @GTFLGS-W, Keyword #CC_PROG not known and is ignored.
  @GTFLGS-W, Keyword #SCF_DAMPING not known and is ignored.
  There are  109 basis functions.
 @GEOPT-W, Archive file not created for single-point calculation.
 @CHECKOUT-I, Total execution time (CPU/WALL):        0.16/       1.49 seconds.
--executable xjoda finished with status     0 in        1.54 seconds (walltime).
 --invoking executable--
/cvmfs/restricted.computecanada.ca/easybuild/software/2020/avx2/Compiler/intel2020/cfour/2.1/bin/xvmol
 SERIAL VERSION OF MOLECULE STARTED
********************************************************************************
                    INPUT FROM MOL FILE
********************************************************************************
INTGRL        1    0    1    0    0    0    0    0    0                         
         *** CFOUR Program System (Release V0.1) ***                            
TITLE                                                                           
    1    3 X  Y   Z   0.10E-08              0    0                              
   9999.00      3.00                                                            
          8.00000000    1    5    1    1    1    1    1                         
O #1   0.000000000000000   0.000000000000000   0.000000000000000                
   16    9                                                                      
   61420.0000000000       9.000000000000001E-005 -2.000000000000000E-005        
  0.000000000000000E+000  0.000000000000000E+000  0.000000000000000E+000        
  0.000000000000000E+000  0.000000000000000E+000  0.000000000000000E+000        
  0.000000000000000E+000                                                        
   9199.00000000000       6.980000000000001E-004 -1.590000000000000E-004        
  0.000000000000000E+000  0.000000000000000E+000  0.000000000000000E+000        
  0.000000000000000E+000  0.000000000000000E+000  0.000000000000000E+000        
  0.000000000000000E+000                                                        
   2091.00000000000       3.664000000000000E-003 -8.290000000000000E-004        
  0.000000000000000E+000  0.000000000000000E+000  0.000000000000000E+000        
  0.000000000000000E+000  0.000000000000000E+000  0.000000000000000E+000        
  0.000000000000000E+000                                                        
   590.900000000000       1.521800000000000E-002 -3.508000000000000E-003        
  0.000000000000000E+000  0.000000000000000E+000  0.000000000000000E+000        
  0.000000000000000E+000  0.000000000000000E+000  0.000000000000000E+000        
  0.000000000000000E+000                                                        
   192.300000000000       5.242300000000000E-002 -1.215600000000000E-002        
  0.000000000000000E+000  0.000000000000000E+000  0.000000000000000E+000        
  0.000000000000000E+000  0.000000000000000E+000  0.000000000000000E+000        
  0.000000000000000E+000                                                        
   69.3200000000000       0.145921000000000      -3.626100000000000E-002        
  0.000000000000000E+000  0.000000000000000E+000  0.000000000000000E+000        
  0.000000000000000E+000  0.000000000000000E+000  0.000000000000000E+000        
  0.000000000000000E+000                                                        
   26.9700000000000       0.305258000000000      -8.299200000000000E-002        
  0.000000000000000E+000  0.000000000000000E+000  0.000000000000000E+000        
  0.000000000000000E+000  0.000000000000000E+000  0.000000000000000E+000        
  0.000000000000000E+000                                                        
   11.1000000000000       0.398508000000000      -0.152090000000000             
  0.000000000000000E+000  0.000000000000000E+000  0.000000000000000E+000        
  0.000000000000000E+000  0.000000000000000E+000  0.000000000000000E+000        
  0.000000000000000E+000                                                        
   4.68200000000000       0.216980000000000      -0.115331000000000             
  0.000000000000000E+000  0.000000000000000E+000  0.000000000000000E+000        
  0.000000000000000E+000  0.000000000000000E+000  0.000000000000000E+000        
  0.000000000000000E+000                                                        
   1.42800000000000       1.759400000000000E-002  0.288979000000000             
   1.00000000000000       0.000000000000000E+000  0.000000000000000E+000        
  0.000000000000000E+000  0.000000000000000E+000  0.000000000000000E+000        
  0.000000000000000E+000                                                        
  0.554700000000000      -2.502000000000000E-003  0.586128000000000             
  0.000000000000000E+000   1.00000000000000       0.000000000000000E+000        
  0.000000000000000E+000  0.000000000000000E+000  0.000000000000000E+000        
  0.000000000000000E+000                                                        
  0.206700000000000       9.540000000000000E-004  0.277624000000000             
  0.000000000000000E+000  0.000000000000000E+000   1.00000000000000             
  0.000000000000000E+000  0.000000000000000E+000  0.000000000000000E+000        
  0.000000000000000E+000                                                        
   12.9740000000000       0.000000000000000E+000  0.000000000000000E+000        
  0.000000000000000E+000  0.000000000000000E+000  0.000000000000000E+000        
   1.00000000000000       0.000000000000000E+000  0.000000000000000E+000        
  0.000000000000000E+000                                                        
   34.9000000000000       0.000000000000000E+000  0.000000000000000E+000        
  0.000000000000000E+000  0.000000000000000E+000  0.000000000000000E+000        
  0.000000000000000E+000   1.00000000000000       0.000000000000000E+000        
  0.000000000000000E+000                                                        
   93.8810000000000       0.000000000000000E+000  0.000000000000000E+000        
  0.000000000000000E+000  0.000000000000000E+000  0.000000000000000E+000        
  0.000000000000000E+000  0.000000000000000E+000   1.00000000000000             
  0.000000000000000E+000                                                        
  6.959000000000000E-002  0.000000000000000E+000  0.000000000000000E+000        
  0.000000000000000E+000  0.000000000000000E+000  0.000000000000000E+000        
  0.000000000000000E+000  0.000000000000000E+000  0.000000000000000E+000        
   1.00000000000000                                                             
   10    8                                                                      
   63.4200000000000       6.044000000000000E-003  0.000000000000000E+000        
  0.000000000000000E+000  0.000000000000000E+000  0.000000000000000E+000        
  0.000000000000000E+000  0.000000000000000E+000  0.000000000000000E+000        
   14.6600000000000       4.179900000000000E-002  0.000000000000000E+000        
  0.000000000000000E+000  0.000000000000000E+000  0.000000000000000E+000        
  0.000000000000000E+000  0.000000000000000E+000  0.000000000000000E+000        
   4.45900000000000       0.161143000000000       0.000000000000000E+000        
  0.000000000000000E+000  0.000000000000000E+000  0.000000000000000E+000        
  0.000000000000000E+000  0.000000000000000E+000  0.000000000000000E+000        
   1.53100000000000       0.356731000000000        1.00000000000000             
  0.000000000000000E+000  0.000000000000000E+000  0.000000000000000E+000        
  0.000000000000000E+000  0.000000000000000E+000  0.000000000000000E+000        
  0.530200000000000       0.448309000000000       0.000000000000000E+000        
   1.00000000000000       0.000000000000000E+000  0.000000000000000E+000        
  0.000000000000000E+000  0.000000000000000E+000  0.000000000000000E+000        
  0.175000000000000       0.244940000000000       0.000000000000000E+000        
  0.000000000000000E+000   1.00000000000000       0.000000000000000E+000        
  0.000000000000000E+000  0.000000000000000E+000  0.000000000000000E+000        
   14.4750000000000       0.000000000000000E+000  0.000000000000000E+000        
  0.000000000000000E+000  0.000000000000000E+000   1.00000000000000             
  0.000000000000000E+000  0.000000000000000E+000  0.000000000000000E+000        
   42.7300000000000       0.000000000000000E+000  0.000000000000000E+000        
  0.000000000000000E+000  0.000000000000000E+000  0.000000000000000E+000        
   1.00000000000000       0.000000000000000E+000  0.000000000000000E+000        
   126.140000000000       0.000000000000000E+000  0.000000000000000E+000        
  0.000000000000000E+000  0.000000000000000E+000  0.000000000000000E+000        
  0.000000000000000E+000   1.00000000000000       0.000000000000000E+000        
  5.348000000000000E-002  0.000000000000000E+000  0.000000000000000E+000        
  0.000000000000000E+000  0.000000000000000E+000  0.000000000000000E+000        
  0.000000000000000E+000  0.000000000000000E+000   1.00000000000000             
    6    6                                                                      
   3.77500000000000        1.00000000000000       0.000000000000000E+000        
  0.000000000000000E+000  0.000000000000000E+000  0.000000000000000E+000        
  0.000000000000000E+000                                                        
   1.30000000000000       0.000000000000000E+000   1.00000000000000             
  0.000000000000000E+000  0.000000000000000E+000  0.000000000000000E+000        
  0.000000000000000E+000                                                        
  0.444000000000000       0.000000000000000E+000  0.000000000000000E+000        
   1.00000000000000       0.000000000000000E+000  0.000000000000000E+000        
  0.000000000000000E+000                                                        
   14.9270000000000       0.000000000000000E+000  0.000000000000000E+000        
  0.000000000000000E+000   1.00000000000000       0.000000000000000E+000        
  0.000000000000000E+000                                                        
   57.5440000000000       0.000000000000000E+000  0.000000000000000E+000        
  0.000000000000000E+000  0.000000000000000E+000   1.00000000000000             
  0.000000000000000E+000                                                        
  0.154000000000000       0.000000000000000E+000  0.000000000000000E+000        
  0.000000000000000E+000  0.000000000000000E+000  0.000000000000000E+000        
   1.00000000000000                                                             
    4    4                                                                      
   2.66600000000000        1.00000000000000       0.000000000000000E+000        
  0.000000000000000E+000  0.000000000000000E+000                                
  0.859000000000000       0.000000000000000E+000   1.00000000000000             
  0.000000000000000E+000  0.000000000000000E+000                                
   26.4830000000000       0.000000000000000E+000  0.000000000000000E+000        
   1.00000000000000       0.000000000000000E+000                                
  0.324000000000000       0.000000000000000E+000  0.000000000000000E+000        
  0.000000000000000E+000   1.00000000000000                                     
    2    2                                                                      
   1.84600000000000        1.00000000000000       0.000000000000000E+000        
  0.714000000000000       0.000000000000000E+000   1.00000000000000             
FINISH                                                                          
 
********************************************************************************
OMP: Info #274: omp_set_nested routine deprecated, please use omp_set_max_active_levels instead.
 ONE- AND TWO-ELECTRON INTEGRALS OVER SYMMETRY-ADAPTED AOS ARE CALCULATED.

  SPHERICAL HARMONICS ARE USED.
  
  INTEGRALS LESS THAN  0.10E-13 ARE NEGLECTED.

  NUCLEAR REPULSION ENERGY :    0.0000000000 A.U.
  @MOLECU-I, ONE ELECTRON INTEGRALS (CPU/WALL):        0.04/       0.04 SECONDS.
  @TWOEL-I,      58779 INTEGRALS OF SYMMETRY TYPE  I I I I
  @TWOEL-I,     458861 INTEGRALS OF SYMMETRY TYPE  I J I J
  @TWOEL-I,     269470 INTEGRALS OF SYMMETRY TYPE  I I J J
  @TWOEL-I,     971729 INTEGRALS OF SYMMETRY TYPE  I J K L
  @TWOEL-I, TOTAL NUMBER OF 2-E INTEGRALS    1758839.
  @MOLECU-I, TWO ELECTRON INTEGRALS (CPU/WALL):        2.40/       3.08 SECONDS.
 @CHECKOUT-I, Total execution time (CPU/WALL):        2.46/       3.23 seconds.

OMP_NUM_THREADS not specified; defaulting to 1
Running with 1 threads/proc

--executable xvmol finished with status     0 in        3.27 seconds (walltime).
 --invoking executable--
/cvmfs/restricted.computecanada.ca/easybuild/software/2020/avx2/Compiler/intel2020/cfour/2.1/bin/xvmol2ja
 @GETMEM-I,  Allocated   19073 MB of main memory.
 @CHECKOUT-I, Total execution time (CPU/WALL):        0.07/       0.03 seconds.
--executable xvmol2ja finished with status     0 in        0.07 seconds (walltime).
 --invoking executable--
/cvmfs/restricted.computecanada.ca/easybuild/software/2020/avx2/Compiler/intel2020/cfour/2.1/bin/xvscf
  There are  109 functions in the AO basis.

  There are 8 irreducible representations.

       Irrep        # of functions
         1                 27
         2                 16
         3                 16
         4                 10
         5                 16
         6                 10
         7                 10
         8                  4


  Parameters for SCF calculation: 
        SCF reference function: ROHF  
  Maximum number of iterations: 9999
     Full symmetry point group: I h 
     Computational point group: D2h 
        Initial density matrix: MOREAD                 
     SCF convergence tolerance: 10**(-10)
  DIIS convergence acceleration:  ON
          Latest start for DIIS:   5
                     DIIS order:   6

     Alpha population by irrep:   2    1    1    0    1    0    0    0
      Beta population by irrep:   2    0    0    0    0    0    0    0


  Memory information:     654862 words required.
  Fock matrices are constructed from AO integral file.
 @GETMEM-I,  Allocated       4 MB of main memory.
  Initialization and symmetry analysis required      0.004 seconds.

 total no. of electrons in initial guess :  0.000000000000000E+000
 total no. of electrons in initial guess :  0.000000000000000E+000
  --------------------------------------------------------------------
  Iteration         Total Energy            Largest Density Difference
  --------------------------------------------------------------------
       0             0.000000000000000              0.0000000000D+00
   current occupation vector 
     2  1  1  0  1  0  0  0
     2  0  0  0  0  0  0  0
       1           -69.204969114207756              0.8763662935D+01
   current occupation vector 
     2  1  1  0  1  0  0  0
     2  0  0  0  0  0  0  0
       2           -71.244698346065960              0.8670446776D+01
   current occupation vector 
     2  1  1  0  1  0  0  0
     2  0  0  0  0  0  0  0
       3           -74.130908650389017              0.1872910424D+01
   current occupation vector 
     2  1  1  0  1  0  0  0
     2  0  0  0  0  0  0  0
       4           -74.345017492021952              0.8932605411D+00
   current occupation vector 
     2  1  1  0  1  0  0  0
     2  0  0  0  0  0  0  0
       5           -74.371045209028878              0.1790217402D+00
   current occupation vector 
     2  1  1  0  1  0  0  0
     2  0  0  0  0  0  0  0
       6           -74.371225659781700              0.1349145857D-01
   current occupation vector 
     2  1  1  0  1  0  0  0
     2  0  0  0  0  0  0  0
       7           -74.371287390584101              0.5477132614D-02
   current occupation vector 
     2  1  1  0  1  0  0  0
     2  0  0  0  0  0  0  0
       8           -74.371288242316524              0.8578565307D-03
   current occupation vector 
     2  1  1  0  1  0  0  0
     2  0  0  0  0  0  0  0
       9           -74.371288623779563              0.4008146649D-03
   current occupation vector 
     2  1  1  0  1  0  0  0
     2  0  0  0  0  0  0  0
      10           -74.371288623952566              0.1290053018D-04
   current occupation vector 
     2  1  1  0  1  0  0  0
     2  0  0  0  0  0  0  0
      11           -74.371288623953774              0.7001363902D-06
   current occupation vector 
     2  1  1  0  1  0  0  0
     2  0  0  0  0  0  0  0
      12           -74.371288623953802              0.4579004442D-07
   current occupation vector 
     2  1  1  0  1  0  0  0
     2  0  0  0  0  0  0  0
      13           -74.371288623953873              0.2326811105D-08
   current occupation vector 
     2  1  1  0  1  0  0  0
     2  0  0  0  0  0  0  0

  SCF has converged.

 Density matrix saved to file den.dat
 total alpha spin electron number:   5.00000000000001     
 total  beta spin electron number:   2.00000000000000     
     E(ROHF)=       -74.371288623953774              0.7018163828D-10

  Eigenvector printing suppressed.


       The average multiplicity is    4.0000000
  The expectation value of S**2 is    3.7500000

 @PUTMOS-I, Writing converged MOs to NEWMOS. 
 @PUTMOS-I, Symmetry   1 Full Blocks  6 Partial Blocksize   3
 @PUTMOS-I, Symmetry   2 Full Blocks  4 Partial Blocksize   0
 @PUTMOS-I, Symmetry   3 Full Blocks  4 Partial Blocksize   0
 @PUTMOS-I, Symmetry   4 Full Blocks  2 Partial Blocksize   2
 @PUTMOS-I, Symmetry   5 Full Blocks  4 Partial Blocksize   0
 @PUTMOS-I, Symmetry   6 Full Blocks  2 Partial Blocksize   2
 @PUTMOS-I, Symmetry   7 Full Blocks  2 Partial Blocksize   2
 @PUTMOS-I, Symmetry   8 Full Blocks  1 Partial Blocksize   0
 @PUTFOCK-I, Writing converged Fock matrix to NEWFOCK. 
 @PUTFOCK-I, Symmetry   1 Full Blocks  6 Partial Blocksize   3
 @PUTFOCK-I, Symmetry   2 Full Blocks  4 Partial Blocksize   0
 @PUTFOCK-I, Symmetry   3 Full Blocks  4 Partial Blocksize   0
 @PUTFOCK-I, Symmetry   4 Full Blocks  2 Partial Blocksize   2
 @PUTFOCK-I, Symmetry   5 Full Blocks  4 Partial Blocksize   0
 @PUTFOCK-I, Symmetry   6 Full Blocks  2 Partial Blocksize   2
 @PUTFOCK-I, Symmetry   7 Full Blocks  2 Partial Blocksize   2
 @PUTFOCK-I, Symmetry   8 Full Blocks  1 Partial Blocksize   0
  @DMPJOB-I, Rotating orbitals to semicanonical basis.
             *** Eigenvalues correspond to new basis. ***



 
  ORBITAL EIGENVALUES (ALPHA)  (1H = 27.2113834 eV)

       MO #        E(hartree)               E(eV)           FULLSYM    COMPSYM
       ----   --------------------   --------------------   -------   ---------
    1     1         -21.4119811538        -582.6496285297      Ag        Ag (1)
    2     2          -2.0586909747         -56.0198294134      Ag        Ag (1)
    3    70          -1.3267151509         -36.1017546326     T1u       B1u (5)
    4    28          -1.3267151509         -36.1017546326     T1u       B2u (2)
    5    44          -1.3267151509         -36.1017546326     T1u       B3u (3)
  +++++++++++++++++++++++++++++++++++++++++++++++++++++++++++++++++++++++++++++
    6     3          -0.1340626625          -3.6480305091      Ag        Ag (1)
    7    71          -0.0846247678          -2.3027570005     T1u       B1u (5)
    8    45          -0.0846247678          -2.3027570005     T1u       B3u (3)
    9    29          -0.0846247678          -2.3027570005     T1u       B2u (2)
   10    60           0.1652596042           4.4969424510      Hg       B1g (4)
   11    96           0.1652596042           4.4969424510      Hg       B2g (7)
   12     4           0.1652596042           4.4969424510      Hg        Ag (1)
   13    86           0.1652596042           4.4969424510      Hg       B3g (6)
   14     5           0.1652596042           4.4969424510      Hg        Ag (1)
   15    72           0.3225857409           8.7780042753     T1u       B1u (5)
   16    46           0.3225857409           8.7780042753     T1u       B3u (3)
   17    30           0.3225857409           8.7780042753     T1u       B2u (2)
   18     6           0.4742344104          12.9045743628      Ag        Ag (1)
   19    31           0.9568100831          26.0361260128       u       B2u (2)
   20    47           0.9568100831          26.0361260128       u       B3u (3)
   21   106           0.9568100831          26.0361260128       u        Au (8)
   22    73           0.9568100831          26.0361260128       u       B1u (5)
   23    74           0.9568100831          26.0361260128       u       B1u (5)
   24    48           0.9568100831          26.0361260128       u       B3u (3)
   25    32           0.9568100831          26.0361260128       u       B2u (2)
   26     7           1.0371619013          28.2226101430      Hg        Ag (1)
   27    97           1.0371619013          28.2226101430      Hg       B2g (7)
   28    61           1.0371619013          28.2226101430      Hg       B1g (4)
   29    87           1.0371619013          28.2226101430      Hg       B3g (6)
   30     8           1.0371619013          28.2226101430      Hg        Ag (1)
   31    75           2.1119213775          57.4683023149     T1u       B1u (5)
   32    33           2.1119213775          57.4683023149     T1u       B2u (2)
   33    49           2.1119213775          57.4683023149     T1u       B3u (3)
   34     9           3.1512828866          85.7507668302      Ag        Ag (1)
   35    10           3.1576339764          85.9235887682       g        Ag (1)
   36    11           3.1576339764          85.9235887682       g        Ag (1)
   37    12           3.1576339764          85.9235887682       g        Ag (1)
   38    98           3.1576339764          85.9235887682       g       B2g (7)
   39    62           3.1576339764          85.9235887682       g       B1g (4)
   40    88           3.1576339764          85.9235887682       g       B3g (6)
   41    63           3.1576339764          85.9235887682       g       B1g (4)
   42    89           3.1576339764          85.9235887682       g       B3g (6)
   43    99           3.1576339764          85.9235887682       g       B2g (7)
   44    50           3.4814355023          94.7346762357       u       B3u (3)
   45    34           3.4814355023          94.7346762357       u       B2u (2)
   46    76           3.4814355023          94.7346762357       u       B1u (5)
   47    51           3.4814355023          94.7346762357       u       B3u (3)
   48   107           3.4814355023          94.7346762357       u        Au (8)
   49    35           3.4814355023          94.7346762357       u       B2u (2)
   50    77           3.4814355023          94.7346762357       u       B1u (5)
   51    64           3.6572490020          99.5188047827      Hg       B1g (4)
   52   100           3.6572490020          99.5188047827      Hg       B2g (7)
   53    13           3.6572490020          99.5188047827      Hg        Ag (1)
   54    14           3.6572490020          99.5188047827      Hg        Ag (1)
   55    90           3.6572490020          99.5188047827      Hg       B3g (6)
   56    78           8.5875125657         233.6780968785     T1u       B1u (5)
   57    52           8.5875125657         233.6780968785     T1u       B3u (3)
   58    36           8.5875125657         233.6780968785     T1u       B2u (2)
   59   101           9.9469676382         270.6707500717       g       B2g (7)
   60    65           9.9469676382         270.6707500717       g       B1g (4)
   61    15           9.9469676382         270.6707500717       g        Ag (1)
   62    66           9.9469676382         270.6707500717       g       B1g (4)
   63    91           9.9469676382         270.6707500717       g       B3g (6)
   64   102           9.9469676382         270.6707500717       g       B2g (7)
   65    16           9.9469676382         270.6707500717       g        Ag (1)
   66    92           9.9469676382         270.6707500717       g       B3g (6)
   67    17           9.9469676382         270.6707500717       g        Ag (1)
   68    53          11.1178489433         302.5320501804       u       B3u (3)
   69    79          11.1178489433         302.5320501804       u       B1u (5)
   70    37          11.1178489433         302.5320501804       u       B2u (2)
   71    80          11.1178489433         302.5320501804       u       B1u (5)
   72    54          11.1178489433         302.5320501804       u       B3u (3)
   73   108          11.1178489433         302.5320501804       u        Au (8)
   74    38          11.1178489433         302.5320501804       u       B2u (2)
   75    18          11.8691322696         322.9755088145      Hg        Ag (1)
   76    19          11.8691322696         322.9755088145      Hg        Ag (1)
   77    67          11.8691322696         322.9755088145      Hg       B1g (4)
   78   103          11.8691322696         322.9755088145      Hg       B2g (7)
   79    93          11.8691322696         322.9755088145      Hg       B3g (6)
   80    20          15.6828743126         426.7527057345      Ag        Ag (1)
   81    81          32.3968366450         881.5627428947     T1u       B1u (5)
   82    55          32.3968366450         881.5627428947     T1u       B3u (3)
   83    39          32.3968366450         881.5627428947     T1u       B2u (2)
   84    94          46.2789042196        1259.3130060501      Hg       B3g (6)
   85    21          46.2789042196        1259.3130060501      Hg        Ag (1)
   86    68          46.2789042196        1259.3130060501      Hg       B1g (4)
   87   104          46.2789042196        1259.3130060501      Hg       B2g (7)
   88    22          46.2789042196        1259.3130060501      Hg        Ag (1)
   89    23          62.2853188770        1694.8696921538      Ag        Ag (1)
   90    40         102.5703519263        2791.0811717389       u       B2u (2)
   91   109         102.5703519263        2791.0811717389       u        Au (8)
   92    82         102.5703519263        2791.0811717389       u       B1u (5)
   93    83         102.5703519263        2791.0811717389       u       B1u (5)
   94    56         102.5703519263        2791.0811717390       u       B3u (3)
   95    41         102.5703519263        2791.0811717390       u       B2u (2)
   96    57         102.5703519263        2791.0811717390       u       B3u (3)
   97    58         115.7848411972        3150.6657057251     T1u       B3u (3)
   98    84         115.7848411972        3150.6657057251     T1u       B1u (5)
   99    42         115.7848411972        3150.6657057251     T1u       B2u (2)
  100    24         197.8224505194        5383.0225462099      Hg        Ag (1)
  101    95         197.8224505194        5383.0225462099      Hg       B3g (6)
  102    69         197.8224505194        5383.0225462099      Hg       B1g (4)
  103   105         197.8224505194        5383.0225462099      Hg       B2g (7)
  104    25         197.8224505194        5383.0225462099      Hg        Ag (1)
  105    26         214.9046868376        5847.8538279956      Ag        Ag (1)
  106    59         394.3929894060       10731.9788449978     T1u       B3u (3)
  107    43         394.3929894060       10731.9788449978     T1u       B2u (2)
  108    85         394.3929894060       10731.9788449978     T1u       B1u (5)
  109    27         893.7413516494       24319.9385801654      Ag        Ag (1)


 
  ORBITAL EIGENVALUES ( BETA)  (1H = 27.2113834 eV)

       MO #        E(hartree)               E(eV)           FULLSYM    COMPSYM
       ----   --------------------   --------------------   -------   ---------
    1     1         -21.2821014632        -579.1154224727      Ag        Ag (1)
    2     2          -1.5427990631         -41.9816968157      Ag        Ag (1)
  +++++++++++++++++++++++++++++++++++++++++++++++++++++++++++++++++++++++++++++
    3    70          -0.3831928095         -10.4272064567     T1u       B1u (5)
    4    44          -0.3831928095         -10.4272064567     T1u       B3u (3)
    5    28          -0.3831928095         -10.4272064567     T1u       B2u (2)
    6     3          -0.1182458210          -3.2176323718      Ag        Ag (1)
    7    29          -0.0594050531          -1.6164936761     T1u       B2u (2)
    8    71          -0.0594050531          -1.6164936761     T1u       B1u (5)
    9    45          -0.0594050531          -1.6164936761     T1u       B3u (3)
   10    60           0.1819498152           4.9511061799      Hg       B1g (4)
   11    96           0.1819498152           4.9511061799      Hg       B2g (7)
   12    86           0.1819498152           4.9511061799      Hg       B3g (6)
   13     4           0.1819498152           4.9511061799      Hg        Ag (1)
   14     5           0.1819498152           4.9511061799      Hg        Ag (1)
   15    46           0.4208388497          11.4516072893     T1u       B3u (3)
   16    72           0.4208388497          11.4516072893     T1u       B1u (5)
   17    30           0.4208388497          11.4516072893     T1u       B2u (2)
   18     6           0.5338209256          14.5260058746      Ag        Ag (1)
   19    73           0.9702616682          26.4021622506       u       B1u (5)
   20    31           0.9702616682          26.4021622506       u       B2u (2)
   21    47           0.9702616682          26.4021622506       u       B3u (3)
   22   106           0.9702616682          26.4021622506       u        Au (8)
   23    74           0.9702616682          26.4021622506       u       B1u (5)
   24    32           0.9702616682          26.4021622506       u       B2u (2)
   25    48           0.9702616682          26.4021622506       u       B3u (3)
   26    97           1.1440665106          31.1316324561      Hg       B2g (7)
   27    61           1.1440665106          31.1316324561      Hg       B1g (4)
   28     7           1.1440665106          31.1316324561      Hg        Ag (1)
   29    87           1.1440665106          31.1316324561      Hg       B3g (6)
   30     8           1.1440665106          31.1316324561      Hg        Ag (1)
   31    49           2.2864848706          62.2184164521     T1u       B3u (3)
   32    75           2.2864848706          62.2184164521     T1u       B1u (5)
   33    33           2.2864848706          62.2184164521     T1u       B2u (2)
   34     9           3.1818913380          86.5836651346       g        Ag (1)
   35    10           3.1818913380          86.5836651346       g        Ag (1)
   36    62           3.1818913380          86.5836651346       g       B1g (4)
   37    98           3.1818913380          86.5836651346       g       B2g (7)
   38    88           3.1818913380          86.5836651346       g       B3g (6)
   39    11           3.1818913380          86.5836651346       g        Ag (1)
   40    63           3.1818913380          86.5836651346       g       B1g (4)
   41    99           3.1818913380          86.5836651346       g       B2g (7)
   42    89           3.1818913380          86.5836651346       g       B3g (6)
   43    12           3.2801078449          89.2562721599      Ag        Ag (1)
   44    34           3.5565754432          96.7793379750       u       B2u (2)
   45    50           3.5565754432          96.7793379750       u       B3u (3)
   46    35           3.5565754432          96.7793379750       u       B2u (2)
   47    51           3.5565754432          96.7793379750       u       B3u (3)
   48   107           3.5565754432          96.7793379750       u        Au (8)
   49    76           3.5565754432          96.7793379750       u       B1u (5)
   50    77           3.5565754432          96.7793379750       u       B1u (5)
   51    64           3.8515049599         104.8047781322      Hg       B1g (4)
   52   100           3.8515049599         104.8047781322      Hg       B2g (7)
   53    90           3.8515049599         104.8047781322      Hg       B3g (6)
   54    13           3.8515049599         104.8047781322      Hg        Ag (1)
   55    14           3.8515049599         104.8047781322      Hg        Ag (1)
   56    78           8.7384546841         237.7854407319     T1u       B1u (5)
   57    52           8.7384546841         237.7854407319     T1u       B3u (3)
   58    36           8.7384546841         237.7854407319     T1u       B2u (2)
   59    65          10.0221507914         272.7165876766       g       B1g (4)
   60   101          10.0221507914         272.7165876766       g       B2g (7)
   61    66          10.0221507914         272.7165876766       g       B1g (4)
   62    15          10.0221507914         272.7165876766       g        Ag (1)
   63    91          10.0221507914         272.7165876766       g       B3g (6)
   64   102          10.0221507914         272.7165876766       g       B2g (7)
   65    16          10.0221507914         272.7165876766       g        Ag (1)
   66    92          10.0221507914         272.7165876766       g       B3g (6)
   67    17          10.0221507914         272.7165876766       g        Ag (1)
   68    53          11.2492211457         306.1068695462       u       B3u (3)
   69    79          11.2492211457         306.1068695462       u       B2u (5)
   70    37          11.2492211457         306.1068695462       u       B1u (2)
   71    80          11.2492211457         306.1068695462       u       B1u (5)
   72   108          11.2492211457         306.1068695462       u        Au (8)
   73    54          11.2492211457         306.1068695462       u       B3u (3)
   74    38          11.2492211457         306.1068695462       u       B2u (2)
   75    18          12.0355082549         327.5028295374      Hg        Ag (1)
   76    19          12.0355082549         327.5028295374      Hg        Ag (1)
   77    93          12.0355082549         327.5028295374      Hg       B3g (6)
   78   103          12.0355082549         327.5028295374      Hg       B2g (7)
   79    67          12.0355082549         327.5028295374      Hg       B1g (4)
   80    20          15.7931316275         429.7529598036      Ag        Ag (1)
   81    81          32.4758052511         883.7115879126     T1u       B1u (5)
   82    55          32.4758052511         883.7115879126     T1u       B3u (3)
   83    39          32.4758052511         883.7115879126     T1u       B2u (2)
   84    94          46.3572115102        1261.4438557582      Hg       B3g (6)
   85    21          46.3572115102        1261.4438557582      Hg        Ag (1)
   86    68          46.3572115102        1261.4438557582      Hg       B1g (4)
   87   104          46.3572115102        1261.4438557582      Hg       B2g (7)
   88    22          46.3572115102        1261.4438557582      Hg        Ag (1)
   89    23          62.3311805517        1696.1176517668      Ag        Ag (1)
   90   109         102.6186353411        2792.3950302512       u        Au (8)
   91    40         102.6186353411        2792.3950302512       u       B2u (2)
   92    82         102.6186353411        2792.3950302512       u       B1u (5)
   93    56         102.6186353411        2792.3950302513       u       B3u (3)
   94    83         102.6186353411        2792.3950302513       u       B1u (5)
   95    41         102.6186353411        2792.3950302513       u       B2u (2)
   96    57         102.6186353411        2792.3950302513       u       B3u (3)
   97    58         115.8125820305        3151.4205721748     T1u       B3u (3)
   98    84         115.8125820305        3151.4205721748     T1u       B1u (5)
   99    42         115.8125820305        3151.4205721748     T1u       B2u (2)
  100    24         197.8412239044        5383.5333959879      Hg        Ag (1)
  101    95         197.8412239044        5383.5333959879      Hg       B3g (6)
  102   105         197.8412239044        5383.5333959879      Hg       B2g (7)
  103    69         197.8412239044        5383.5333959879      Hg       B1g (4)
  104    25         197.8412239044        5383.5333959879      Hg        Ag (1)
  105    26         214.9187572675        5848.2367038566      Ag        Ag (1)
  106    59         394.4003178390       10732.1782617979     T1u       B3u (3)
  107    43         394.4003178390       10732.1782617979     T1u       B2u (2)
  108    85         394.4003178390       10732.1782617979     T1u       B1u (5)
  109    27         893.7449665493       24320.0369465929      Ag        Ag (1)


  VSCF finished.

 @CHECKOUT-I, Total execution time (CPU/WALL):        7.95/       1.97 seconds.
--executable xvscf finished with status     0 in        2.01 seconds (walltime).
 --invoking executable--
/cvmfs/restricted.computecanada.ca/easybuild/software/2020/avx2/Compiler/intel2020/cfour/2.1/bin/xvtran
 @GETMEM-I,  Allocated   19073 MB of main memory.
  Full UHF integral transformation
  Transformation of IIII integrals :
  2 passes through the AO integral file were required.
       58779 AO integrals were read.
      104254 MO integrals (Spin case AAAA) were written to HF2AA.
      104254 MO integrals (Spin case BBBB) were written to HF2BB.
      207547 MO integrals (Spin case AABB) were written to HF2AB.
  Transformation of IIJJ integrals :
  2 passes through the AO integral file were required.
      269470 AO integrals were read.
      357987 MO integrals (Spin case AAAA) were written to HF2AA.
      357987 MO integrals (Spin case BBBB) were written to HF2BB.
      715974 MO integrals (Spin case AABB) were written to HF2AB.
  Transformation of IJIJ integrals :
  2 passes through the AO integral file were required.
      458861 AO integrals were read.
      634683 MO integrals (Spin case AAAA) were written to HF2AA.
      634683 MO integrals (Spin case BBBB) were written to HF2BB.
     1264332 MO integrals (Spin case AABB) were written to HF2AB.
  Transformation of IJKL integrals :
  2 passes through the AO integral file were required.
      971729 AO integrals were read.
     1195752 MO integrals (Spin case AAAA) were written to HF2AA.
     1195752 MO integrals (Spin case BBBB) were written to HF2BB.
     2391504 MO integrals (Spin case AABB) were written to HF2AB.
  Summary of active molecular orbitals: 
------------------------------------------------------------------------
                         * Spin case alpha *
 
  Index      Eigenvalue    Symmetry    Index      Eigenvalue    Symmetry
------------------------------------------------------------------------
     1       -21.4119812        1        56        32.3968366        3
     2        -2.0586910        1        57       102.5703519        3
     3        -1.3267152        2        58       102.5703519        3
     4        -1.3267152        3        59       115.7848412        3
     5        -1.3267152        5        60       394.3929894        3
     6        -0.1340627        1        61         0.1652596        4
     7         0.1652596        1        62         1.0371619        4
     8         0.1652596        1        63         3.1576340        4
     9         0.4742344        1        64         3.1576340        4
    10         1.0371619        1        65         3.6572490        4
    11         1.0371619        1        66         9.9469676        4
    12         3.1512829        1        67         9.9469676        4
    13         3.1576340        1        68        11.8691323        4
    14         3.1576340        1        69        46.2789042        4
    15         3.1576340        1        70       197.8224505        4
    16         3.6572490        1        71        -0.0846248        5
    17         3.6572490        1        72         0.3225857        5
    18         9.9469676        1        73         0.9568101        5
    19         9.9469676        1        74         0.9568101        5
    20         9.9469676        1        75         2.1119214        5
    21        11.8691323        1        76         3.4814355        5
    22        11.8691323        1        77         3.4814355        5
    23        15.6828743        1        78         8.5875126        5
    24        46.2789042        1        79        11.1178489        5
    25        46.2789042        1        80        11.1178489        5
    26        62.2853189        1        81        32.3968366        5
    27       197.8224505        1        82       102.5703519        5
    28       197.8224505        1        83       102.5703519        5
    29       214.9046868        1        84       115.7848412        5
    30       893.7413516        1        85       394.3929894        5
    31        -0.0846248        2        86         0.1652596        6
    32         0.3225857        2        87         1.0371619        6
    33         0.9568101        2        88         3.1576340        6
    34         0.9568101        2        89         3.1576340        6
    35         2.1119214        2        90         3.6572490        6
    36         3.4814355        2        91         9.9469676        6
    37         3.4814355        2        92         9.9469676        6
    38         8.5875126        2        93        11.8691323        6
    39        11.1178489        2        94        46.2789042        6
    40        11.1178489        2        95       197.8224505        6
    41        32.3968366        2        96         0.1652596        7
    42       102.5703519        2        97         1.0371619        7
    43       102.5703519        2        98         3.1576340        7
    44       115.7848412        2        99         3.1576340        7
    45       394.3929894        2       100         3.6572490        7
    46        -0.0846248        3       101         9.9469676        7
    47         0.3225857        3       102         9.9469676        7
    48         0.9568101        3       103        11.8691323        7
    49         0.9568101        3       104        46.2789042        7
    50         2.1119214        3       105       197.8224505        7
    51         3.4814355        3       106         0.9568101        8
    52         3.4814355        3       107         3.4814355        8
    53         8.5875126        3       108        11.1178489        8
    54        11.1178489        3       109       102.5703519        8
    55        11.1178489        3
------------------------------------------------------------------------
------------------------------------------------------------------------
                         * Spin case beta *
 
  Index      Eigenvalue    Symmetry    Index      Eigenvalue    Symmetry
------------------------------------------------------------------------
     1       -21.2821015        1        56       102.6186353        3
     2        -1.5427991        1        57       102.6186353        3
     3        -0.1182458        1        58       115.8125820        3
     4         0.1819498        1        59       394.4003178        3
     5         0.1819498        1        60         0.1819498        4
     6         0.5338209        1        61         1.1440665        4
     7         1.1440665        1        62         3.1818913        4
     8         1.1440665        1        63         3.1818913        4
     9         3.1818913        1        64         3.8515050        4
    10         3.1818913        1        65        10.0221508        4
    11         3.1818913        1        66        10.0221508        4
    12         3.2801078        1        67        12.0355083        4
    13         3.8515050        1        68        46.3572115        4
    14         3.8515050        1        69       197.8412239        4
    15        10.0221508        1        70        -0.3831928        5
    16        10.0221508        1        71        -0.0594051        5
    17        10.0221508        1        72         0.4208388        5
    18        12.0355083        1        73         0.9702617        5
    19        12.0355083        1        74         0.9702617        5
    20        15.7931316        1        75         2.2864849        5
    21        46.3572115        1        76         3.5565754        5
    22        46.3572115        1        77         3.5565754        5
    23        62.3311806        1        78         8.7384547        5
    24       197.8412239        1        79        11.2492211        5
    25       197.8412239        1        80        11.2492211        5
    26       214.9187573        1        81        32.4758053        5
    27       893.7449665        1        82       102.6186353        5
    28        -0.3831928        2        83       102.6186353        5
    29        -0.0594051        2        84       115.8125820        5
    30         0.4208388        2        85       394.4003178        5
    31         0.9702617        2        86         0.1819498        6
    32         0.9702617        2        87         1.1440665        6
    33         2.2864849        2        88         3.1818913        6
    34         3.5565754        2        89         3.1818913        6
    35         3.5565754        2        90         3.8515050        6
    36         8.7384547        2        91        10.0221508        6
    37        11.2492211        2        92        10.0221508        6
    38        11.2492211        2        93        12.0355083        6
    39        32.4758053        2        94        46.3572115        6
    40       102.6186353        2        95       197.8412239        6
    41       102.6186353        2        96         0.1819498        7
    42       115.8125820        2        97         1.1440665        7
    43       394.4003178        2        98         3.1818913        7
    44        -0.3831928        3        99         3.1818913        7
    45        -0.0594051        3       100         3.8515050        7
    46         0.4208388        3       101        10.0221508        7
    47         0.9702617        3       102        10.0221508        7
    48         0.9702617        3       103        12.0355083        7
    49         2.2864849        3       104        46.3572115        7
    50         3.5565754        3       105       197.8412239        7
    51         3.5565754        3       106         0.9702617        8
    52         8.7384547        3       107         3.5565754        8
    53        11.2492211        3       108        11.2492211        8
    54        11.2492211        3       109       102.6186353        8
    55        32.4758053        3
------------------------------------------------------------------------
  -21.4119811538014       -2.05869097465457       -1.32671515085991     
  -1.32671515085990       -1.32671515085991      -0.134062662505649     
  0.165259604221047       0.165259604221062       0.474234410399108     
   1.03716190125775        1.03716190125776        3.15128288664073     
   3.15763397638220        3.15763397638220        3.15763397638221     
   3.65724900200170        3.65724900200170        9.94696763824641     
   9.94696763824643        9.94696763824648        11.8691322696414     
   11.8691322696414        15.6828743126107        46.2789042195501     
   46.2789042195502        62.2853188770183        197.822450519362     
   197.822450519363        214.904686837627        893.741351649377     
 -8.462476775264913E-002  0.322585740912736       0.956810083122913     
  0.956810083122934        2.11192137754073        3.48143550230882     
   3.48143550230885        8.58751256573247        11.1178489433367     
   11.1178489433367        32.3968366450170        102.570351926280     
   102.570351926281        115.784841197200        394.392989405962     
 -8.462476775266010E-002  0.322585740912723       0.956810083122914     
  0.956810083122933        2.11192137754073        3.48143550230882     
   3.48143550230883        8.58751256573240        11.1178489433367     
   11.1178489433367        32.3968366450168        102.570351926281     
   102.570351926281        115.784841197199        394.392989405962     
  0.165259604221046        1.03716190125776        3.15763397638221     
   3.15763397638221        3.65724900200168        9.94696763824639     
   9.94696763824642        11.8691322696415        46.2789042195501     
   197.822450519362      -8.462476775266425E-002  0.322585740912699     
  0.956810083122916       0.956810083122920        2.11192137754067     
   3.48143550230883        3.48143550230885        8.58751256573226     
   11.1178489433367        11.1178489433367        32.3968366450166     
   102.570351926280        102.570351926281        115.784841197199     
   394.392989405963       0.165259604221049        1.03716190125776     
   3.15763397638221        3.15763397638222        3.65724900200171     
   9.94696763824642        9.94696763824645        11.8691322696415     
   46.2789042195501        197.822450519362       0.165259604221046     
   1.03716190125776        3.15763397638221        3.15763397638222     
   3.65724900200169        9.94696763824638        9.94696763824642     
   11.8691322696415        46.2789042195501        197.822450519362     
  0.956810083122915        3.48143550230884        11.1178489433367     
   102.570351926280     
  -21.2821014631937       -1.54279906311827      -0.118245821042159     
  0.181949815159621       0.181949815159628       0.533820925642236     
   1.14406651063825        1.14406651063827        3.18189133796753     
   3.18189133796754        3.18189133796755        3.28010784486096     
   3.85150495994936        3.85150495994938        10.0221507913692     
   10.0221507913693        10.0221507913693        12.0355082548785     
   12.0355082548786        15.7931316275394        46.3572115101740     
   46.3572115101742        62.3311805516954        197.841223904402     
   197.841223904403        214.918757267467        893.744966549291     
 -0.383192809547843      -5.940505311221894E-002  0.420838849718306     
  0.970261668158529       0.970261668158540        2.28648487059568     
   3.55657544316580        3.55657544316580        8.73845468407704     
   11.2492211456682        11.2492211456682        32.4758052511447     
   102.618635341092        102.618635341092        115.812582030461     
   394.400317838962      -0.383192809547865      -5.940505311218813E-002
  0.420838849718291       0.970261668158531       0.970261668158546     
   2.28648487059563        3.55657544316580        3.55657544316581     
   8.73845468407693        11.2492211456682        11.2492211456682     
   32.4758052511444        102.618635341092        102.618635341093     
   115.812582030460        394.400317838962       0.181949815159614     
   1.14406651063825        3.18189133796755        3.18189133796755     
   3.85150495994933        10.0221507913692        10.0221507913692     
   12.0355082548787        46.3572115101740        197.841223904402     
 -0.383192809547978      -5.940505311220978E-002  0.420838849718302     
  0.970261668158528       0.970261668158535        2.28648487059563     
   3.55657544316582        3.55657544316584        8.73845468407681     
   11.2492211456682        11.2492211456682        32.4758052511442     
   102.618635341092        102.618635341092        115.812582030460     
   394.400317838963       0.181949815159617        1.14406651063826     
   3.18189133796755        3.18189133796756        3.85150495994935     
   10.0221507913692        10.0221507913693        12.0355082548786     
   46.3572115101740        197.841223904402       0.181949815159616     
   1.14406651063825        3.18189133796755        3.18189133796755     
   3.85150495994935        10.0221507913692        10.0221507913693     
   12.0355082548787        46.3572115101741        197.841223904402     
  0.970261668158533        3.55657544316582        11.2492211456682     
   102.618635341092     
 @CHECKOUT-I, Total execution time (CPU/WALL):       20.40/     406.11 seconds.
--executable xvtran finished with status     0 in      406.15 seconds (walltime).
 --invoking executable--
/cvmfs/restricted.computecanada.ca/easybuild/software/2020/avx2/Compiler/intel2020/cfour/2.1/bin/xintprc
 @GETMEM-I,  Allocated   19073 MB of main memory.
  @GMOIAA-I, Processing MO integrals for spin case AA.
  @GMOIAA-I, Generation of integral list completed.
                      TYPE                NUMBER
                      ----               --------
                      PPPP               1895455
                      PPPH                366345
                      PPHH                 18306
                      PHPH                 11355
                      PHHH                  1182
                      HHHH                    33

                     TOTAL               2292676
  @GMOIAA-I, Processing MO integrals for spin case BB.
  @GMOIAA-I, Generation of integral list completed.
                      TYPE                NUMBER
                      ----               --------
                      PPPP               2123071
                      PPPH                163200
                      PPHH                  3525
                      PHPH                  2724
                      PHHH                   150
                      HHHH                     6

                     TOTAL               2292676
  @GMOIAB-I, Processing MO integrals for spin case AB.
                      TYPE                NUMBER
                      ----               --------
                      PPPP               4006430
                      PPPH1H              387840
                      PPPH2H              154140
                      PPHH                 15494
                      PHPH1P                2580
                      PHPH2P               12018
                      PHHH1P                 285
                      PHHH2P                 552
                      HHHH                    18

                     TOTAL               4579357

  @FORMT2-I, Second-order MP correlation energies:
  @FORMT2-I, Singles contribution will be calculated.
            ------------------------------------------------
            E(SCF)                  =    -74.371288623954 a.u.
            E2(AA)                  =     -0.037238999436 a.u.
            E2(BB)                  =     -0.001081665999 a.u.
            E2(AB)                  =     -0.128821134685 a.u.
            E2(SINGLE)              =     -0.003193571978 a.u.
            E2(TOT)                 =     -0.167141800120 a.u.
            Total MP2 energy        =    -74.541623996052 a.u.
            ------------------------------------------------
            ----------------------------------------------
                     Projected spin multiplicities: 
            ----------------------------------------------
             <0|S^2|0>                  =    3.7500000000.
             <0|S^2 T2|0>               =   -0.0000000000.
             Projected <0|S^2 exp(T)|0> =    3.7500000000.
             Approximate spin mult.     =    4.0000000000.
            ----------------------------------------------
   Largest T2 amplitudes for spin case AA:
   i   j   a   b             i   j   a   b             i   j   a   b
-----------------------------------------------------------------------------
[  4   3  62  11]-0.01226 [  5   3  87  10] 0.01146 [  5   4  75  50]-0.01090
[  5   3  75  35]-0.01090 [  4   3  50  35]-0.01090 [  5   4  72  47]-0.01062
[  4   3  47  32]-0.01062 [  5   3  72  32]-0.01062 [  5   4  97  10] 0.00977
[  4   3  47  35]-0.00932 [  5   4  75  47]-0.00932 [  5   4  72  50]-0.00932
[  5   3  72  35]-0.00932 [  4   3  50  32]-0.00932 [  5   3  75  32]-0.00932
-----------------------------------------------------------------------------
   Norm of T2AA vector (     6951 symmetry allowed elements):  0.0687912970.
-----------------------------------------------------------------------------
   Largest T2 amplitudes for spin case BB:
   i   j   a   b             i   j   a   b             i   j   a   b
-----------------------------------------------------------------------------
[  2   1  78  70] 0.00159 [  2   1  52  44] 0.00159 [  2   1  36  28] 0.00159
[  2   1  81  70]-0.00093 [  2   1  55  44]-0.00093 [  2   1  39  28]-0.00093
[  2   1  52  46] 0.00093 [  2   1  36  30] 0.00093 [  2   1  78  72] 0.00093
[  2   1  36  33] 0.00091 [  2   1  52  49] 0.00091 [  2   1  78  75] 0.00091
[  2   1  75  70] 0.00086 [  2   1  33  28] 0.00086 [  2   1  49  44] 0.00086
-----------------------------------------------------------------------------
   Norm of T2BB vector (      801 symmetry allowed elements):  0.0050708270.
-----------------------------------------------------------------------------
   Largest T2 amplitudes for spin case AB:
       _       _                 _       _                 _       _
   i   j   a   b             i   j   a   b             i   j   a   b
-----------------------------------------------------------------------------
[  5   2  10  70]-0.02283 [  4   2  11  44] 0.02135 [  3   2  87  70]-0.01996
[  4   2  97  70]-0.01996 [  3   2  62  44]-0.01996 [  5   2  87  28]-0.01996
[  5   2  97  44]-0.01996 [  4   2  62  28]-0.01996 [  3   2  11  28]-0.01820
[  3   2  16  28]-0.01622 [  4   2  17  44]-0.01608 [  3   2  90  70] 0.01448
[  4   2 100  70] 0.01448 [  5   2 100  44] 0.01448 [  3   2  65  44] 0.01448
-----------------------------------------------------------------------------
   Norm of T2AB vector (    15494 symmetry allowed elements):  0.1192361602.
-----------------------------------------------------------------------------
 @CHECKOUT-I, Total execution time (CPU/WALL):        2.88/     191.11 seconds.
--executable xintprc finished with status     0 in      191.16 seconds (walltime).
  calling xvcc 
 --invoking executable--
/cvmfs/restricted.computecanada.ca/easybuild/software/2020/avx2/Compiler/intel2020/cfour/2.1/bin/xvcc
 @GETMEM-I,  Allocated   19073 MB of main memory.
   CCSDT   energy will be calculated.
   The reference state is a ROHF wave function.
   The total correlation energy is -0.170388619297 a.u.
  transposing abij 
   The total correlation energy is -0.183748104643 a.u.
  Convergence information after     1 iterations: 
  Largest element of residual vector : -0.49043006E-02.
  Largest element of DIIS residual   : -0.49043006E-02.
  transposing abij 
   The total correlation energy is -0.186268105815 a.u.
  Convergence information after     2 iterations: 
  Largest element of residual vector : -0.14226154E-02.
  Largest element of DIIS residual   : -0.84180681E-03.
  transposing abij 
   The total correlation energy is -0.187076657616 a.u.
  Convergence information after     3 iterations: 
  Largest element of residual vector : -0.36566024E-03.
  Largest element of DIIS residual   : -0.40040494E-03.
  transposing abij 
   The total correlation energy is -0.187181526778 a.u.
  Convergence information after     4 iterations: 
  Largest element of residual vector : -0.14200311E-03.
  Largest element of DIIS residual   : -0.84469638E-04.
  transposing abij 
   The total correlation energy is -0.187194087230 a.u.
  Convergence information after     5 iterations: 
  Largest element of residual vector : -0.41379047E-04.
  Largest element of DIIS residual   :  0.14383351E-04.
  transposing abij 
   The total correlation energy is -0.187194871173 a.u.
  Convergence information after     6 iterations: 
  Largest element of residual vector : -0.84383957E-05.
  Largest element of DIIS residual   : -0.68292247E-05.
  transposing abij 
   The total correlation energy is -0.187195454980 a.u.
  Convergence information after     7 iterations: 
  Largest element of residual vector : -0.19255912E-05.
  Largest element of DIIS residual   : -0.41455265E-06.
  transposing abij 
   The total correlation energy is -0.187195629478 a.u.
  Convergence information after     8 iterations: 
  Largest element of residual vector : -0.16043293E-06.
  Largest element of DIIS residual   : -0.89117155E-07.
  transposing abij 
   The total correlation energy is -0.187195625801 a.u.
  Convergence information after     9 iterations: 
  Largest element of residual vector : -0.76123066E-07.
  Largest element of DIIS residual   :  0.44922909E-07.
  transposing abij 
   The total correlation energy is -0.187195627800 a.u.
  Convergence information after    10 iterations: 
  Largest element of residual vector : -0.16099844E-07.
  Largest element of DIIS residual   : -0.12653130E-07.
  transposing abij 
   The total correlation energy is -0.187195629992 a.u.
  Convergence information after    11 iterations: 
  Largest element of residual vector : -0.54682070E-08.
  Largest element of DIIS residual   :  0.32926946E-08.
  transposing abij 
   The total correlation energy is -0.187195631250 a.u.
  Convergence information after    12 iterations: 
  Largest element of residual vector : -0.62669273E-09.
  Largest element of DIIS residual   : -0.48115306E-09.
  transposing abij 
   The total correlation energy is -0.187195631533 a.u.
  Convergence information after    13 iterations: 
  Largest element of residual vector : -0.94417841E-09.
  Largest element of DIIS residual   : -0.23054054E-09.
  transposing abij 
   The total correlation energy is -0.187195631637 a.u.
  Convergence information after    14 iterations: 
  Largest element of residual vector : -0.65752388E-09.
  Largest element of DIIS residual   : -0.32440286E-09.
  transposing abij 
   The total correlation energy is -0.187195631734 a.u.
  Convergence information after    15 iterations: 
  Largest element of residual vector :  0.11896201E-09.
  Largest element of DIIS residual   :  0.32539630E-10.
  transposing abij 
   The total correlation energy is -0.187195631737 a.u.
  Convergence information after    16 iterations: 
  Largest element of residual vector : -0.24946472E-10.
  Largest element of DIIS residual   : -0.98729544E-11.
  Amplitude equations converged in    16iterations.
   The total correlation energy is -0.187195631740 a.u.
   The CC iterations have converged.

            ----------------------------------------------
                     Projected spin multiplicities: 
            ----------------------------------------------
             <0|S^2|0>                  =    3.7500000000.
             <0|S^2 (T2+T1**2) |0>      =   -0.0000000000.
             <0|S^2 T1|0>               =   -0.0000000000.
             Projected <0|S^2 exp(T)|0> =    3.7500000000.
             Approximate spin mult.     =    4.0000000000.
            ----------------------------------------------
   Largest T1 amplitudes for spin case AA:
   i       a                 i       a                 i       a    
-----------------------------------------------------------------------------
[  2       9    ]-0.02012 [  2       6    ] 0.01521 [  2      12    ] 0.00881
[  3      35    ] 0.00279 [  5      75    ] 0.00279 [  4      50    ] 0.00279
[  1      12    ] 0.00176 [  1       9    ]-0.00119 [  1      23    ]-0.00104
[  5      78    ] 0.00094 [  3      38    ] 0.00094 [  4      53    ] 0.00094
[  3      32    ] 0.00077 [  5      72    ] 0.00077 [  4      47    ] 0.00077
-----------------------------------------------------------------------------
   Norm of T1AA vector (       95 symmetry allowed elements):  0.0273556503.
-----------------------------------------------------------------------------
   Largest T2 amplitudes for spin case AA:
   i   j   a   b             i   j   a   b             i   j   a   b
-----------------------------------------------------------------------------
[  4   3  62  11]-0.01273 [  5   4  72  47]-0.01256 [  4   3  47  32]-0.01256
[  5   3  72  32]-0.01256 [  5   3  75  35]-0.01240 [  5   4  75  50]-0.01240
[  4   3  50  35]-0.01240 [  5   3  87  10] 0.01190 [  4   3  47  35]-0.01094
[  5   3  72  35]-0.01094 [  5   4  75  47]-0.01094 [  5   3  75  32]-0.01094
[  5   4  72  50]-0.01094 [  4   3  50  32]-0.01094 [  5   4  97  10] 0.01014
-----------------------------------------------------------------------------
   Norm of T2AA vector (     6951 symmetry allowed elements):  0.0756158556.
-----------------------------------------------------------------------------
   Largest T1 amplitudes for spin case BB:
   i       a                 i       a                 i       a    
-----------------------------------------------------------------------------
[  2       6    ] 0.02265 [  2       3    ]-0.01971 [  2      12    ]-0.00551
[  1      12    ]-0.00114 [  2      20    ]-0.00090 [  1       6    ] 0.00079
[  1      20    ] 0.00074 [  1       3    ]-0.00038 [  1      23    ]-0.00015
[  2      23    ] 0.00013 [  1      26    ] 0.00003 [  2      26    ]-0.00001
[  1      27    ] 0.00000 [  2      27    ]-0.00000 [  1      24    ]-0.00000
-----------------------------------------------------------------------------
   Norm of T1BB vector (       50 symmetry allowed elements):  0.0305784418.
-----------------------------------------------------------------------------
   Largest T2 amplitudes for spin case BB:
   i   j   a   b             i   j   a   b             i   j   a   b
-----------------------------------------------------------------------------
[  2   1  78  70] 0.00148 [  2   1  52  44] 0.00148 [  2   1  36  28] 0.00148
[  2   1  81  70]-0.00088 [  2   1  55  44]-0.00088 [  2   1  39  28]-0.00088
[  2   1  52  49] 0.00088 [  2   1  36  33] 0.00088 [  2   1  78  75] 0.00088
[  2   1  52  46] 0.00088 [  2   1  36  30] 0.00088 [  2   1  78  72] 0.00088
[  2   1  81  75]-0.00081 [  2   1  55  49]-0.00081 [  2   1  39  33]-0.00081
-----------------------------------------------------------------------------
   Norm of T2BB vector (      801 symmetry allowed elements):  0.0048206045.
-----------------------------------------------------------------------------
   Largest T2 amplitudes for spin case AB:
       _       _                 _       _                 _       _
   i   j   a   b             i   j   a   b             i   j   a   b
-----------------------------------------------------------------------------
[  5   2  10  70]-0.02989 [  4   2  11  44] 0.02796 [  3   2  87  70]-0.02614
[  4   2  97  70]-0.02614 [  4   2  62  28]-0.02614 [  3   2  62  44]-0.02614
[  5   2  87  28]-0.02614 [  5   2  97  44]-0.02614 [  3   2  11  28]-0.02382
[  3   2  16  28]-0.01894 [  4   2  17  44]-0.01877 [  3   2  10  28] 0.01853
[  4   2 100  70] 0.01691 [  3   2  90  70] 0.01691 [  3   2  65  44] 0.01691
-----------------------------------------------------------------------------
   Norm of T2AB vector (    15494 symmetry allowed elements):  0.1470112039.
-----------------------------------------------------------------------------
       Summary of iterative solution of CC equations 
      -----------------------------------------------------------
                       Correlation           Total
       Iteration         Energy              Energy
      -----------------------------------------------------------
            0        -0.170388619297     -74.541677243251  DIIS 
            1        -0.183748104643     -74.555036728597  DIIS 
            2        -0.186268105815     -74.557556729769  DIIS 
            3        -0.187076657616     -74.558365281570  DIIS 
            4        -0.187181526778     -74.558470150732  DIIS 
            5        -0.187194087230     -74.558482711184  DIIS 
            6        -0.187194871173     -74.558483495127  DIIS 
            7        -0.187195454980     -74.558484078934  DIIS 
            8        -0.187195629478     -74.558484253432  DIIS 
            9        -0.187195625801     -74.558484249755  DIIS 
           10        -0.187195627800     -74.558484251754  DIIS 
           11        -0.187195629992     -74.558484253946  DIIS 
           12        -0.187195631250     -74.558484255204  DIIS 
           13        -0.187195631533     -74.558484255486  DIIS 
           14        -0.187195631637     -74.558484255590  DIIS 
           15        -0.187195631734     -74.558484255688  DIIS 
           16        -0.187195631740     -74.558484255694  DIIS 
      -----------------------------------------------------------
      A miracle has come to pass. The CC iterations have converged.
      The reference energy is       -74.37128862395377 a.u.
      The correlation energy is      -0.18719563174033 a.u.
      The total energy is           -74.55848425569411 a.u.
 @CHECKOUT-I, Total execution time (CPU/WALL):      609.87/     150.15 seconds.
--executable xvcc finished with status     0 in      150.20 seconds (walltime).
  The final electronic energy is       -74.558484255694111 a.u. 
  This computation required                          754.45 seconds (walltime).
Program finished with exit code 0 at: Tue Mar 19 11:18:14 EDT 2024

