Starting run at: Tue Mar 19 10:58:48 EDT 2024
 --invoking executable--
/cvmfs/restricted.computecanada.ca/easybuild/software/2020/avx2/Compiler/intel2020/cfour/2.1/bin/xjoda


   *************************************************************************
         <<<     CCCCCC     CCCCCC   |||     CCCCCC     CCCCCC   >>>
       <<<      CCC        CCC       |||    CCC        CCC         >>>
      <<<      CCC        CCC        |||   CCC        CCC            >>>
    <<<        CCC        CCC        |||   CCC        CCC              >>>
      <<<      CCC        CCC        |||   CCC        CCC            >>>
       <<<      CCC        CCC       |||    CCC        CCC         >>>
         <<<     CCCCCC     CCCCCC   |||     CCCCCC     CCCCCC   >>>
   *************************************************************************

     ****************************************************************
     * CFOUR Coupled-Cluster techniques for Computational Chemistry *
     ****************************************************************
 

   Department of Chemistry                Institut fuer Physikalische Chemie
   University of Florida                  Universitaet Mainz
   Gainesville, FL 32611, USA             D-55099 Mainz, Germany

   Department of Chemistry                Fakultaet fuer Chemie und Biowiss.
   Johns Hopkins University               Karlsruher Institut fuer Technologie
   Baltimore, MD 21218, USA               D-76131 Karlsruhe, Germany

   Department of Chemistry                Department of Physical Chemistry
   Southern Methodist University          Eotvos Lorand University
   Dallas, TX 75275, USA                  H-1053 Budapest, Hungary

 
                       Version 2.1
 
                     gra702                                            
                     Tue Mar 19 10:58:49 EDT 2024                      
                     integer*8 version is running
 
********************************************************************************
*                          Input from ZMAT file                                *
********************************************************************************
TITLE                                                                           
O                                                                               
                                                                                
*ACES2(CALC=CCSD(T)                                                             
#FROZEN_CORE=ON                                                                 
#DROPMO=1                                                                       
#INPUT_MRCC=OFF                                                                 
#CC_PROG=MRCC                                                                   
XFORM_TOL=18                                                                    
SAVE_INTS=ON                                                                    
SCF_EXPORDER=6                                                                  
SCF_EXPSTART=5                                                                  
#SCF_DAMPING=1000                                                               
SCF_EXTRAPOLATION=ON                                                            
SCF_CONV=10                                                                     
SCF_MAXCYC=9999                                                                 
CC_CONV=10                                                                      
CC_MAXCYC=999                                                                   
T3_EXTRAPOL=ON                                                                  
REFERENCE=ROHF                                                                  
CHARGE=+1                                                                       
MULT=4                                                                          
ABCDTYPE=STANDARD                                                               
OCCUPATION=2-1-1-0-1-0-0-0/2-0-0-0-0-0-0-0                                      
MEM=20                                                                          
MEM_UNIT=GB                                                                     
BASIS=SPECIAL)                                                                  
                                                                                
O:aCVTZ-EMSL                                                                    
                                                                                
********************************************************************************
  @GTFLGS-W, Keyword #FROZEN_CORE not known and is ignored.
  @GTFLGS-W, Keyword #DROPMO not known and is ignored.
  @GTFLGS-W, Keyword #INPUT_MRCC not known and is ignored.
  @GTFLGS-W, Keyword #CC_PROG not known and is ignored.
  @GTFLGS-W, Keyword #SCF_DAMPING not known and is ignored.
    -------------------------------------------------------------------
                    CFOUR Control Parameters 
    -------------------------------------------------------------------
        External           Internal           Value            Units
          Name               Name
    -------------------------------------------------------------------
       ABCDTYPE             IABCDT         STANDARD    [  0]    ***   
       ANHARMONIC           IANHAR         OFF         [  0]    ***   
       ANH_ALGORIT          IANALG         STANDARD    [  0]    ***   
       ANH_DERIVAT          IANDER         SECOND      [  1]    ***   
       ANH_MODE             ANHMOD         VIBRATION   [  0]    ***   
       ANH_STEPSIZ          ICUBST             50000          x 10-6  
       ANH_SYMMETR          IANHSM         ABELIAN     [  0]    ***   
       AO_LADDERS           IAOLAD         SINGLEPASS  [  1]    ***   
       AV_SCF               IAVSCF         OFF         [  0]    ***   
       BASIS                IBASIS         SPECIAL     [  0]    ***   
       BOTHVECTORS          BOTHVC         OFF         [  0]    ***   
       BOX_POTENT           IPIAB          OFF         [  0]    ***   
       BREIT                IBREIT         OFF         [  0]    ***   
       BRUCK_CONV           IBRTOL          10D-  4             ***   
       BRUECKNER            IBRKNR         OFF         [  0]    ***   
       BUFFERSIZE           IBUFFS              4096            ***   
       CACHE_RECS           ICHREC             10               ***   
       CALCLEVEL            ICLLVL         CCSD(T)     [ 22]    ***   
       CCORBOPT             ICCORB         OFF         [  0]  x 0.01  
       CC_CONV              ICCCNV          10D- 10             ***   
       CC_EXPORDER          ICCEOR              5               ***   
       CC_EXTRAPOL          ICCEXT         DIIS        [  1]    ***   
       CC_GUESS             ICCGES         MP2         [  0]    ***   
       CC_MAXCYC            ICCCYC            999              cycles 
       CC_PROGRAM           ICCPRO         VCC         [  0]    ***   
       CHARGE               ICHRGE              1               ***   
       CHOLESKY             ICHOLE         OFF         [  0]    ***   
       CIS_CONV             ICISTL              5               ***   
       COMM_SIZE            IPSIZE            ***               ***   
       CONSTANT             ICONST         OLD         [  1]    ***   
       CONTINUUM            ICONTU         NONE        [  0]    ***   
       CONTRACTION          ICNTYP         GENERAL     [  1]    ***   
       COORDINATES          ICOORD         INTERNAL    [  0]    ***   
       CPHF_CONVER          ICPHFT          10D- 16             ***   
       CPHF_MAXCYC          ICPHFC             64              cycles 
       CUBIC                ICUBIC         OFF         [  0]    ***   
       CURVILINEAR          ICURVY         OFF         [  0]    ***   
       DBOC                 IDBOC          OFF         [  0]    ***   
       DCT                  IDCT           OFF         [  0]    ***   
       DERIV_LEV            IDRLVL         ZERO        [  0]    ***   
       DEVMEM_SIZE          IDVMEM         *********           MByte  
       DIAG_MRCC            IEOMST          10D-  0             ***   
       DIFF_TYPE            IDIFTY         RELAXED     [  0]    ***   
       DIRECT               IDIRCT         OFF         [  0]    ***   
       DROPMO               IDRPMO      NONE         
       ECP                  IECP           OFF         [  0]    ***   
       EIGENVECTOR          IVEC                1               ***   
       EL_ANHARM            IELANH         OFF         [  0]    ***   
       EOMFOLLOW            IEOMSR         ENERGY      [  0]    ***   
       EOMIP                IEOMIP         OFF         [  0]    ***   
       EOMLEVEL             HBARFM         SAME        [  0]    ***   
       EOM_MRCC             IMRCCE         NEW         [  1]    ***   
       EOM_NONIT            EOMNON         OFF         [  0]    ***   
       EOM_NSING            IEOMSI          10D-  0             ***   
       EOM_NSTATES          IMRCCD         DAVIDSON    [  0]    ***   
       EOM_NTRIP            IEOMTR          10D-  0             ***   
       EOM_ORDER            IEXORD         ENERGY      [  0]    ***   
       EOM_PROPSTA          IEOMST              0               ***   
       ESTATE_CONV          IEXTOL          10D-  5             ***   
       ESTATE_DIAG          IEXDIG         ITERATIVE   [  0]    ***   
       ESTATE_LOCK          IESLOC         ON          [  1]    ***   
       ESTATE_MAXC          IEXMXC             40               ***   
       ESTATE_PROP          IEXPRP         OFF         [  0]    ***   
       EVAL_HESS            IRECAL              0            # of cyc.
       EXCITATION           IEXCIT              0               ***   
       EXCITE               IEXCIT         NONE        [  0]    ***   
       EXTERN_POT           IEXPOT         OFF         [  0]    ***   
       FCGRADNEW            IFCGNW         OFF         [  0]    ***   
       FC_FIELD             IFINFC              0             x 10-6  
       FD_CALTYPE           IFDCAL         GRADONLY    [  0]    ***   
       FD_PROJECT           IFDPRJ         OFF         [  1]    ***   
       FD_STEPSIZE          IDISFD              0            10-4 bohr
       FD_USEGROUP          IFDGRP         FULL        [  0]    ***   
       FILE_RECSIZ          IFLREC              4096           words  
       FINITE_PERT          IFIPER              0             x 10-6  
       FIXGEOM              IFIXGM         OFF         [  0]    ***   
       FOCK                 IFOCK          AO          [  1]    ***   
       FREQ_ALGORI          IVIALG         STANDARD    [  0]    ***   
       FROZEN_CORE          IFROCO         OFF         [  0]    ***   
       GAMMA_ABCD           IGABCD         STORE       [  0]    ***   
       GAMMA_ABCI           IGABCI         STORE       [  0]    ***   
       GENBAS_1             IGNBS1              0               ***   
       GENBAS_2             IGNBS2              0               ***   
       GENBAS_3             IGNBS3              0               ***   
       GENBAS_4             IGNBS4              0               ***   
       GEO_CONV             ICONTL              5              H/bohr 
       GEO_MAXCYC           IOPTCY             50               ***   
       GEO_MAXSTEP          IMXSTP            300            millibohr
       GEO_METHOD           INR            SINGLE_POINT[  5]    ***   
       GIAO                 IGIAO          OFF         [  1]    ***   
       GIMIC                IGIMIC         OFF         [  0]    ***   
       GRID                 IGRID          OFF         [  0]    ***   
       GRID_ALGO            IGALGO         SERIAL      [  0]    ***   
       GUESS                IGUESS         MOREAD      [  0]    ***   
       HBAR                 IHBAR          OFF         [  0]    ***   
       HESS_TYPE            IHESTP         SCF         [  0]    ***   
       HF2_FILE             IHF2Fl         USE         [  1]    ***   
       HFSTABILITY          ISTABL         OFF         [  0]    ***   
       INCORE               INCORE         OFF         [  0]    ***   
       INPUT_MRCC           IMRCC          ON          [  1]    ***   
       INTEGRALS            INTTYP         VMOL        [  1]    ***   
       JODA_PRINT           IJPRNT              0               ***   
       KEYWORD_OUT          IDMPKW         NO          [  0]    ***   
       LINDEP_TOL           ILINDP              8               ***   
       LINEQ_CONV           IZTACN          10D-  7           cycles  
       LINEQ_EXPOR          ILMAXD              5               ***   
       LINEQ_MAXCY          ILMAXC            100               ***   
       LINEQ_TYPE           ILTYPE         DIIS        [  1]    ***   
       LOCK_ORBOCC          ILOCOC         OFF         [  0]    ***   
       MEMORY_SIZE          IMEMSZ         *********           words  
       MEM_UNIT             IMEMU          GB          [  3]    ***   
       MRCC                 IMRCCC         OFF         [  0]    ***   
       MULTIPLICTY          IMULTP              4               ***   
       NACOUPLING           IVCOUP         OFF         [  0]    ***   
       NEGEVAL              IDIE           ABORT       [  0]    ***   
       NEWNORM              INEWNO         OFF         [  0]    ***   
       NON-HF               INONHF         ON          [  1]    ***   
       NTOP_TAMP            ITOPT2             15               ***   
       NUC_MODEL            INUCMO         POINT       [  0]    ***   
       OCCUPATION           IOCCU  A   2,  1,  1,  0,  1,  0,  0,  0,
                                   B   2,  0,  0,  0,  0,  0,  0,  0,
       OPEN-SHELL           IOPEN          SPIN-ORBITAL[  0]    ***   
       OPTVIB               IOPTVB         OFF         [  0]    ***   
       ORBITALS             IORBTP         SEMICANONICA[  1]    ***   
       PARALLEL             IPARAL         ON          [  1]    ***   
       PARA_INT             IPINTS         ON          [  1]    ***   
       PARA_PRINT           IPPRIN              0               ***   
       PERT_ORB             IPTORB         STANDARD    [  0]    ***   
       POINTS               IGRDFD              0               ***   
       PRINT                IPRNT               0               ***   
       PROPS                IPROPS         OFF         [  0]    ***   
       PROP_INTEGR          IINTYP         INTERNAL    [  0]    ***   
       PSI                  IPSI           OFF         [  0]    ***   
       QC_ALG               IQCALG         FLM         [  0]    ***   
       QC_LINALG            IQCLIN         TRIDIAG     [  2]    ***   
       QC_MAXCYC            IQCMAX          10D-100           cycles  
       QC_MAXSCFCY          IQCMSC          10D- 15           cycles  
       QC_RTRUST            IQCRTR          10D-  0           x 10-3  
       QC_SKIPSCF           IQCSKI         OFF         [  0]    ***   
       QC_START             IQCSTA          10D-  1             ***   
       QRHFGUESS            IQGUES         OFF         [  0]    ***   
       QUARTIC              IQUART         OFF         [  0]    ***   
       RAMAN_INT            IRAMIN         OFF         [  0]    ***   
       RAMAN_ORB            IRAMRE         UNRELAXED   [  0]    ***   
       RDO                  IRDOFM         OFF         [  0]    ***   
       REDUCE_REPR          REDREP         Ir          [  0]    ***   
       REFERENCE            IREFNC         ROHF        [  2]    ***   
       RELATIVIST           IRELAT         OFF         [  0]    ***   
       RELAX_DENS           IRDENS         OFF         [  0]    ***   
       RESET_FLAGS          IRESET         OFF         [  0]    ***   
       RESTART_CC           ICCRES         OFF         [  0]    ***   
       ROT_EVEC             ROTVEC              0               ***   
       SAVE_INTS            ISVINT         ON          [  1]    ***   
       SCALE_ON             ISTCRT              0               ***   
       SCF_CONV             ISCFCV          10D- 10             ***   
       SCF_DAMPING          IDAMP               0             x 10-3  
       SCF_EXPORDE          IRPPOR              6               ***   
       SCF_EXPSTAR          IRPPLS              5               ***   
       SCF_EXTRAPO          IRPP           ON          [  1]    ***   
       SCF_MAXCYC           ISCFCY            ***              cycles 
       SCF_NOSTOP           ISCFST         OFF         [  0]    ***   
       SCF_PRINT            ISCFPR              0               ***   
       SCF_PROG             ISCFPR         SCF         [  0]    ***   
       SD_FIELD             IFINSD              0             x 10-6  
       SOPERT               IPERSO         OFF         [  0]    ***   
       SPHERICAL            IDFGHI         ON          [  1]    ***   
       SPINORBIT            ISOCAL         OFF         [  0]    ***   
       SPINROTATIO          ISRCON         OFF         [  0]    ***   
       SPIN_FLIP            ISPFLP         OFF         [  0]    ***   
       SPIN_ORBIT           ISPORB         OFF         [  0]    ***   
       SPIN_SCAL            ISCSMP         OFF         [  0]    ***   
       STEEPSCALE           ISTPSC              1000          x 10-3  
       SUBGROUP             ISUBGP         DEFAULT     [  0]    ***   
       SUBGRPAXIS           ISBXYZ         X           [  0]    ***   
       SYMMETRY             ISYM           ON          [  0]    ***   
       SYM_CHECK            ISYMCK         OVERRIDE    [  1]    ***   
       T3_EXTRAPOL          IT3EXT         ON          [  1]    ***   
       T4_EXTRAPOL          IT4EXP         OFF         [  0]    ***   
       TAMP_SUM             IEVERY              5               ***   
       TESTSUITE            ITESTS         OFF         [  0]    ***   
       THERMOCH             ITHERM         OFF         [  0]    ***   
       TOL_CHOLESK          ITOLCH          10D-  4             ***   
       TRANGRAD             IRESRM         OFF         [  0]    ***   
       TRANS_INV            ITRAIN         USE         [  0]    ***   
       TREAT_PERT           ITREAT         SIMULTANEOUS[  0]    ***   
       TRIP_ALGORI          ITRALG         NORMAL      [  0]    ***   
       UIJ_THRESHO          IUIJTH              1               ***   
       UNITS                IUNITS         ANGSTROM    [  0]    ***   
       UNOS                 IUNOS          OFF         [  0]    ***   
       UPDATE_HESS          IHUPDT         ON          [  1]    ***   
       VIBPHASE             ISETPH         STANDARD    [  0]    ***   
       VIBRATION            IVIB           NO          [  0]    ***   
       VIB_ALGORIT          IGEALG         STANDARD    [  0]    ***   
       VNATORB              IVNORB         OFF         [  0]    ***   
       VTRAN                IVTRAN         FULL/PARTIAL[  0]    ***   
       XFIELD               IXEFLD              0             x 10-6  
       XFORM_TOL            IXFTOL          10D- 18             ***   
       YFIELD               IYEFLD              0             x 10-6  
       ZFIELD               IZEFLD              0             x 10-6  
       ZSCALE_EXP           IZEXPS         OFF         [  0]    ***   
    -------------------------------------------------------------------
   1 entries found in Z-matrix 
   Job Title : TITLE                                                                           
   Rotational constants (in cm-1): 

   Rotational constants (in MHz): 

********************************************************************************
   The full molecular point group is I h .
   The largest Abelian subgroup of the full molecular point group is D2h .
   The computational point group is D2h .
********************************************************************************
  ECPDATA file not present.   Using default ECPDATA. 
  @GTFLGS-W, Keyword #FROZEN_CORE not known and is ignored.
  @GTFLGS-W, Keyword #DROPMO not known and is ignored.
  @GTFLGS-W, Keyword #INPUT_MRCC not known and is ignored.
  @GTFLGS-W, Keyword #CC_PROG not known and is ignored.
  @GTFLGS-W, Keyword #SCF_DAMPING not known and is ignored.
  There are   59 basis functions.
 @GEOPT-W, Archive file not created for single-point calculation.
 @CHECKOUT-I, Total execution time (CPU/WALL):        0.17/       1.10 seconds.
--executable xjoda finished with status     0 in        1.14 seconds (walltime).
 --invoking executable--
/cvmfs/restricted.computecanada.ca/easybuild/software/2020/avx2/Compiler/intel2020/cfour/2.1/bin/xvmol
 SERIAL VERSION OF MOLECULE STARTED
********************************************************************************
                    INPUT FROM MOL FILE
********************************************************************************
INTGRL        1    0    1    0    0    0    0    0    0                         
         *** CFOUR Program System (Release V0.1) ***                            
TITLE                                                                           
    1    3 X  Y   Z   0.10E-08              0    0                              
   9999.00      3.00                                                            
          8.00000000    1    4    1    1    1    1                              
O #1   0.000000000000000   0.000000000000000   0.000000000000000                
   13    7                                                                      
   15330.0000000000       5.080000000000000E-004 -1.150000000000000E-004        
  0.000000000000000E+000  0.000000000000000E+000  0.000000000000000E+000        
  0.000000000000000E+000  0.000000000000000E+000                                
   2299.00000000000       3.929000000000000E-003 -8.950000000000000E-004        
  0.000000000000000E+000  0.000000000000000E+000  0.000000000000000E+000        
  0.000000000000000E+000  0.000000000000000E+000                                
   522.400000000000       2.024300000000000E-002 -4.636000000000000E-003        
  0.000000000000000E+000  0.000000000000000E+000  0.000000000000000E+000        
  0.000000000000000E+000  0.000000000000000E+000                                
   147.300000000000       7.918100000000000E-002 -1.872400000000000E-002        
  0.000000000000000E+000  0.000000000000000E+000  0.000000000000000E+000        
  0.000000000000000E+000  0.000000000000000E+000                                
   47.5500000000000       0.230687000000000      -5.846300000000000E-002        
  0.000000000000000E+000  0.000000000000000E+000  0.000000000000000E+000        
  0.000000000000000E+000  0.000000000000000E+000                                
   16.7600000000000       0.433118000000000      -0.136463000000000             
  0.000000000000000E+000  0.000000000000000E+000  0.000000000000000E+000        
  0.000000000000000E+000  0.000000000000000E+000                                
   6.20700000000000       0.350260000000000      -0.175740000000000             
  0.000000000000000E+000  0.000000000000000E+000  0.000000000000000E+000        
  0.000000000000000E+000  0.000000000000000E+000                                
   1.75200000000000       4.272800000000000E-002  0.160934000000000             
   1.00000000000000       0.000000000000000E+000  0.000000000000000E+000        
  0.000000000000000E+000  0.000000000000000E+000                                
  0.688200000000000      -8.154000000000000E-003  0.603418000000000             
  0.000000000000000E+000  0.000000000000000E+000  0.000000000000000E+000        
  0.000000000000000E+000  0.000000000000000E+000                                
  0.238400000000000       2.381000000000000E-003  0.378765000000000             
  0.000000000000000E+000   1.00000000000000       0.000000000000000E+000        
  0.000000000000000E+000  0.000000000000000E+000                                
   7.84500000000000       0.000000000000000E+000  0.000000000000000E+000        
  0.000000000000000E+000  0.000000000000000E+000   1.00000000000000             
  0.000000000000000E+000  0.000000000000000E+000                                
   21.0320000000000       0.000000000000000E+000  0.000000000000000E+000        
  0.000000000000000E+000  0.000000000000000E+000  0.000000000000000E+000        
   1.00000000000000       0.000000000000000E+000                                
  7.376000000000001E-002  0.000000000000000E+000  0.000000000000000E+000        
  0.000000000000000E+000  0.000000000000000E+000  0.000000000000000E+000        
  0.000000000000000E+000   1.00000000000000                                     
    8    6                                                                      
   34.4600000000000       1.592800000000000E-002  0.000000000000000E+000        
  0.000000000000000E+000  0.000000000000000E+000  0.000000000000000E+000        
  0.000000000000000E+000                                                        
   7.74900000000000       9.974000000000000E-002  0.000000000000000E+000        
  0.000000000000000E+000  0.000000000000000E+000  0.000000000000000E+000        
  0.000000000000000E+000                                                        
   2.28000000000000       0.310492000000000       0.000000000000000E+000        
  0.000000000000000E+000  0.000000000000000E+000  0.000000000000000E+000        
  0.000000000000000E+000                                                        
  0.715600000000000       0.491026000000000        1.00000000000000             
  0.000000000000000E+000  0.000000000000000E+000  0.000000000000000E+000        
  0.000000000000000E+000                                                        
  0.214000000000000       0.336337000000000       0.000000000000000E+000        
   1.00000000000000       0.000000000000000E+000  0.000000000000000E+000        
  0.000000000000000E+000                                                        
   15.1590000000000       0.000000000000000E+000  0.000000000000000E+000        
  0.000000000000000E+000   1.00000000000000       0.000000000000000E+000        
  0.000000000000000E+000                                                        
   57.4370000000000       0.000000000000000E+000  0.000000000000000E+000        
  0.000000000000000E+000  0.000000000000000E+000   1.00000000000000             
  0.000000000000000E+000                                                        
  5.974000000000000E-002  0.000000000000000E+000  0.000000000000000E+000        
  0.000000000000000E+000  0.000000000000000E+000  0.000000000000000E+000        
   1.00000000000000                                                             
    4    4                                                                      
   2.31400000000000        1.00000000000000       0.000000000000000E+000        
  0.000000000000000E+000  0.000000000000000E+000                                
  0.645000000000000       0.000000000000000E+000   1.00000000000000             
  0.000000000000000E+000  0.000000000000000E+000                                
   15.8580000000000       0.000000000000000E+000  0.000000000000000E+000        
   1.00000000000000       0.000000000000000E+000                                
  0.214000000000000       0.000000000000000E+000  0.000000000000000E+000        
  0.000000000000000E+000   1.00000000000000                                     
    2    2                                                                      
   1.42800000000000        1.00000000000000       0.000000000000000E+000        
  0.500000000000000       0.000000000000000E+000   1.00000000000000             
FINISH                                                                          
 
********************************************************************************
OMP: Info #274: omp_set_nested routine deprecated, please use omp_set_max_active_levels instead.
 ONE- AND TWO-ELECTRON INTEGRALS OVER SYMMETRY-ADAPTED AOS ARE CALCULATED.

  SPHERICAL HARMONICS ARE USED.
  
  INTEGRALS LESS THAN  0.10E-13 ARE NEGLECTED.

  NUCLEAR REPULSION ENERGY :    0.0000000000 A.U.
  @MOLECU-I, ONE ELECTRON INTEGRALS (CPU/WALL):        0.02/       0.02 SECONDS.
  @TWOEL-I,       7264 INTEGRALS OF SYMMETRY TYPE  I I I I
  @TWOEL-I,      48325 INTEGRALS OF SYMMETRY TYPE  I J I J
  @TWOEL-I,      30317 INTEGRALS OF SYMMETRY TYPE  I I J J
  @TWOEL-I,      80992 INTEGRALS OF SYMMETRY TYPE  I J K L
  @TWOEL-I, TOTAL NUMBER OF 2-E INTEGRALS     166898.
  @MOLECU-I, TWO ELECTRON INTEGRALS (CPU/WALL):        0.21/       1.22 SECONDS.
 @CHECKOUT-I, Total execution time (CPU/WALL):        0.24/       1.83 seconds.

OMP_NUM_THREADS not specified; defaulting to 1
Running with 1 threads/proc

--executable xvmol finished with status     0 in        1.87 seconds (walltime).
 --invoking executable--
/cvmfs/restricted.computecanada.ca/easybuild/software/2020/avx2/Compiler/intel2020/cfour/2.1/bin/xvmol2ja
 @GETMEM-I,  Allocated   19073 MB of main memory.
 @CHECKOUT-I, Total execution time (CPU/WALL):        0.03/       0.02 seconds.
--executable xvmol2ja finished with status     0 in        0.06 seconds (walltime).
 --invoking executable--
/cvmfs/restricted.computecanada.ca/easybuild/software/2020/avx2/Compiler/intel2020/cfour/2.1/bin/xvscf
  There are   59 functions in the AO basis.

  There are 8 irreducible representations.

       Irrep        # of functions
         1                 15
         2                 10
         3                 10
         4                  4
         5                 10
         6                  4
         7                  4
         8                  2


  Parameters for SCF calculation: 
        SCF reference function: ROHF  
  Maximum number of iterations: 9999
     Full symmetry point group: I h 
     Computational point group: D2h 
        Initial density matrix: MOREAD                 
     SCF convergence tolerance: 10**(-10)
  DIIS convergence acceleration:  ON
          Latest start for DIIS:   5
                     DIIS order:   6

     Alpha population by irrep:   2    1    1    0    1    0    0    0
      Beta population by irrep:   2    0    0    0    0    0    0    0


  Memory information:     195604 words required.
  Fock matrices are constructed from AO integral file.
 @GETMEM-I,  Allocated       1 MB of main memory.
  Initialization and symmetry analysis required      0.004 seconds.

 total no. of electrons in initial guess :  0.000000000000000E+000
 total no. of electrons in initial guess :  0.000000000000000E+000
  --------------------------------------------------------------------
  Iteration         Total Energy            Largest Density Difference
  --------------------------------------------------------------------
       0             0.000000000000000              0.0000000000D+00
   current occupation vector 
     2  1  1  0  1  0  0  0
     2  0  0  0  0  0  0  0
       1           -69.410901733447687              0.5407590638D+01
   current occupation vector 
     2  1  1  0  1  0  0  0
     2  0  0  0  0  0  0  0
       2           -71.404683930525138              0.5310589465D+01
   current occupation vector 
     2  1  1  0  1  0  0  0
     2  0  0  0  0  0  0  0
       3           -74.146258377959924              0.1900621017D+01
   current occupation vector 
     2  1  1  0  1  0  0  0
     2  0  0  0  0  0  0  0
       4           -74.343666455524996              0.8683145268D+00
   current occupation vector 
     2  1  1  0  1  0  0  0
     2  0  0  0  0  0  0  0
       5           -74.366203433215759              0.1543418132D+00
   current occupation vector 
     2  1  1  0  1  0  0  0
     2  0  0  0  0  0  0  0
       6           -74.366365641206016              0.1609662732D-01
   current occupation vector 
     2  1  1  0  1  0  0  0
     2  0  0  0  0  0  0  0
       7           -74.366433386677230              0.5349318454D-02
   current occupation vector 
     2  1  1  0  1  0  0  0
     2  0  0  0  0  0  0  0
       8           -74.366434819781020              0.1405410050D-02
   current occupation vector 
     2  1  1  0  1  0  0  0
     2  0  0  0  0  0  0  0
       9           -74.366435028719522              0.3867445145D-03
   current occupation vector 
     2  1  1  0  1  0  0  0
     2  0  0  0  0  0  0  0
      10           -74.366435028731729              0.4615808657D-05
   current occupation vector 
     2  1  1  0  1  0  0  0
     2  0  0  0  0  0  0  0
      11           -74.366435028731885              0.9093729658D-07
   current occupation vector 
     2  1  1  0  1  0  0  0
     2  0  0  0  0  0  0  0
      12           -74.366435028731715              0.1789133444D-07
   current occupation vector 
     2  1  1  0  1  0  0  0
     2  0  0  0  0  0  0  0
      13           -74.366435028731971              0.7364340249D-09
   current occupation vector 
     2  1  1  0  1  0  0  0
     2  0  0  0  0  0  0  0

  SCF has converged.

 Density matrix saved to file den.dat
 total alpha spin electron number:   5.00000000000001     
 total  beta spin electron number:   2.00000000000000     
     E(ROHF)=       -74.366435028731914              0.1504107949D-10

  Eigenvector printing suppressed.


       The average multiplicity is    4.0000000
  The expectation value of S**2 is    3.7500000

 @PUTMOS-I, Writing converged MOs to NEWMOS. 
 @PUTMOS-I, Symmetry   1 Full Blocks  3 Partial Blocksize   3
 @PUTMOS-I, Symmetry   2 Full Blocks  2 Partial Blocksize   2
 @PUTMOS-I, Symmetry   3 Full Blocks  2 Partial Blocksize   2
 @PUTMOS-I, Symmetry   4 Full Blocks  1 Partial Blocksize   0
 @PUTMOS-I, Symmetry   5 Full Blocks  2 Partial Blocksize   2
 @PUTMOS-I, Symmetry   6 Full Blocks  1 Partial Blocksize   0
 @PUTMOS-I, Symmetry   7 Full Blocks  1 Partial Blocksize   0
 @PUTMOS-I, Symmetry   8 Full Blocks  0 Partial Blocksize   2
 @PUTFOCK-I, Writing converged Fock matrix to NEWFOCK. 
 @PUTFOCK-I, Symmetry   1 Full Blocks  3 Partial Blocksize   3
 @PUTFOCK-I, Symmetry   2 Full Blocks  2 Partial Blocksize   2
 @PUTFOCK-I, Symmetry   3 Full Blocks  2 Partial Blocksize   2
 @PUTFOCK-I, Symmetry   4 Full Blocks  1 Partial Blocksize   0
 @PUTFOCK-I, Symmetry   5 Full Blocks  2 Partial Blocksize   2
 @PUTFOCK-I, Symmetry   6 Full Blocks  1 Partial Blocksize   0
 @PUTFOCK-I, Symmetry   7 Full Blocks  1 Partial Blocksize   0
 @PUTFOCK-I, Symmetry   8 Full Blocks  0 Partial Blocksize   2
  @DMPJOB-I, Rotating orbitals to semicanonical basis.
             *** Eigenvalues correspond to new basis. ***



 
  ORBITAL EIGENVALUES (ALPHA)  (1H = 27.2113834 eV)

       MO #        E(hartree)               E(eV)           FULLSYM    COMPSYM
       ----   --------------------   --------------------   -------   ---------
    1     1         -21.4126759016        -582.6685335794      Ag        Ag (1)
    2     2          -2.0592081388         -56.0339021662      Ag        Ag (1)
    3    16          -1.3261434519         -36.0861979124     T1u       B2u (2)
    4    26          -1.3261434519         -36.0861979124     T1u       B3u (3)
    5    40          -1.3261434519         -36.0861979124     T1u       B1u (5)
  +++++++++++++++++++++++++++++++++++++++++++++++++++++++++++++++++++++++++++++
    6     3          -0.1279857866          -3.4826703090      Ag        Ag (1)
    7    27          -0.0775060926          -2.1090480011     T1u       B3u (3)
    8    17          -0.0775060926          -2.1090480011     T1u       B2u (2)
    9    41          -0.0775060926          -2.1090480011     T1u       B1u (5)
   10     4           0.2831187613           7.7040531605      Hg        Ag (1)
   11    54           0.2831187613           7.7040531605      Hg       B2g (7)
   12    50           0.2831187613           7.7040531605      Hg       B3g (6)
   13    36           0.2831187613           7.7040531605      Hg       B1g (4)
   14     5           0.2831187613           7.7040531605      Hg        Ag (1)
   15    28           0.4668298957          12.7030872757     T1u       B3u (3)
   16    18           0.4668298957          12.7030872757     T1u       B2u (2)
   17    42           0.4668298957          12.7030872757     T1u       B1u (5)
   18     6           0.6462194317          17.5845247159      Ag        Ag (1)
   19     7           1.5580458354          42.3965825829      Hg        Ag (1)
   20     8           1.5580458354          42.3965825829      Hg        Ag (1)
   21    37           1.5580458354          42.3965825829      Hg       B1g (4)
   22    55           1.5580458354          42.3965825829      Hg       B2g (7)
   23    51           1.5580458354          42.3965825829      Hg       B3g (6)
   24    43           1.5811954389          43.0265153172       u       B1u (5)
   25    19           1.5811954389          43.0265153172       u       B2u (2)
   26    44           1.5811954389          43.0265153172       u       B1u (5)
   27    58           1.5811954389          43.0265153172       u        Au (8)
   28    29           1.5811954389          43.0265153172       u       B3u (3)
   29    20           1.5811954389          43.0265153172       u       B2u (2)
   30    30           1.5811954389          43.0265153172       u       B3u (3)
   31    45           3.3441612943          90.9992551313     T1u       B1u (5)
   32    31           3.3441612943          90.9992551313     T1u       B3u (3)
   33    21           3.3441612943          90.9992551313     T1u       B2u (2)
   34     9           4.4994675895         122.4367376729      Ag        Ag (1)
   35    22           5.7912422535         157.5877133231       u       B2u (2)
   36    32           5.7912422535         157.5877133231       u       B3u (3)
   37    23           5.7912422535         157.5877133231       u       B2u (2)
   38    33           5.7912422535         157.5877133231       u       B3u (3)
   39    59           5.7912422535         157.5877133231       u        Au (8)
   40    46           5.7912422535         157.5877133231       u       B1u (5)
   41    47           5.7912422535         157.5877133231       u       B1u (5)
   42    10           6.2250137501         169.3912358230      Hg        Ag (1)
   43    11           6.2250137501         169.3912358230      Hg        Ag (1)
   44    56           6.2250137501         169.3912358230      Hg       B2g (7)
   45    38           6.2250137501         169.3912358230      Hg       B1g (4)
   46    52           6.2250137501         169.3912358230      Hg       B3g (6)
   47    34          25.2099204628         685.9968111958     T1u       B3u (3)
   48    48          25.2099204628         685.9968111958     T1u       B1u (5)
   49    24          25.2099204628         685.9968111958     T1u       B2u (2)
   50    12          27.2793540285         742.3089613728      Ag        Ag (1)
   51    13          43.0978375819        1172.7517821512      Hg        Ag (1)
   52    57          43.0978375819        1172.7517821512      Hg       B2g (7)
   53    53          43.0978375819        1172.7517821512      Hg       B3g (6)
   54    39          43.0978375819        1172.7517821512      Hg       B1g (4)
   55    14          43.0978375819        1172.7517821512      Hg        Ag (1)
   56    25         137.4440314290        3740.0422352550     T1u       B2u (2)
   57    35         137.4440314290        3740.0422352550     T1u       B3u (3)
   58    49         137.4440314290        3740.0422352550     T1u       B1u (5)
   59    15         147.5819395742        4015.9087406681      Ag        Ag (1)


 
  ORBITAL EIGENVALUES ( BETA)  (1H = 27.2113834 eV)

       MO #        E(hartree)               E(eV)           FULLSYM    COMPSYM
       ----   --------------------   --------------------   -------   ---------
    1     1         -21.2827578249        -579.1332829833      Ag        Ag (1)
    2     2          -1.5436168361         -42.0039495496      Ag        Ag (1)
  +++++++++++++++++++++++++++++++++++++++++++++++++++++++++++++++++++++++++++++
    3    26          -0.3834232301         -10.4334765192     T1u       B3u (3)
    4    16          -0.3834232301         -10.4334765192     T1u       B2u (2)
    5    40          -0.3834232301         -10.4334765192     T1u       B1u (5)
    6     3          -0.1102145187          -2.9990895253      Ag        Ag (1)
    7    27          -0.0475523844          -1.2939661647     T1u       B3u (3)
    8    41          -0.0475523844          -1.2939661647     T1u       B1u (5)
    9    17          -0.0475523844          -1.2939661647     T1u       B2u (2)
   10     4           0.3157349830           8.5915856761      Hg        Ag (1)
   11    54           0.3157349830           8.5915856761      Hg       B2g (7)
   12     5           0.3157349830           8.5915856761      Hg        Ag (1)
   13    36           0.3157349830           8.5915856761      Hg       B1g (4)
   14    50           0.3157349830           8.5915856761      Hg       B3g (6)
   15    28           0.5965573949          16.2331519921     T1u       B3u (3)
   16    18           0.5965573949          16.2331519921     T1u       B2u (2)
   17    42           0.5965573949          16.2331519921     T1u       B1u (5)
   18     6           0.7231494362          19.6778965637      Ag        Ag (1)
   19    19           1.6148799676          43.9431179441       u       B2u (2)
   20    58           1.6148799676          43.9431179441       u        Au (8)
   21    29           1.6148799676          43.9431179441       u       B3u (3)
   22    43           1.6148799676          43.9431179441       u       B1u (5)
   23    44           1.6148799676          43.9431179441       u       B1u (5)
   24    30           1.6148799676          43.9431179441       u       B3u (3)
   25    20           1.6148799676          43.9431179441       u       B2u (2)
   26     7           1.7150364530          46.6685144681      Hg        Ag (1)
   27     8           1.7150364530          46.6685144681      Hg        Ag (1)
   28    37           1.7150364530          46.6685144681      Hg       B1g (4)
   29    55           1.7150364530          46.6685144681      Hg       B2g (7)
   30    51           1.7150364530          46.6685144681      Hg       B3g (6)
   31    31           3.5474096870          96.5299250700     T1u       B3u (3)
   32    45           3.5474096870          96.5299250700     T1u       B1u (5)
   33    21           3.5474096870          96.5299250700     T1u       B2u (2)
   34     9           4.6413285868         126.2969716621      Ag        Ag (1)
   35    22           5.9075473235         160.7525351722       u       B2u (2)
   36    32           5.9075473235         160.7525351722       u       B3u (3)
   37    23           5.9075473235         160.7525351722       u       B2u (2)
   38    33           5.9075473235         160.7525351722       u       B3u (3)
   39    46           5.9075473235         160.7525351722       u       B1u (5)
   40    59           5.9075473235         160.7525351722       u        Au (8)
   41    47           5.9075473235         160.7525351722       u       B1u (5)
   42    10           6.4438064432         175.3448876814      Hg        Ag (1)
   43    11           6.4438064432         175.3448876814      Hg        Ag (1)
   44    56           6.4438064432         175.3448876814      Hg       B2g (7)
   45    38           6.4438064432         175.3448876814      Hg       B1g (4)
   46    52           6.4438064432         175.3448876814      Hg       B3g (6)
   47    34          25.3142755240         688.8364567762     T1u       B3u (3)
   48    24          25.3142755240         688.8364567762     T1u       B2u (2)
   49    48          25.3142755240         688.8364567762     T1u       B1u (5)
   50    12          27.3645690747         744.6277806687      Ag        Ag (1)
   51    13          43.1938051766        1175.3631931664      Hg        Ag (1)
   52    39          43.1938051766        1175.3631931664      Hg       B1g (4)
   53    53          43.1938051766        1175.3631931664      Hg       B3g (6)
   54    57          43.1938051766        1175.3631931664      Hg       B2g (7)
   55    14          43.1938051766        1175.3631931664      Hg        Ag (1)
   56    35         137.4682410869        3740.7010135390     T1u       B2u (3)
   57    25         137.4682410869        3740.7010135390     T1u       B3u (2)
   58    49         137.4682410869        3740.7010135390     T1u       B1u (5)
   59    15         147.6045090887        4016.5228883801      Ag        Ag (1)


  VSCF finished.

 @CHECKOUT-I, Total execution time (CPU/WALL):        1.44/       0.85 seconds.
--executable xvscf finished with status     0 in        0.89 seconds (walltime).
 --invoking executable--
/cvmfs/restricted.computecanada.ca/easybuild/software/2020/avx2/Compiler/intel2020/cfour/2.1/bin/xvtran
 @GETMEM-I,  Allocated   19073 MB of main memory.
  Full UHF integral transformation
  Transformation of IIII integrals :
  2 passes through the AO integral file were required.
        7264 AO integrals were read.
       12051 MO integrals (Spin case AAAA) were written to HF2AA.
       12051 MO integrals (Spin case BBBB) were written to HF2BB.
       23784 MO integrals (Spin case AABB) were written to HF2AB.
  Transformation of IIJJ integrals :
  2 passes through the AO integral file were required.
       30317 AO integrals were read.
       38670 MO integrals (Spin case AAAA) were written to HF2AA.
       38670 MO integrals (Spin case BBBB) were written to HF2BB.
       77340 MO integrals (Spin case AABB) were written to HF2AB.
  Transformation of IJIJ integrals :
  2 passes through the AO integral file were required.
       48325 AO integrals were read.
       63606 MO integrals (Spin case AAAA) were written to HF2AA.
       63606 MO integrals (Spin case BBBB) were written to HF2BB.
      125760 MO integrals (Spin case AABB) were written to HF2AB.
  Transformation of IJKL integrals :
  2 passes through the AO integral file were required.
       80992 AO integrals were read.
       90960 MO integrals (Spin case AAAA) were written to HF2AA.
       90960 MO integrals (Spin case BBBB) were written to HF2BB.
      181920 MO integrals (Spin case AABB) were written to HF2AB.
  Summary of active molecular orbitals: 
------------------------------------------------------------------------
                         * Spin case alpha *
 
  Index      Eigenvalue    Symmetry    Index      Eigenvalue    Symmetry
------------------------------------------------------------------------
     1       -21.4126759        1        31         1.5811954        3
     2        -2.0592081        1        32         3.3441613        3
     3        -1.3261435        2        33         5.7912423        3
     4        -1.3261435        3        34         5.7912423        3
     5        -1.3261435        5        35        25.2099205        3
     6        -0.1279858        1        36       137.4440314        3
     7         0.2831188        1        37         0.2831188        4
     8         0.2831188        1        38         1.5580458        4
     9         0.6462194        1        39         6.2250138        4
    10         1.5580458        1        40        43.0978376        4
    11         1.5580458        1        41        -0.0775061        5
    12         4.4994676        1        42         0.4668299        5
    13         6.2250138        1        43         1.5811954        5
    14         6.2250138        1        44         1.5811954        5
    15        27.2793540        1        45         3.3441613        5
    16        43.0978376        1        46         5.7912423        5
    17        43.0978376        1        47         5.7912423        5
    18       147.5819396        1        48        25.2099205        5
    19        -0.0775061        2        49       137.4440314        5
    20         0.4668299        2        50         0.2831188        6
    21         1.5811954        2        51         1.5580458        6
    22         1.5811954        2        52         6.2250138        6
    23         3.3441613        2        53        43.0978376        6
    24         5.7912423        2        54         0.2831188        7
    25         5.7912423        2        55         1.5580458        7
    26        25.2099205        2        56         6.2250138        7
    27       137.4440314        2        57        43.0978376        7
    28        -0.0775061        3        58         1.5811954        8
    29         0.4668299        3        59         5.7912423        8
    30         1.5811954        3
------------------------------------------------------------------------
------------------------------------------------------------------------
                         * Spin case beta *
 
  Index      Eigenvalue    Symmetry    Index      Eigenvalue    Symmetry
------------------------------------------------------------------------
     1       -21.2827578        1        31         3.5474097        3
     2        -1.5436168        1        32         5.9075473        3
     3        -0.1102145        1        33         5.9075473        3
     4         0.3157350        1        34        25.3142755        3
     5         0.3157350        1        35       137.4682411        3
     6         0.7231494        1        36         0.3157350        4
     7         1.7150365        1        37         1.7150365        4
     8         1.7150365        1        38         6.4438064        4
     9         4.6413286        1        39        43.1938052        4
    10         6.4438064        1        40        -0.3834232        5
    11         6.4438064        1        41        -0.0475524        5
    12        27.3645691        1        42         0.5965574        5
    13        43.1938052        1        43         1.6148800        5
    14        43.1938052        1        44         1.6148800        5
    15       147.6045091        1        45         3.5474097        5
    16        -0.3834232        2        46         5.9075473        5
    17        -0.0475524        2        47         5.9075473        5
    18         0.5965574        2        48        25.3142755        5
    19         1.6148800        2        49       137.4682411        5
    20         1.6148800        2        50         0.3157350        6
    21         3.5474097        2        51         1.7150365        6
    22         5.9075473        2        52         6.4438064        6
    23         5.9075473        2        53        43.1938052        6
    24        25.3142755        2        54         0.3157350        7
    25       137.4682411        2        55         1.7150365        7
    26        -0.3834232        3        56         6.4438064        7
    27        -0.0475524        3        57        43.1938052        7
    28         0.5965574        3        58         1.6148800        8
    29         1.6148800        3        59         5.9075473        8
    30         1.6148800        3
------------------------------------------------------------------------
  -21.4126759016375       -2.05920813883195       -1.32614345187511     
  -1.32614345187510       -1.32614345187510      -0.127985786601362     
  0.283118761262890       0.283118761262894       0.646219431677444     
   1.55804583543906        1.55804583543906        4.49946758946963     
   6.22501375005578        6.22501375005579        27.2793540284609     
   43.0978375818696        43.0978375818698        147.581939574162     
 -7.750609258373214E-002  0.466829895746553        1.58119543886231     
   1.58119543886232        3.34416129432299        5.79124225353115     
   5.79124225353117        25.2099204627634        137.444031428957     
 -7.750609258373398E-002  0.466829895746552        1.58119543886232     
   1.58119543886232        3.34416129432298        5.79124225353116     
   5.79124225353117        25.2099204627634        137.444031428957     
  0.283118761262893        1.55804583543906        6.22501375005581     
   43.0978375818696      -7.750609258373203E-002  0.466829895746555     
   1.58119543886231        1.58119543886231        3.34416129432295     
   5.79124225353118        5.79124225353118        25.2099204627634     
   137.444031428957       0.283118761262892        1.55804583543907     
   6.22501375005582        43.0978375818696       0.283118761262892     
   1.55804583543906        6.22501375005580        43.0978375818696     
   1.58119543886231        5.79124225353118     
  -21.2827578249216       -1.54361683609359      -0.110214518726534     
  0.315734983031680       0.315734983031683       0.723149436189814     
   1.71503645301827        1.71503645301827        4.64132858684776     
   6.44380644320187        6.44380644320190        27.3645690747468     
   43.1938051766378        43.1938051766380        147.604509088653     
 -0.383423230118963      -4.755238444544454E-002  0.596557394878428     
   1.61487996762829        1.61487996762829        3.54740968700700     
   5.90754732345700        5.90754732345701        25.3142755239771     
   137.468241086889      -0.383423230118964      -4.755238444545019E-002
  0.596557394878425        1.61487996762829        1.61487996762829     
   3.54740968700697        5.90754732345701        5.90754732345702     
   25.3142755239771        137.468241086889       0.315734983031683     
   1.71503645301828        6.44380644320192        43.1938051766379     
 -0.383423230118958      -4.755238444544498E-002  0.596557394878432     
   1.61487996762829        1.61487996762829        3.54740968700699     
   5.90754732345702        5.90754732345703        25.3142755239771     
   137.468241086889       0.315734983031684        1.71503645301828     
   6.44380644320192        43.1938051766379       0.315734983031683     
   1.71503645301828        6.44380644320191        43.1938051766379     
   1.61487996762829        5.90754732345702     
 @CHECKOUT-I, Total execution time (CPU/WALL):        1.04/      36.01 seconds.
--executable xvtran finished with status     0 in       36.04 seconds (walltime).
 --invoking executable--
/cvmfs/restricted.computecanada.ca/easybuild/software/2020/avx2/Compiler/intel2020/cfour/2.1/bin/xintprc
 @GETMEM-I,  Allocated   19073 MB of main memory.
  @GMOIAA-I, Processing MO integrals for spin case AA.
  @GMOIAA-I, Generation of integral list completed.
                      TYPE                NUMBER
                      ----               --------
                      PPPP                143308
                      PPPH                 52948
                      PPHH                  5125
                      PHPH                  3237
                      PHHH                   636
                      HHHH                    33

                     TOTAL                205287
  @GMOIAA-I, Processing MO integrals for spin case BB.
  @GMOIAA-I, Generation of integral list completed.
                      TYPE                NUMBER
                      ----               --------
                      PPPP                177547
                      PPPH                 25690
                      PPHH                  1099
                      PHPH                   867
                      PHHH                    78
                      HHHH                     6

                     TOTAL                205287
  @GMOIAB-I, Processing MO integrals for spin case AB.
                      TYPE                NUMBER
                      ----               --------
                      PPPP                317441
                      PPPH1H               58951
                      PPPH2H               23098
                      PPHH                  4454
                      PHPH1P                 777
                      PHPH2P                3606
                      PHHH1P                 159
                      PHHH2P                 300
                      HHHH                    18

                     TOTAL                408804

  @FORMT2-I, Second-order MP correlation energies:
  @FORMT2-I, Singles contribution will be calculated.
            ------------------------------------------------
            E(SCF)                  =    -74.366435028732 a.u.
            E2(AA)                  =     -0.035123567695 a.u.
            E2(BB)                  =     -0.000989733434 a.u.
            E2(AB)                  =     -0.118156865643 a.u.
            E2(SINGLE)              =     -0.003190177571 a.u.
            E2(TOT)                 =     -0.154270166773 a.u.
            Total MP2 energy        =    -74.523895373075 a.u.
            ------------------------------------------------
            ----------------------------------------------
                     Projected spin multiplicities: 
            ----------------------------------------------
             <0|S^2|0>                  =    3.7500000000.
             <0|S^2 T2|0>               =    0.0000000000.
             Projected <0|S^2 exp(T)|0> =    3.7500000000.
             Approximate spin mult.     =    4.0000000000.
            ----------------------------------------------
   Largest T2 amplitudes for spin case AA:
   i   j   a   b             i   j   a   b             i   j   a   b
-----------------------------------------------------------------------------
[  5   4  55  10] 0.01385 [  5   3  51  11] 0.01350 [  5   4  42  29]-0.01347
[  5   3  42  20]-0.01347 [  4   3  29  20]-0.01347 [  4   3  38  11] 0.01048
[  5   3  45  23]-0.00960 [  4   3  32  23]-0.00960 [  5   4  45  32]-0.00960
[  4   3  38  10]-0.00954 [  5   4  42  32]-0.00877 [  4   3  32  20]-0.00877
[  5   3  42  23]-0.00877 [  4   3  29  23]-0.00877 [  5   4  45  29]-0.00877
-----------------------------------------------------------------------------
   Norm of T2AA vector (     1888 symmetry allowed elements):  0.0681497894.
-----------------------------------------------------------------------------
   Largest T2 amplitudes for spin case BB:
   i   j   a   b             i   j   a   b             i   j   a   b
-----------------------------------------------------------------------------
[  2   1  34  26]-0.00137 [  2   1  24  16]-0.00137 [  2   1  48  40]-0.00137
[  2   1  31  26] 0.00134 [  2   1  45  40] 0.00134 [  2   1  21  16] 0.00134
[  2   1  24  21]-0.00118 [  2   1  48  45]-0.00118 [  2   1  34  31]-0.00118
[  2   1  34  28]-0.00100 [  2   1  24  18]-0.00100 [  2   1  48  42]-0.00100
[  2   1  31  28] 0.00073 [  2   1  45  42] 0.00073 [  2   1  21  18] 0.00073
-----------------------------------------------------------------------------
   Norm of T2BB vector (      232 symmetry allowed elements):  0.0047833742.
-----------------------------------------------------------------------------
   Largest T2 amplitudes for spin case AB:
       _       _                 _       _                 _       _
   i   j   a   b             i   j   a   b             i   j   a   b
-----------------------------------------------------------------------------
[  3   2  11  16] 0.02394 [  4   2  10  26] 0.02335 [  5   2  51  16]-0.02122
[  5   2  55  26]-0.02122 [  4   2  38  16]-0.02122 [  4   2  55  40]-0.02122
[  3   2  51  40]-0.02122 [  3   2  38  26]-0.02122 [  5   2  10  40]-0.01812
[  5   2  11  40]-0.01650 [  5   2   8  40]-0.01517 [  5   2  42   6]-0.01448
[  4   2  29   6]-0.01448 [  3   2  20   6]-0.01448 [  4   2   7  26]-0.01340
-----------------------------------------------------------------------------
   Norm of T2AB vector (     4454 symmetry allowed elements):  0.1176717122.
-----------------------------------------------------------------------------
 @CHECKOUT-I, Total execution time (CPU/WALL):        0.91/     124.42 seconds.
--executable xintprc finished with status     0 in      124.45 seconds (walltime).
  calling xvcc 
 --invoking executable--
/cvmfs/restricted.computecanada.ca/easybuild/software/2020/avx2/Compiler/intel2020/cfour/2.1/bin/xvcc
 @GETMEM-I,  Allocated   19073 MB of main memory.
   CCSD(T) energy will be calculated.
   The reference state is a ROHF wave function.
   The total correlation energy is -0.157513429714 a.u.
   The total correlation energy is -0.170523170362 a.u.
  Convergence information after     1 iterations: 
  Largest element of residual vector :  0.44550168E-02.
  Largest element of DIIS residual   :  0.44550168E-02.
   The total correlation energy is -0.172632548843 a.u.
  Convergence information after     2 iterations: 
  Largest element of residual vector : -0.11303168E-02.
  Largest element of DIIS residual   : -0.67037391E-03.
   The total correlation energy is -0.173265543739 a.u.
  Convergence information after     3 iterations: 
  Largest element of residual vector :  0.33111802E-03.
  Largest element of DIIS residual   :  0.31719001E-03.
   The total correlation energy is -0.173335566242 a.u.
  Convergence information after     4 iterations: 
  Largest element of residual vector :  0.12374772E-03.
  Largest element of DIIS residual   :  0.63154260E-04.
   The total correlation energy is -0.173338052474 a.u.
  Convergence information after     5 iterations: 
  Largest element of residual vector :  0.30299781E-04.
  Largest element of DIIS residual   :  0.98500779E-05.
   The total correlation energy is -0.173337584038 a.u.
  Convergence information after     6 iterations: 
  Largest element of residual vector :  0.59350447E-05.
  Largest element of DIIS residual   :  0.55079940E-05.
   The total correlation energy is -0.173337810016 a.u.
  Convergence information after     7 iterations: 
  Largest element of residual vector :  0.92825696E-06.
  Largest element of DIIS residual   :  0.34253475E-06.
   The total correlation energy is -0.173337831689 a.u.
  Convergence information after     8 iterations: 
  Largest element of residual vector :  0.10351829E-06.
  Largest element of DIIS residual   :  0.54451119E-07.
   The total correlation energy is -0.173337818685 a.u.
  Convergence information after     9 iterations: 
  Largest element of residual vector :  0.21785490E-07.
  Largest element of DIIS residual   :  0.16408626E-07.
   The total correlation energy is -0.173337814285 a.u.
  Convergence information after    10 iterations: 
  Largest element of residual vector :  0.77771618E-08.
  Largest element of DIIS residual   :  0.63165392E-08.
   The total correlation energy is -0.173337813382 a.u.
  Convergence information after    11 iterations: 
  Largest element of residual vector :  0.25539461E-08.
  Largest element of DIIS residual   : -0.12860460E-08.
   The total correlation energy is -0.173337813212 a.u.
  Convergence information after    12 iterations: 
  Largest element of residual vector : -0.64600560E-09.
  Largest element of DIIS residual   : -0.28109972E-09.
   The total correlation energy is -0.173337813219 a.u.
  Convergence information after    13 iterations: 
  Largest element of residual vector : -0.15891053E-09.
  Largest element of DIIS residual   : -0.98590078E-10.
   The total correlation energy is -0.173337813214 a.u.
  Convergence information after    14 iterations: 
  Largest element of residual vector : -0.46713435E-10.
  Largest element of DIIS residual   : -0.17944729E-10.
  Amplitude equations converged in    14iterations.
   The total correlation energy is -0.173337813211 a.u.
   The CC iterations have converged.

            ----------------------------------------------
                     Projected spin multiplicities: 
            ----------------------------------------------
             <0|S^2|0>                  =    3.7500000000.
             <0|S^2 (T2+T1**2) |0>      =    0.0000000000.
             <0|S^2 T1|0>               =    0.0000000000.
             Projected <0|S^2 exp(T)|0> =    3.7500000000.
             Approximate spin mult.     =    4.0000000000.
            ----------------------------------------------
   Largest T1 amplitudes for spin case AA:
   i       a                 i       a                 i       a    
-----------------------------------------------------------------------------
[  2       9    ] 0.02025 [  2       6    ]-0.01552 [  2      12    ]-0.00567
[  5      45    ] 0.00250 [  4      32    ] 0.00250 [  3      23    ] 0.00250
[  1      12    ]-0.00182 [  1       9    ] 0.00137 [  4      28    ]-0.00076
[  3      19    ]-0.00076 [  5      41    ]-0.00076 [  5      42    ] 0.00072
[  3      20    ] 0.00072 [  4      29    ] 0.00072 [  1      15    ] 0.00066
-----------------------------------------------------------------------------
   Norm of T1AA vector (       53 symmetry allowed elements):  0.0266691515.
-----------------------------------------------------------------------------
   Largest T2 amplitudes for spin case AA:
   i   j   a   b             i   j   a   b             i   j   a   b
-----------------------------------------------------------------------------
[  5   4  42  29]-0.01537 [  4   3  29  20]-0.01537 [  5   3  42  20]-0.01537
[  5   4  55  10] 0.01408 [  5   3  51  11] 0.01373 [  4   3  38  11] 0.01066
[  5   3  45  23]-0.01044 [  5   4  45  32]-0.01044 [  4   3  32  23]-0.01044
[  5   4  42  32]-0.00999 [  5   3  42  23]-0.00999 [  4   3  32  20]-0.00999
[  5   4  45  29]-0.00999 [  4   3  29  23]-0.00999 [  5   3  45  20]-0.00999
-----------------------------------------------------------------------------
   Norm of T2AA vector (     1888 symmetry allowed elements):  0.0733857223.
-----------------------------------------------------------------------------
   Largest T1 amplitudes for spin case BB:
   i       a                 i       a                 i       a    
-----------------------------------------------------------------------------
[  2       6    ]-0.02310 [  2       3    ] 0.02123 [  2       9    ] 0.00244
[  1       9    ] 0.00120 [  1       6    ]-0.00089 [  2      12    ] 0.00066
[  1      12    ]-0.00051 [  1       3    ] 0.00040 [  1      15    ] 0.00005
[  2      15    ]-0.00002 [  2      11    ] 0.00000 [  2      13    ] 0.00000
[  2      14    ] 0.00000 [  1      14    ]-0.00000 [  2      10    ] 0.00000
-----------------------------------------------------------------------------
   Norm of T1BB vector (       26 symmetry allowed elements):  0.0315197713.
-----------------------------------------------------------------------------
   Largest T2 amplitudes for spin case BB:
   i   j   a   b             i   j   a   b             i   j   a   b
-----------------------------------------------------------------------------
[  2   1  34  26]-0.00130 [  2   1  24  16]-0.00130 [  2   1  48  40]-0.00130
[  2   1  31  26] 0.00122 [  2   1  45  40] 0.00122 [  2   1  21  16] 0.00122
[  2   1  24  21]-0.00117 [  2   1  48  45]-0.00117 [  2   1  34  31]-0.00117
[  2   1  34  28]-0.00096 [  2   1  24  18]-0.00096 [  2   1  48  42]-0.00096
[  2   1  31  28] 0.00067 [  2   1  45  42] 0.00067 [  2   1  21  18] 0.00067
-----------------------------------------------------------------------------
   Norm of T2BB vector (      232 symmetry allowed elements):  0.0045272608.
-----------------------------------------------------------------------------
   Largest T2 amplitudes for spin case AB:
       _       _                 _       _                 _       _
   i   j   a   b             i   j   a   b             i   j   a   b
-----------------------------------------------------------------------------
[  3   2  11  16] 0.02988 [  4   2  10  26] 0.02914 [  4   2  38  16]-0.02648
[  3   2  38  26]-0.02648 [  3   2  51  40]-0.02648 [  4   2  55  40]-0.02648
[  5   2  51  16]-0.02648 [  5   2  55  26]-0.02648 [  5   2  10  40]-0.02261
[  5   2  11  40]-0.02059 [  5   2   8  40]-0.02045 [  4   2   7  26]-0.01807
[  5   2  50  16]-0.01772 [  4   2  37  16]-0.01772 [  5   2  54  26]-0.01772
-----------------------------------------------------------------------------
   Norm of T2AB vector (     4454 symmetry allowed elements):  0.1434766896.
-----------------------------------------------------------------------------
       Summary of iterative solution of CC equations 
      -----------------------------------------------------------
                       Correlation           Total
       Iteration         Energy              Energy
      -----------------------------------------------------------
            0        -0.157513429714     -74.523948458446  DIIS 
            1        -0.170523170362     -74.536958199094  DIIS 
            2        -0.172632548843     -74.539067577574  DIIS 
            3        -0.173265543739     -74.539700572471  DIIS 
            4        -0.173335566242     -74.539770594974  DIIS 
            5        -0.173338052474     -74.539773081206  DIIS 
            6        -0.173337584038     -74.539772612770  DIIS 
            7        -0.173337810016     -74.539772838748  DIIS 
            8        -0.173337831689     -74.539772860421  DIIS 
            9        -0.173337818685     -74.539772847417  DIIS 
           10        -0.173337814285     -74.539772843017  DIIS 
           11        -0.173337813382     -74.539772842114  DIIS 
           12        -0.173337813212     -74.539772841944  DIIS 
           13        -0.173337813219     -74.539772841951  DIIS 
           14        -0.173337813211     -74.539772841942  DIIS 
      -----------------------------------------------------------
      A miracle has come to pass. The CC iterations have converged.
 @TRPS2-I, E4ST A   -0.000015913446794
 @TRPS2-I, E4ST B    0.000007173579033
        E(CCSD)           =     -74.539772841942
        E(CCSD(T))        =     -74.541771428771
 @CHECKOUT-I, Total execution time (CPU/WALL):        1.17/       0.40 seconds.
--executable xvcc finished with status     0 in        0.44 seconds (walltime).
  The final electronic energy is       -74.541771428770957 a.u. 
  This computation required                          165.16 seconds (walltime).
Program finished with exit code 0 at: Tue Mar 19 11:01:34 EDT 2024

