 --invoking executable--
/home/nike/cfour_v2.00beta/cfour_v2.00beta/bin/xjoda


   *************************************************************************
         <<<     CCCCCC     CCCCCC   |||     CCCCCC     CCCCCC   >>>
       <<<      CCC        CCC       |||    CCC        CCC         >>>
      <<<      CCC        CCC        |||   CCC        CCC            >>>
    <<<        CCC        CCC        |||   CCC        CCC              >>>
      <<<      CCC        CCC        |||   CCC        CCC            >>>
       <<<      CCC        CCC       |||    CCC        CCC         >>>
         <<<     CCCCCC     CCCCCC   |||     CCCCCC     CCCCCC   >>>
   *************************************************************************

     ****************************************************************
     * CFOUR Coupled-Cluster techniques for Computational Chemistry *
     ****************************************************************
 

   Department of Chemistry                Institut fuer Physikalische Chemie
   University of Texas at Austin          Universitaet Mainz
   Austin, TX  78712, USA                 D-55099 Mainz, Germany
 
                       Version 2.00beta
 
                     blg8625.int.ets1.calculquebec.ca                  
                     So 23. Feb 12:11:35 EST 2020                      
                     integer*8 version is running
 
********************************************************************************
*                          Input from ZMAT file                                *
********************************************************************************
TITLE                                                                           
C  1.2247  0.0000 0.0000                                                        
C -1.2247  0.0000 0.0000                                                        
C  0.0000 -0.7286 0.0000                                                        
C  0.0000  0.7286 0.0000                                                        
                                                                                
*ACES2(CALC=CCSD(T)                                                             
#UNITS=BOHR                                                                     
UNITS=ANGSTROM                                                                  
#GEOM=1.329*10/5.29177210903_1985BredohlButLookAtMahmoud2015                    
COORD=CARTESIAN                                                                 
#COORD=INTERNAL                                                                 
PRINT=4                                                                         
JODA_PRINT=4                                                                    
INPUT_MRCC=OFF                                                                  
#CC_PROG=MRCC                                                                   
FROZEN_CORE=ON                                                                  
#DROPMO=1>5                                                                     
CONTRACTION=GENERAL                                                             
#CONTRACTION=SEGMENTED                                                          
RELATIVISTIC=OFF                                                                
#EXCITE=EOMEE                                                                   
#ESTATE_CONV=5                                                                  
#ESTATE_SYM=2/2/2/2/2/2/2/2                                                     
XFORM_TOL=18                                                                    
SAVE_INTS=ON                                                                    
SCF_EXPORDER=6                                                                  
SCF_EXPSTART=5                                                                  
#SCF_DAMPING=1000                                                               
SCF_EXTRAPOLATION=ON                                                            
SCF_CONV=12                                                                     
SCF_MAXCYC=99999                                                                
CC_CONV=9                                                                       
CC_MAXCYC=999                                                                   
T3_EXTRAPOL=ON                                                                  
REFERENCE=RHF                                                                   
CHARGE=+0                                                                       
MULT=1                                                                          
ABCDTYPE=STANDARD                                                               
#OCCUPATION=3-2-2-0-1-0-0-0/3-1-1-0-1-0-0-0                                     
MEM=12                                                                          
MEM_UNIT=GB                                                                     
BASIS=SPECIAL)                                                                  
                                                                                
C:def2-TZVPP                                                                    
C:def2-TZVPP                                                                    
C:def2-TZVPP                                                                    
C:def2-TZVPP                                                                    
                                                                                
********************************************************************************
  @GTFLGS-W, Keyword #UNITS not known and is ignored.
  @GTFLGS-W, Keyword #GEOM not known and is ignored.
  @GTFLGS-W, Keyword #COORD not known and is ignored.
  @GTFLGS-W, Keyword #CC_PROG not known and is ignored.
  @GTFLGS-W, Keyword #DROPMO not known and is ignored.
  @GTFLGS-W, Keyword #CONTRACTION not known and is ignored.
  @GTFLGS-W, Keyword #EXCITE not known and is ignored.
  @GTFLGS-W, Keyword #ESTATE_CONV not known and is ignored.
  @GTFLGS-W, Keyword #ESTATE_SYM not known and is ignored.
  @GTFLGS-W, Keyword #SCF_DAMPING not known and is ignored.
  @GTFLGS-W, Keyword #OCCUPATION not known and is ignored.
    -------------------------------------------------------------------
                    CFOUR Control Parameters 
    -------------------------------------------------------------------
        External           Internal           Value            Units
          Name               Name
    -------------------------------------------------------------------
       ABCDTYPE             IABCDT         STANDARD     [  0]   ***   
       ANHARMONIC           IANHAR         OFF          [  0]   ***   
       ANH_ALGORIT          IANALG         STANDARD     [  0]   ***   
       ANH_DERIVAT          IANDER         SECOND       [  1]   ***   
       ANH_STEPSIZ          ICUBST             50000          x 10-6  
       ANH_SYMMETR          IANHSM         ABELIAN      [  0]   ***   
       AO_LADDERS           IAOLAD         SINGLEPASS   [  1]   ***   
       BASIS                IBASIS         SPECIAL      [  0]   ***   
       BREIT                IBREIT         OFF          [  0]   ***   
       BRUCK_CONV           IBRTOL          10D-  4             ***   
       BRUECKNER            IBRKNR             OFF      [  0]   ***   
       BUFFERSIZE           IBUFFS            600               ***   
       CACHE_RECS           ICHREC             10               ***   
       CALCLEVEL            ICLLVL           CCSD(T)    [ 22]   ***   
       CCORBOPT             ICCORB             OFF      [  0] x 0.01  
       CC_CONV              ICCCNV          10D-  9             ***   
       CC_EXPORDER          ICCEOR              5               ***   
       CC_EXTRAPOL          ICCEXT             DIIS     [  1]   ***   
       CC_MAXCYC            ICCCYC            999              cycles 
       CC_PROGRAM           ICCPRO         VCC          [  0]   ***   
       CHARGE               ICHRGE              0               ***   
       CHOLESKY             ICHOLE         OFF          [  0]   ***   
       CIS_CONV             ICISTL              5               ***   
       COMM_SIZE            IPSIZE            ***               ***   
       CONSTANT             ICONST         OLD          [  1]   ***   
       CONTINUUM            ICONTU         NONE         [  0]   ***   
       CONTRACTION          ICNTYP          GENERAL     [  1]   ***   
       COORDINATES          ICOORD         CARTESIAN    [  1]   ***   
       CPHF_CONVER          ICPHFT          10D- 16             ***   
       CPHF_MAXCYC          ICPHFC             64              cycles 
       CUBIC                ICUBIC         OFF          [  0]   ***   
       CURVILINEAR          ICURVY            OFF       [  0]   ***   
       DBOC                 IDBOC          OFF          [  0]   ***   
       DCT                  IDCT           OFF          [  0]   ***   
       DERIV_LEV            IDRLVL            ZERO      [  0]   ***   
       DIAG_MRCC            IEOMST          10D-  0             ***   
       DIFF_TYPE            IDIFTY         RELAXED      [  0]   ***   
       DIRECT               IDIRCT         OFF          [  0]   ***   
       DROPMO               IDRPMO      NONE         
       ECP                  IECP           OFF          [  0]   ***   
       EIGENVECTOR          IVEC                1               ***   
       EL_ANHARM            IELANH         OFF          [  0]   ***   
       EOMFOLLOW            IEOMSR         ENERGY       [  0]   ***   
       EOM_MRCC             IMRCCE         NEW          [  1]   ***   
       EOM_NONIT            EOMNON         OFF          [  0]   ***   
       EOM_NSING            IEOMSI          10D-  0             ***   
       EOM_NSTATES          IMRCCD         DAVIDSON     [  0]   ***   
       EOM_NTRIP            IEOMTR          10D-  0             ***   
       EOM_ORDER            IEXORD         ENERGY       [  0]   ***   
       ESTATE_CONV          IEXTOL          10D-  5             ***   
       ESTATE_DIAG          IEXDIG         ITERATIVE    [  0]   ***   
       ESTATE_LOCK          IESLOC         ON           [  1]   ***   
       ESTATE_MAXC          IEXMXC             20               ***   
       ESTATE_PROP          IEXPRP         OFF          [  0]   ***   
       EVAL_HESS            IRECAL              0            # of cyc.
       EXCITATION           IEXCIT              0               ***   
       EXCITE               IEXCIT         NONE         [  0]   ***   
       FCGRADNEW            IFCGNW         OFF          [  0]   ***   
       FC_FIELD             IFINFC              0             x 10-6  
       FD_CALTYPE           IFDCAL         GRADONLY     [  0]   ***   
       FD_PROJECT           IFDPRJ         OFF          [  1]   ***   
       FD_STEPSIZE          IDISFD              0            10-4 bohr
       FD_USEGROUP          IFDGRP         FULL         [  0]   ***   
       FILE_RECSIZ          IFLREC              4096           words  
       FINITE_PERT          IFIPER              0             x 10-6  
       FIXGEOM              IFIXGM         OFF          [  0]   ***   
       FOCK                 IFOCK          AO           [  1]   ***   
       FREQ_ALGORI          IVIALG         STANDARD     [  0]   ***   
       FROZEN_CORE          IFROCO         ON           [  1]   ***   
       FROZEN_VIRT          IFROVI         OFF          [  0]   ***   
       GAMMA_ABCD           IGABCD         STORE        [  0]   ***   
       GAMMA_ABCI           IGABCI         STORE        [  0]   ***   
       GENBAS_1             IGNBS1              0               ***   
       GENBAS_2             IGNBS2              0               ***   
       GENBAS_3             IGNBS3              0               ***   
       GENBAS_4             IGNBS4              0               ***   
       GEO_CONV             ICONTL              5              H/bohr 
       GEO_MAXCYC           IOPTCY             50               ***   
       GEO_MAXSTEP          IMXSTP            300            millibohr
       GEO_METHOD           INR            SINGLE_POINT [  5]   ***   
       GIAO                 IGIAO          OFF          [  1]   ***   
       GIMIC                IGIMIC         OFF          [  0]   ***   
       GRID                 IGRID          OFF          [  0]   ***   
       GRID_ALGO            IGALGO         SERIAL       [  0]   ***   
       GUESS                IGUESS            MOREAD    [  0]   ***   
       HBAR                 IHBAR              OFF      [  0]   ***   
       HESS_TYPE            IHESTP         SCF          [  0]   ***   
       HF2_FILE             IHF2Fl         USE          [  1]   ***   
       HFSTABILITY          ISTABL         OFF          [  0]   ***   
       INCORE               INCORE             OFF      [  0]   ***   
       INPUT_MRCC           IMRCC          OFF          [  0]   ***   
       INTEGRALS            INTTYP             VMOL     [  1]   ***   
       JODA_PRINT           IJPRNT              4               ***   
       LINDEP_TOL           ILINDP              8               ***   
       LINEQ_CONV           IZTACN          10D-  7           cycles  
       LINEQ_EXPOR          ILMAXD              5               ***   
       LINEQ_MAXCY          ILMAXC             50               ***   
       LINEQ_TYPE           ILTYPE         DIIS         [  1]   ***   
       LOCK_ORBOCC          ILOCOC             OFF      [  0]   ***   
       MEMORY_SIZE          IMEMSZ         *********           words  
       MEM_UNIT             IMEMU          GB           [  3]   ***   
       MRCC                 IMRCCC         OFF          [  0]   ***   
       MULTIPLICTY          IMULTP              1               ***   
       NEGEVAL              IDIE             ABORT      [  0]   ***   
       NEWNORM              INEWNO         OFF          [  0]   ***   
       NON-HF               INONHF             OFF      [  0]   ***   
       NTOP_TAMP            ITOPT2             15               ***   
       NUC_MODEL            INUCMO         POINT        [  0]   ***   
       OCCUPATION           IOCCU   ESTIMATED BY SCF 
       OPEN-SHELL           IOPEN          SPIN-ORBITAL [  0]   ***   
       ORBITALS             IORBTP           STANDARD   [  0]   ***   
       PARALLEL             IPARAL         ON           [  1]   ***   
       PARA_INT             IPINTS         ON           [  1]   ***   
       PARA_PRINT           IPPRIN              0               ***   
       PERT_ORB             IPTORB         STANDARD     [  0]   ***   
       POINTS               IGRDFD              0               ***   
       PRINT                IPRNT               4               ***   
       PROPS                IPROPS             OFF      [  0]   ***   
       PROP_INTEGR          IINTYP         INTERNAL     [  0]   ***   
       PSI                  IPSI           OFF          [  0]   ***   
       QUARTIC              IQUART         OFF          [  0]   ***   
       RAMAN_INT            IRAMIN         OFF          [  0]   ***   
       RAMAN_ORB            IRAMRE         UNRELAXED    [  0]   ***   
       RDO                  IRDOFM             OFF      [  0]   ***   
       REFERENCE            IREFNC             RHF      [  0]   ***   
       RELATIVIST           IRELAT         OFF          [  0]   ***   
       RELAX_DENS           IRDENS             OFF      [  0]   ***   
       RESET_FLAGS          IRESET             OFF      [  0]   ***   
       RESTART_CC           ICCRES         OFF          [  0]   ***   
       ROT_EVEC             ROTVEC              0               ***   
       SAVE_INTS            ISVINT              ON      [  1]   ***   
       SCALE_ON             ISTCRT              0               ***   
       SCF_CONV             ISCFCV          10D- 12             ***   
       SCF_DAMPING          IDAMP               0             x 10-3  
       SCF_EXPORDE          IRPPOR              6               ***   
       SCF_EXPSTAR          IRPPLS              5               ***   
       SCF_EXTRAPO          IRPP                ON      [  1]   ***   
       SCF_MAXCYC           ISCFCY            ***              cycles 
       SCF_NOSTOP           ISCFST         OFF          [  0]   ***   
       SCF_PRINT            ISCFPR              0               ***   
       SD_FIELD             IFINSD              0             x 10-6  
       SEQUENCE             ISEQUE         OFF          [  0]   ***   
       SOPERT               IPERSO         OFF          [  0]   ***   
       SPHERICAL            IDFGHI             ON       [  1]   ***   
       SPINORBIT            ISOCAL         OFF          [  0]   ***   
       SPINROTATIO          ISRCON         OFF          [  0]   ***   
       SPIN_FLIP            ISPFLP         OFF          [  0]   ***   
       SPIN_ORBIT           ISPORB         OFF          [  0]   ***   
       SPIN_SCAL            ISCSMP         OFF          [  0]   ***   
       SUBGROUP             ISUBGP         DEFAULT      [  0]   ***   
       SUBGRPAXIS           ISBXYZ         X            [  0]   ***   
       SYMMETRY             ISYM             ON         [  0]   ***   
       SYM_CHECK            ISYMCK         OVERRIDE     [  1]   ***   
       T3_EXTRAPOL          IT3EXT         ON           [  1]   ***   
       TAMP_SUM             IEVERY              5               ***   
       TESTSUITE            ITESTS         OFF          [  0]   ***   
       THERMOCH             ITHERM         OFF          [  0]   ***   
       TOL_CHOLESK          ITOLCH          10D-  4             ***   
       TRANGRAD             IRESRM         OFF          [  0]   ***   
       TRANS_INV            ITRAIN         USE          [  0]   ***   
       TREAT_PERT           ITREAT         SIMULTANEOUS [  0]   ***   
       UIJ_THRESHO          IUIJTH              1               ***   
       UNITS                IUNITS         ANGSTROM     [  0]   ***   
       UNOS                 IUNOS          OFF          [  0]   ***   
       UPDATE_HESS          IHUPDT         ON           [  1]   ***   
       VIBPHASE             ISETPH         STANDARD     [  0]   ***   
       VIBRATION            IVIB              NO        [  0]   ***   
       VIB_ALGORIT          IGEALG         STANDARD     [  0]   ***   
       VNATORB              IVNORB         OFF          [  0]   ***   
       VTRAN                IVTRAN         FULL/PARTIAL [  0]   ***   
       XFIELD               IXEFLD              0             x 10-6  
       XFORM_TOL            IXFTOL          10D- 18             ***   
       YFIELD               IYEFLD              0             x 10-6  
       ZFIELD               IZEFLD              0             x 10-6  
    -------------------------------------------------------------------
  @GETXYZ-I,     4 atoms read from ZMAT.
  1  C          6    12.00000
  2  C          6    12.00000
  3  C          6    12.00000
  4  C          6    12.00000
  1  C          6    12.00000
  2  C          6    12.00000
  3  C          6    12.00000
  4  C          6    12.00000
   12.0000000000
   12.0000000000
   12.0000000000
   12.0000000000
 After translation to center of mass coordinates 
        2.314348069862    0.000000000000    0.000000000000
       -2.314348069862    0.000000000000    0.000000000000
        0.000000000000   -1.376854742958    0.000000000000
        0.000000000000    1.376854742958    0.000000000000
  Inertia tensor (amu*bohr**2)
   45.49750    0.00000    0.00000
    0.00000  128.54897    0.00000
    0.00000    0.00000  174.04646
    Inertia tensor:
       45.497495596973    0.000000000000    0.000000000000
        0.000000000000  128.548967723339    0.000000000000
        0.000000000000    0.000000000000  174.046463320312
    Principal axis orientation for molecular system: 
        2.314348069862    0.000000000000    0.000000000000
       -2.314348069862    0.000000000000    0.000000000000
        0.000000000000   -1.376854742958    0.000000000000
        0.000000000000    1.376854742958    0.000000000000
    Diagonalized inertia tensor:
       45.497495596973    0.000000000000    0.000000000000
        0.000000000000  128.548967723339    0.000000000000
        0.000000000000    0.000000000000  174.046463320312
    Eigenvectors of inertia tensor: 
        1.000000000000    0.000000000000    0.000000000000
        0.000000000000    1.000000000000    0.000000000000
        0.000000000000    0.000000000000    1.000000000000
 factor:   60.1997200000000     
   Rotational constants (in cm-1): 
          0.3458830410             0.4683018547             1.3231435975
   Rotational constants (in MHz): 
      10369.3141554309         14039.3383764398         39666.8526944171
  @SYMMETRY-I, Handedness of inertial frame: 1.00000
  @SYMMETRY-I, The symmetry group is 1-fold degenerate.
  @SYMMETRY-I, The molecule belongs to an Abelian group.
   Principal axis orientation for molecule:
        2.314348069862    0.000000000000    0.000000000000
       -2.314348069862    0.000000000000    0.000000000000
        0.000000000000   -1.376854742958    0.000000000000
        0.000000000000    1.376854742958    0.000000000000
   Reflection in plane  3 is a valid symmetry operation.
   Rotation about  3 is a valid symmetry operation 
   Reflection in plane  2 is a valid symmetry operation.
   Rotation about  2 is a valid symmetry operation 
   Reflection in plane  1 is a valid symmetry operation.
   Rotation about  1 is a valid symmetry operation 
   The molecule possesses an inversion center. 
  Symmetry bits:    7   7   1
********************************************************************************
   The full molecular point group is D2h .
   The largest Abelian subgroup of the full molecular point group is D2h .
   The computational point group is D2h .
********************************************************************************
 ----------------------------------------------------------------
 Z-matrix   Atomic            Coordinates (in bohr)
  Symbol    Number           X              Y              Z
 ----------------------------------------------------------------
     C         6         2.31434807     0.00000000     0.00000000
     C         6        -2.31434807     0.00000000     0.00000000
     C         6         0.00000000    -1.37685474     0.00000000
     C         6         0.00000000     1.37685474     0.00000000
 ----------------------------------------------------------------
   Interatomic distance matrix (Angstroms) 
 
                 C             C             C             C    
                [ 1]        [ 2]        [ 3]        [ 4]
  C    [ 1]     0.00000
  C    [ 2]     2.44940     0.00000
  C    [ 3]     1.42504     1.42504     0.00000
  C    [ 4]     1.42504     1.42504     1.45720     0.00000
  Inertia tensor (amu*bohr**2)
   45.49750    0.00000    0.00000
    0.00000  128.54897    0.00000
    0.00000    0.00000  174.04646
   Rotational constants (in cm-1): 
          1.3231435975             0.4683018547             0.3458830410
   Rotational constants (in MHz): 
      39666.8526944171         14039.3383764398         10369.3141554309
  @GTFLGS-W, Keyword #UNITS not known and is ignored.
  @GTFLGS-W, Keyword #GEOM not known and is ignored.
  @GTFLGS-W, Keyword #COORD not known and is ignored.
  @GTFLGS-W, Keyword #CC_PROG not known and is ignored.
  @GTFLGS-W, Keyword #DROPMO not known and is ignored.
  @GTFLGS-W, Keyword #CONTRACTION not known and is ignored.
  @GTFLGS-W, Keyword #EXCITE not known and is ignored.
  @GTFLGS-W, Keyword #ESTATE_CONV not known and is ignored.
  @GTFLGS-W, Keyword #ESTATE_SYM not known and is ignored.
  @GTFLGS-W, Keyword #SCF_DAMPING not known and is ignored.
  @GTFLGS-W, Keyword #OCCUPATION not known and is ignored.
  There are   4 frozen-core orbitals.
  There are  124 basis functions.
 @GEOPT-W, Archive file not created for single-point calculation.
  @CHECKOUT-I, Total execution time (CPU/WALL):        0.53/       1.69 seconds.
--executable xjoda finished with status     0 in        5.80 seconds (walltime).
 --invoking executable--
/home/nike/cfour_v2.00beta/cfour_v2.00beta/bin/xvmol
 Serial version of molecule started
********************************************************************************
                    Input from MOL file
********************************************************************************
INTGRL        1    0    1    0    0    0    0    0    0                         
         *** CFOUR Program System (Release V0.1) ***                            
TITLE                                                                           
    2    3 X  Y   Z   0.10E-08              0    0                              
   9999.00      3.00                                                            
          6.00000000    1    4    1    1    1    1                              
C #1   2.314348069861678   0.000000000000000   0.000000000000000                
   11    5                                                                      
   13575.3496820000       2.224581435200000E-004  0.000000000000000E+000        
  0.000000000000000E+000  0.000000000000000E+000  0.000000000000000E+000        
   2035.23336800000       1.723273825200000E-003  0.000000000000000E+000        
  0.000000000000000E+000  0.000000000000000E+000  0.000000000000000E+000        
   463.225623590000       8.925571531400001E-003  0.000000000000000E+000        
  0.000000000000000E+000  0.000000000000000E+000  0.000000000000000E+000        
   131.200195980000       3.572798450200000E-002  0.000000000000000E+000        
  0.000000000000000E+000  0.000000000000000E+000  0.000000000000000E+000        
   42.8530158910000       0.110762599310000       0.000000000000000E+000        
  0.000000000000000E+000  0.000000000000000E+000  0.000000000000000E+000        
   15.5841857660000       0.242956276260000       0.000000000000000E+000        
  0.000000000000000E+000  0.000000000000000E+000  0.000000000000000E+000        
   6.20671385080000       0.000000000000000E+000  0.414402634480000             
  0.000000000000000E+000  0.000000000000000E+000  0.000000000000000E+000        
   2.57648965270000       0.000000000000000E+000  0.237449686550000             
  0.000000000000000E+000  0.000000000000000E+000  0.000000000000000E+000        
  0.576963394190000       0.000000000000000E+000  0.000000000000000E+000        
   1.00000000000000       0.000000000000000E+000  0.000000000000000E+000        
  0.229728313580000       0.000000000000000E+000  0.000000000000000E+000        
  0.000000000000000E+000   1.00000000000000       0.000000000000000E+000        
  9.516444002799999E-002  0.000000000000000E+000  0.000000000000000E+000        
  0.000000000000000E+000  0.000000000000000E+000   1.00000000000000             
    6    3                                                                      
   34.6972322440000       5.333365780500000E-003  0.000000000000000E+000        
  0.000000000000000E+000                                                        
   7.95826228260000       3.586410909200000E-002  0.000000000000000E+000        
  0.000000000000000E+000                                                        
   2.37808268830000       0.142158733290000       0.000000000000000E+000        
  0.000000000000000E+000                                                        
  0.814332081830000       0.342704718450000       0.000000000000000E+000        
  0.000000000000000E+000                                                        
  0.288875472530000       0.000000000000000E+000  0.464458224330000             
  0.000000000000000E+000                                                        
  0.100568236710000       0.000000000000000E+000  0.000000000000000E+000        
  0.249557898740000                                                             
    2    2                                                                      
   1.09700000000000        1.00000000000000       0.000000000000000E+000        
  0.318000000000000       0.000000000000000E+000   1.00000000000000             
    1    1                                                                      
  0.761000000000000        1.00000000000000                                     
          6.00000000    1    4    1    1    1    1                              
C #2   0.000000000000000  -1.376854742958454   0.000000000000000                
   11    5                                                                      
   13575.3496820000       2.224581435200000E-004  0.000000000000000E+000        
  0.000000000000000E+000  0.000000000000000E+000  0.000000000000000E+000        
   2035.23336800000       1.723273825200000E-003  0.000000000000000E+000        
  0.000000000000000E+000  0.000000000000000E+000  0.000000000000000E+000        
   463.225623590000       8.925571531400001E-003  0.000000000000000E+000        
  0.000000000000000E+000  0.000000000000000E+000  0.000000000000000E+000        
   131.200195980000       3.572798450200000E-002  0.000000000000000E+000        
  0.000000000000000E+000  0.000000000000000E+000  0.000000000000000E+000        
   42.8530158910000       0.110762599310000       0.000000000000000E+000        
  0.000000000000000E+000  0.000000000000000E+000  0.000000000000000E+000        
   15.5841857660000       0.242956276260000       0.000000000000000E+000        
  0.000000000000000E+000  0.000000000000000E+000  0.000000000000000E+000        
   6.20671385080000       0.000000000000000E+000  0.414402634480000             
  0.000000000000000E+000  0.000000000000000E+000  0.000000000000000E+000        
   2.57648965270000       0.000000000000000E+000  0.237449686550000             
  0.000000000000000E+000  0.000000000000000E+000  0.000000000000000E+000        
  0.576963394190000       0.000000000000000E+000  0.000000000000000E+000        
   1.00000000000000       0.000000000000000E+000  0.000000000000000E+000        
  0.229728313580000       0.000000000000000E+000  0.000000000000000E+000        
  0.000000000000000E+000   1.00000000000000       0.000000000000000E+000        
  9.516444002799999E-002  0.000000000000000E+000  0.000000000000000E+000        
  0.000000000000000E+000  0.000000000000000E+000   1.00000000000000             
    6    3                                                                      
   34.6972322440000       5.333365780500000E-003  0.000000000000000E+000        
  0.000000000000000E+000                                                        
   7.95826228260000       3.586410909200000E-002  0.000000000000000E+000        
  0.000000000000000E+000                                                        
   2.37808268830000       0.142158733290000       0.000000000000000E+000        
  0.000000000000000E+000                                                        
  0.814332081830000       0.342704718450000       0.000000000000000E+000        
  0.000000000000000E+000                                                        
  0.288875472530000       0.000000000000000E+000  0.464458224330000             
  0.000000000000000E+000                                                        
  0.100568236710000       0.000000000000000E+000  0.000000000000000E+000        
  0.249557898740000                                                             
    2    2                                                                      
   1.09700000000000        1.00000000000000       0.000000000000000E+000        
  0.318000000000000       0.000000000000000E+000   1.00000000000000             
    1    1                                                                      
  0.761000000000000        1.00000000000000                                     
FINISH                                                                          
 
********************************************************************************
 One- and two-electron integrals over symmetry-adapted AOs are calculated.

  Spherical harmonics are used.
  
   2 types of atoms
   3 symmetry operations

   Reflection in the YZ-plane
   Reflection in the XZ-plane
   Reflection in the XY-plane
  
  Integrals less than  0.10E-13 are neglected.

  Atomic type number  1 :
  -----------------------

    Nuclear charge:                        6
    number of symmetry independent atoms:  1
    highest orbital type:                  f

      1 groups of CGTOs of s type
      1 groups of CGTOs of p type
      1 groups of CGTOs of d type
      1 groups of CGTOs of f type

    nuclear coordinates (in a.u.) are :

    C #1        2.314348069861678        0.000000000000000        0.000000000000000
  
   Basis function not normalized: 
   Center (as ordered in MOL file):   1
   Angular Momentum type          : s
   Offset within angular momentum :  1
   <chi|chi>                      :    2.7261534527
   Basis function not normalized: 
   Center (as ordered in MOL file):   1
   Angular Momentum type          : s
   Offset within angular momentum :  2
   <chi|chi>                      :    1.5828883092
   Basis function not normalized: 
   Center (as ordered in MOL file):   1
   Angular Momentum type          : p
   Offset within angular momentum :  1
   <chi|chi>                      :    2.1238408295
   Basis function not normalized: 
   Center (as ordered in MOL file):   1
   Angular Momentum type          : p
   Offset within angular momentum :  2
   <chi|chi>                      :    2.1530461678
   Basis function not normalized: 
   Center (as ordered in MOL file):   1
   Angular Momentum type          : p
   Offset within angular momentum :  3
   <chi|chi>                      :    4.0070861513
  Atomic type number  2 :
  -----------------------

    Nuclear charge:                        6
    number of symmetry independent atoms:  1
    highest orbital type:                  f

      1 groups of CGTOs of s type
      1 groups of CGTOs of p type
      1 groups of CGTOs of d type
      1 groups of CGTOs of f type

    nuclear coordinates (in a.u.) are :

    C #2        0.000000000000000       -1.376854742958454        0.000000000000000
  
   Basis function not normalized: 
   Center (as ordered in MOL file):   2
   Angular Momentum type          : s
   Offset within angular momentum :  1
   <chi|chi>                      :    2.7261534527
   Basis function not normalized: 
   Center (as ordered in MOL file):   2
   Angular Momentum type          : s
   Offset within angular momentum :  2
   <chi|chi>                      :    1.5828883092
   Basis function not normalized: 
   Center (as ordered in MOL file):   2
   Angular Momentum type          : p
   Offset within angular momentum :  1
   <chi|chi>                      :    2.1238408295
   Basis function not normalized: 
   Center (as ordered in MOL file):   2
   Angular Momentum type          : p
   Offset within angular momentum :  2
   <chi|chi>                      :    2.1530461678
   Basis function not normalized: 
   Center (as ordered in MOL file):   2
   Angular Momentum type          : p
   Offset within angular momentum :  3
   <chi|chi>                      :    4.0070861513
   Internuclear distances (A) :

     for atom C #1 (coordinates :   2.31435   0.00000   0.00000)

     C #1   2     distance is  2.449
     C #2   1     distance is  1.425

     for atom C #2 (coordinates :   0.00000  -1.37685   0.00000)

     C #2   3     distance is  1.457

   Group multiplication table :

         1   2   3   4   5   6   7   8
         2   1   4   3   6   5   8   7
         3   4   1   2   7   8   5   6
         4   3   2   1   8   7   6   5
         5   6   7   8   1   2   3   4
         6   5   8   7   2   1   4   3
         7   8   5   6   3   4   1   2
         8   7   6   5   4   3   2   1

   Gaussian basis information :

   atom                 exponent      coefficients

 C #1  1    S   
+                 1   13575.349682   0.0002225   0.0000000   0.0000000   0.0000000   0.0000000
                  2    2035.233368   0.0017233   0.0000000   0.0000000   0.0000000   0.0000000
                  3     463.225624   0.0089256   0.0000000   0.0000000   0.0000000   0.0000000
                  4     131.200196   0.0357280   0.0000000   0.0000000   0.0000000   0.0000000
                  5      42.853016   0.1107626   0.0000000   0.0000000   0.0000000   0.0000000
                  6      15.584186   0.2429563   0.0000000   0.0000000   0.0000000   0.0000000
                  7       6.206714   0.0000000   0.4144026   0.0000000   0.0000000   0.0000000
                  8       2.576490   0.0000000   0.2374497   0.0000000   0.0000000   0.0000000
                  9       0.576963   0.0000000   0.0000000   1.0000000   0.0000000   0.0000000
                 10       0.229728   0.0000000   0.0000000   0.0000000   1.0000000   0.0000000
                 11       0.095164   0.0000000   0.0000000   0.0000000   0.0000000   1.0000000

 C #1  2    S   
+                12   13575.349682   0.0002225   0.0000000   0.0000000   0.0000000   0.0000000
                 13    2035.233368   0.0017233   0.0000000   0.0000000   0.0000000   0.0000000
                 14     463.225624   0.0089256   0.0000000   0.0000000   0.0000000   0.0000000
                 15     131.200196   0.0357280   0.0000000   0.0000000   0.0000000   0.0000000
                 16      42.853016   0.1107626   0.0000000   0.0000000   0.0000000   0.0000000
                 17      15.584186   0.2429563   0.0000000   0.0000000   0.0000000   0.0000000
                 18       6.206714   0.0000000   0.4144026   0.0000000   0.0000000   0.0000000
                 19       2.576490   0.0000000   0.2374497   0.0000000   0.0000000   0.0000000
                 20       0.576963   0.0000000   0.0000000   1.0000000   0.0000000   0.0000000
                 21       0.229728   0.0000000   0.0000000   0.0000000   1.0000000   0.0000000
                 22       0.095164   0.0000000   0.0000000   0.0000000   0.0000000   1.0000000

 C #1  1    X   
+                23      34.697232   0.0053334   0.0000000   0.0000000
                 24       7.958262   0.0358641   0.0000000   0.0000000
                 25       2.378083   0.1421587   0.0000000   0.0000000
                 26       0.814332   0.3427047   0.0000000   0.0000000
                 27       0.288875   0.0000000   0.4644582   0.0000000
                 28       0.100568   0.0000000   0.0000000   0.2495579

 C #1  2    X   
+                29      34.697232   0.0053334   0.0000000   0.0000000
                 30       7.958262   0.0358641   0.0000000   0.0000000
                 31       2.378083   0.1421587   0.0000000   0.0000000
                 32       0.814332   0.3427047   0.0000000   0.0000000
                 33       0.288875   0.0000000   0.4644582   0.0000000
                 34       0.100568   0.0000000   0.0000000   0.2495579

 C #1  1    Y   
+                35      34.697232   0.0053334   0.0000000   0.0000000
                 36       7.958262   0.0358641   0.0000000   0.0000000
                 37       2.378083   0.1421587   0.0000000   0.0000000
                 38       0.814332   0.3427047   0.0000000   0.0000000
                 39       0.288875   0.0000000   0.4644582   0.0000000
                 40       0.100568   0.0000000   0.0000000   0.2495579

 C #1  2    Y   
+                41      34.697232   0.0053334   0.0000000   0.0000000
                 42       7.958262   0.0358641   0.0000000   0.0000000
                 43       2.378083   0.1421587   0.0000000   0.0000000
                 44       0.814332   0.3427047   0.0000000   0.0000000
                 45       0.288875   0.0000000   0.4644582   0.0000000
                 46       0.100568   0.0000000   0.0000000   0.2495579

 C #1  1    Z   
+                47      34.697232   0.0053334   0.0000000   0.0000000
                 48       7.958262   0.0358641   0.0000000   0.0000000
                 49       2.378083   0.1421587   0.0000000   0.0000000
                 50       0.814332   0.3427047   0.0000000   0.0000000
                 51       0.288875   0.0000000   0.4644582   0.0000000
                 52       0.100568   0.0000000   0.0000000   0.2495579

 C #1  2    Z   
+                53      34.697232   0.0053334   0.0000000   0.0000000
                 54       7.958262   0.0358641   0.0000000   0.0000000
                 55       2.378083   0.1421587   0.0000000   0.0000000
                 56       0.814332   0.3427047   0.0000000   0.0000000
                 57       0.288875   0.0000000   0.4644582   0.0000000
                 58       0.100568   0.0000000   0.0000000   0.2495579

 C #1  1    XX  
+                59       1.097000   1.0000000   0.0000000
                 60       0.318000   0.0000000   1.0000000

 C #1  2    XX  
+                61       1.097000   1.0000000   0.0000000
                 62       0.318000   0.0000000   1.0000000

 C #1  1    XY  
+                63       1.097000   1.0000000   0.0000000
                 64       0.318000   0.0000000   1.0000000

 C #1  2    XY  
+                65       1.097000   1.0000000   0.0000000
                 66       0.318000   0.0000000   1.0000000

 C #1  1    XZ  
+                67       1.097000   1.0000000   0.0000000
                 68       0.318000   0.0000000   1.0000000

 C #1  2    XZ  
+                69       1.097000   1.0000000   0.0000000
                 70       0.318000   0.0000000   1.0000000

 C #1  1    YY  
+                71       1.097000   1.0000000   0.0000000
                 72       0.318000   0.0000000   1.0000000

 C #1  2    YY  
+                73       1.097000   1.0000000   0.0000000
                 74       0.318000   0.0000000   1.0000000

 C #1  1    YZ  
+                75       1.097000   1.0000000   0.0000000
                 76       0.318000   0.0000000   1.0000000

 C #1  2    YZ  
+                77       1.097000   1.0000000   0.0000000
                 78       0.318000   0.0000000   1.0000000

 C #1  1    ZZ  
+                79       1.097000   1.0000000   0.0000000
                 80       0.318000   0.0000000   1.0000000

 C #1  2    ZZ  
+                81       1.097000   1.0000000   0.0000000
                 82       0.318000   0.0000000   1.0000000

 C #1  1    F300
+                83       0.761000   1.0000000

 C #1  2    F300
+                84       0.761000   1.0000000

 C #1  1    F210
+                85       0.761000   1.0000000

 C #1  2    F210
+                86       0.761000   1.0000000

 C #1  1    F201
+                87       0.761000   1.0000000

 C #1  2    F201
+                88       0.761000   1.0000000

 C #1  1    F120
+                89       0.761000   1.0000000

 C #1  2    F120
+                90       0.761000   1.0000000

 C #1  1    F111
+                91       0.761000   1.0000000

 C #1  2    F111
+                92       0.761000   1.0000000

 C #1  1    F102
+                93       0.761000   1.0000000

 C #1  2    F102
+                94       0.761000   1.0000000

 C #1  1    F030
+                95       0.761000   1.0000000

 C #1  2    F030
+                96       0.761000   1.0000000

 C #1  1    F021
+                97       0.761000   1.0000000

 C #1  2    F021
+                98       0.761000   1.0000000

 C #1  1    F012
+                99       0.761000   1.0000000

 C #1  2    F012
+               100       0.761000   1.0000000

 C #1  1    F003
+               101       0.761000   1.0000000

 C #1  2    F003
+               102       0.761000   1.0000000

 C #2  1    S   
+               103   13575.349682   0.0002225   0.0000000   0.0000000   0.0000000   0.0000000
                104    2035.233368   0.0017233   0.0000000   0.0000000   0.0000000   0.0000000
                105     463.225624   0.0089256   0.0000000   0.0000000   0.0000000   0.0000000
                106     131.200196   0.0357280   0.0000000   0.0000000   0.0000000   0.0000000
                107      42.853016   0.1107626   0.0000000   0.0000000   0.0000000   0.0000000
                108      15.584186   0.2429563   0.0000000   0.0000000   0.0000000   0.0000000
                109       6.206714   0.0000000   0.4144026   0.0000000   0.0000000   0.0000000
                110       2.576490   0.0000000   0.2374497   0.0000000   0.0000000   0.0000000
                111       0.576963   0.0000000   0.0000000   1.0000000   0.0000000   0.0000000
                112       0.229728   0.0000000   0.0000000   0.0000000   1.0000000   0.0000000
                113       0.095164   0.0000000   0.0000000   0.0000000   0.0000000   1.0000000

 C #2  3    S   
+               114   13575.349682   0.0002225   0.0000000   0.0000000   0.0000000   0.0000000
                115    2035.233368   0.0017233   0.0000000   0.0000000   0.0000000   0.0000000
                116     463.225624   0.0089256   0.0000000   0.0000000   0.0000000   0.0000000
                117     131.200196   0.0357280   0.0000000   0.0000000   0.0000000   0.0000000
                118      42.853016   0.1107626   0.0000000   0.0000000   0.0000000   0.0000000
                119      15.584186   0.2429563   0.0000000   0.0000000   0.0000000   0.0000000
                120       6.206714   0.0000000   0.4144026   0.0000000   0.0000000   0.0000000
                121       2.576490   0.0000000   0.2374497   0.0000000   0.0000000   0.0000000
                122       0.576963   0.0000000   0.0000000   1.0000000   0.0000000   0.0000000
                123       0.229728   0.0000000   0.0000000   0.0000000   1.0000000   0.0000000
                124       0.095164   0.0000000   0.0000000   0.0000000   0.0000000   1.0000000

 C #2  1    X   
+               125      34.697232   0.0053334   0.0000000   0.0000000
                126       7.958262   0.0358641   0.0000000   0.0000000
                127       2.378083   0.1421587   0.0000000   0.0000000
                128       0.814332   0.3427047   0.0000000   0.0000000
                129       0.288875   0.0000000   0.4644582   0.0000000
                130       0.100568   0.0000000   0.0000000   0.2495579

 C #2  3    X   
+               131      34.697232   0.0053334   0.0000000   0.0000000
                132       7.958262   0.0358641   0.0000000   0.0000000
                133       2.378083   0.1421587   0.0000000   0.0000000
                134       0.814332   0.3427047   0.0000000   0.0000000
                135       0.288875   0.0000000   0.4644582   0.0000000
                136       0.100568   0.0000000   0.0000000   0.2495579

 C #2  1    Y   
+               137      34.697232   0.0053334   0.0000000   0.0000000
                138       7.958262   0.0358641   0.0000000   0.0000000
                139       2.378083   0.1421587   0.0000000   0.0000000
                140       0.814332   0.3427047   0.0000000   0.0000000
                141       0.288875   0.0000000   0.4644582   0.0000000
                142       0.100568   0.0000000   0.0000000   0.2495579

 C #2  3    Y   
+               143      34.697232   0.0053334   0.0000000   0.0000000
                144       7.958262   0.0358641   0.0000000   0.0000000
                145       2.378083   0.1421587   0.0000000   0.0000000
                146       0.814332   0.3427047   0.0000000   0.0000000
                147       0.288875   0.0000000   0.4644582   0.0000000
                148       0.100568   0.0000000   0.0000000   0.2495579

 C #2  1    Z   
+               149      34.697232   0.0053334   0.0000000   0.0000000
                150       7.958262   0.0358641   0.0000000   0.0000000
                151       2.378083   0.1421587   0.0000000   0.0000000
                152       0.814332   0.3427047   0.0000000   0.0000000
                153       0.288875   0.0000000   0.4644582   0.0000000
                154       0.100568   0.0000000   0.0000000   0.2495579

 C #2  3    Z   
+               155      34.697232   0.0053334   0.0000000   0.0000000
                156       7.958262   0.0358641   0.0000000   0.0000000
                157       2.378083   0.1421587   0.0000000   0.0000000
                158       0.814332   0.3427047   0.0000000   0.0000000
                159       0.288875   0.0000000   0.4644582   0.0000000
                160       0.100568   0.0000000   0.0000000   0.2495579

 C #2  1    XX  
+               161       1.097000   1.0000000   0.0000000
                162       0.318000   0.0000000   1.0000000

 C #2  3    XX  
+               163       1.097000   1.0000000   0.0000000
                164       0.318000   0.0000000   1.0000000

 C #2  1    XY  
+               165       1.097000   1.0000000   0.0000000
                166       0.318000   0.0000000   1.0000000

 C #2  3    XY  
+               167       1.097000   1.0000000   0.0000000
                168       0.318000   0.0000000   1.0000000

 C #2  1    XZ  
+               169       1.097000   1.0000000   0.0000000
                170       0.318000   0.0000000   1.0000000

 C #2  3    XZ  
+               171       1.097000   1.0000000   0.0000000
                172       0.318000   0.0000000   1.0000000

 C #2  1    YY  
+               173       1.097000   1.0000000   0.0000000
                174       0.318000   0.0000000   1.0000000

 C #2  3    YY  
+               175       1.097000   1.0000000   0.0000000
                176       0.318000   0.0000000   1.0000000

 C #2  1    YZ  
+               177       1.097000   1.0000000   0.0000000
                178       0.318000   0.0000000   1.0000000

 C #2  3    YZ  
+               179       1.097000   1.0000000   0.0000000
                180       0.318000   0.0000000   1.0000000

 C #2  1    ZZ  
+               181       1.097000   1.0000000   0.0000000
                182       0.318000   0.0000000   1.0000000

 C #2  3    ZZ  
+               183       1.097000   1.0000000   0.0000000
                184       0.318000   0.0000000   1.0000000

 C #2  1    F300
+               185       0.761000   1.0000000

 C #2  3    F300
+               186       0.761000   1.0000000

 C #2  1    F210
+               187       0.761000   1.0000000

 C #2  3    F210
+               188       0.761000   1.0000000

 C #2  1    F201
+               189       0.761000   1.0000000

 C #2  3    F201
+               190       0.761000   1.0000000

 C #2  1    F120
+               191       0.761000   1.0000000

 C #2  3    F120
+               192       0.761000   1.0000000

 C #2  1    F111
+               193       0.761000   1.0000000

 C #2  3    F111
+               194       0.761000   1.0000000

 C #2  1    F102
+               195       0.761000   1.0000000

 C #2  3    F102
+               196       0.761000   1.0000000

 C #2  1    F030
+               197       0.761000   1.0000000

 C #2  3    F030
+               198       0.761000   1.0000000

 C #2  1    F021
+               199       0.761000   1.0000000

 C #2  3    F021
+               200       0.761000   1.0000000

 C #2  1    F012
+               201       0.761000   1.0000000

 C #2  3    F012
+               202       0.761000   1.0000000

 C #2  1    F003
+               203       0.761000   1.0000000

 C #2  3    F003
+               204       0.761000   1.0000000
144124
  1  2  3  4  5  6  7  8  9 10 11 12****** 13 14*** 15 16 17 18 19 20 21 22
 23 24 25 26****** 27 28*** 29 30 31 32 33 34 35 36 37 38 39 40****** 41 42
*** 43 44 45 46 47 48 49*** 50 51 52 53 54 55 56*** 57 58 59 60 61 62 63 64
 65 66 67 68****** 69 70*** 71 72 73 74 75 76 77*** 78 79 80 81 82 83 84***
 85 86 87 88 89 90 91*** 92 93 94 95 96 97 98*** 99100101102103104105***106
107108109110111112113114115116117118***119120121122123124
1

             SYMMETRY TRANSFORMATION INFO
            124 SYMMETRY ADAPTED BASIS FUNCTIONS 


          irreducible representation number 1

    1    1  C #1     1s     2   1   1.0   2   1.0
    2    2  C #1     1s     2   3   1.0   4   1.0
    3    3  C #1     1s     2   5   1.0   6   1.0
    4    4  C #1     1s     2   7   1.0   8   1.0
    5    5  C #1     1s     2   9   1.0  10   1.0
    6    6  C #1     2px    2  11   1.0  12  -1.0
    7    7  C #1     2px    2  13   1.0  14  -1.0
    8    8  C #1     2px    2  15   1.0  16  -1.0
    9    9  C #1     3d2-   6  29  -1.0  41  -1.0  49   2.0  30  -1.0  42  -1.0  50   2.0
   10   10  C #1     3d2-   6  31  -1.0  43  -1.0  51   2.0  32  -1.0  44  -1.0  52   2.0
   11   11  C #1     3d1+   4  29   1.0  41  -1.0  30   1.0  42  -1.0
   12   12  C #1     3d1+   4  31   1.0  43  -1.0  32   1.0  44  -1.0
   13   13  C #1     4f3-   6  53  -1.0  59  -1.0  63   4.0  54   1.0  60   1.0  64  -4.0
   14   14  C #1     4f0    4  53   1.0  59  -3.0  54  -1.0  60   3.0
   15   15  C #2     1s     2  73   1.0  74   1.0
   16   16  C #2     1s     2  75   1.0  76   1.0
   17   17  C #2     1s     2  77   1.0  78   1.0
   18   18  C #2     1s     2  79   1.0  80   1.0
   19   19  C #2     1s     2  81   1.0  82   1.0
   20   20  C #2     2py    2  89   1.0  90  -1.0
   21   21  C #2     2py    2  91   1.0  92  -1.0
   22   22  C #2     2py    2  93   1.0  94  -1.0
   23   23  C #2     3d2-   6 101  -1.0 113  -1.0 121   2.0 102  -1.0 114  -1.0 122   2.0
   24   24  C #2     3d2-   6 103  -1.0 115  -1.0 123   2.0 104  -1.0 116  -1.0 124   2.0
   25   25  C #2     3d1+   4 101   1.0 113  -1.0 102   1.0 114  -1.0
   26   26  C #2     3d1+   4 103   1.0 115  -1.0 104   1.0 116  -1.0
   27   27  C #2     4f2-   6 127  -1.0 137  -1.0 141   4.0 128   1.0 138   1.0 142  -4.0
   28   28  C #2     4f2+   4 127   3.0 137  -1.0 128  -3.0 138   1.0


          irreducible representation number 2

   29    1  C #1     1s     2   1   1.0   2  -1.0
   30    2  C #1     1s     2   3   1.0   4  -1.0
   31    3  C #1     1s     2   5   1.0   6  -1.0
   32    4  C #1     1s     2   7   1.0   8  -1.0
   33    5  C #1     1s     2   9   1.0  10  -1.0
   34    6  C #1     2px    2  11   1.0  12   1.0
   35    7  C #1     2px    2  13   1.0  14   1.0
   36    8  C #1     2px    2  15   1.0  16   1.0
   37    9  C #1     3d2-   6  29  -1.0  41  -1.0  49   2.0  30   1.0  42   1.0  50  -2.0
   38   10  C #1     3d2-   6  31  -1.0  43  -1.0  51   2.0  32   1.0  44   1.0  52  -2.0
   39   11  C #1     3d1+   4  29   1.0  41  -1.0  30  -1.0  42   1.0
   40   12  C #1     3d1+   4  31   1.0  43  -1.0  32  -1.0  44   1.0
   41   13  C #1     4f3-   6  53  -1.0  59  -1.0  63   4.0  54  -1.0  60  -1.0  64   4.0
   42   14  C #1     4f0    4  53   1.0  59  -3.0  54   1.0  60  -3.0
   43   15  C #2     2px    2  83   1.0  84   1.0
   44   16  C #2     2px    2  85   1.0  86   1.0
   45   17  C #2     2px    2  87   1.0  88   1.0
   46   18  C #2     3d1-   2 105   1.0 106  -1.0
   47   19  C #2     3d1-   2 107   1.0 108  -1.0
   48   20  C #2     4f3-   6 125  -1.0 131  -1.0 135   4.0 126  -1.0 132  -1.0 136   4.0
   49   21  C #2     4f0    4 125   1.0 131  -3.0 126   1.0 132  -3.0


          irreducible representation number 3

   50    1  C #1     2py    2  17   1.0  18   1.0
   51    2  C #1     2py    2  19   1.0  20   1.0
   52    3  C #1     2py    2  21   1.0  22   1.0
   53    4  C #1     3d1-   2  33   1.0  34  -1.0
   54    5  C #1     3d1-   2  35   1.0  36  -1.0
   55    6  C #1     4f2-   6  55  -1.0  65  -1.0  69   4.0  56  -1.0  66  -1.0  70   4.0
   56    7  C #1     4f2+   4  55   3.0  65  -1.0  56   3.0  66  -1.0
   57    8  C #2     1s     2  73   1.0  74  -1.0
   58    9  C #2     1s     2  75   1.0  76  -1.0
   59   10  C #2     1s     2  77   1.0  78  -1.0
   60   11  C #2     1s     2  79   1.0  80  -1.0
   61   12  C #2     1s     2  81   1.0  82  -1.0
   62   13  C #2     2py    2  89   1.0  90   1.0
   63   14  C #2     2py    2  91   1.0  92   1.0
   64   15  C #2     2py    2  93   1.0  94   1.0
   65   16  C #2     3d2-   6 101  -1.0 113  -1.0 121   2.0 102   1.0 114   1.0 122  -2.0
   66   17  C #2     3d2-   6 103  -1.0 115  -1.0 123   2.0 104   1.0 116   1.0 124  -2.0
   67   18  C #2     3d1+   4 101   1.0 113  -1.0 102  -1.0 114   1.0
   68   19  C #2     3d1+   4 103   1.0 115  -1.0 104  -1.0 116   1.0
   69   20  C #2     4f2-   6 127  -1.0 137  -1.0 141   4.0 128  -1.0 138  -1.0 142   4.0
   70   21  C #2     4f2+   4 127   3.0 137  -1.0 128   3.0 138  -1.0


          irreducible representation number 4

   71    1  C #1     2py    2  17   1.0  18  -1.0
   72    2  C #1     2py    2  19   1.0  20  -1.0
   73    3  C #1     2py    2  21   1.0  22  -1.0
   74    4  C #1     3d1-   2  33   1.0  34   1.0
   75    5  C #1     3d1-   2  35   1.0  36   1.0
   76    6  C #1     4f2-   6  55  -1.0  65  -1.0  69   4.0  56   1.0  66   1.0  70  -4.0
   77    7  C #1     4f2+   4  55   3.0  65  -1.0  56  -3.0  66   1.0
   78    8  C #2     2px    2  83   1.0  84  -1.0
   79    9  C #2     2px    2  85   1.0  86  -1.0
   80   10  C #2     2px    2  87   1.0  88  -1.0
   81   11  C #2     3d1-   2 105   1.0 106   1.0
   82   12  C #2     3d1-   2 107   1.0 108   1.0
   83   13  C #2     4f3-   6 125  -1.0 131  -1.0 135   4.0 126   1.0 132   1.0 136  -4.0
   84   14  C #2     4f0    4 125   1.0 131  -3.0 126  -1.0 132   3.0


          irreducible representation number 5

   85    1  C #1     2pz    2  23   1.0  24   1.0
   86    2  C #1     2pz    2  25   1.0  26   1.0
   87    3  C #1     2pz    2  27   1.0  28   1.0
   88    4  C #1     3d0    2  37   1.0  38  -1.0
   89    5  C #1     3d0    2  39   1.0  40  -1.0
   90    6  C #1     4f1-   6  57  -3.0  67  -3.0  71   2.0  58  -3.0  68  -3.0  72   2.0
   91    7  C #1     4f3+   4  57   1.0  67  -1.0  58   1.0  68  -1.0
   92    8  C #2     2pz    2  95   1.0  96   1.0
   93    9  C #2     2pz    2  97   1.0  98   1.0
   94   10  C #2     2pz    2  99   1.0 100   1.0
   95   11  C #2     3d2+   2 117   1.0 118  -1.0
   96   12  C #2     3d2+   2 119   1.0 120  -1.0
   97   13  C #2     4f1-   6 129  -3.0 139  -3.0 143   2.0 130  -3.0 140  -3.0 144   2.0
   98   14  C #2     4f3+   4 129   1.0 139  -1.0 130   1.0 140  -1.0


          irreducible representation number 6

   99    1  C #1     2pz    2  23   1.0  24  -1.0
  100    2  C #1     2pz    2  25   1.0  26  -1.0
  101    3  C #1     2pz    2  27   1.0  28  -1.0
  102    4  C #1     3d0    2  37   1.0  38   1.0
  103    5  C #1     3d0    2  39   1.0  40   1.0
  104    6  C #1     4f1-   6  57  -3.0  67  -3.0  71   2.0  58   3.0  68   3.0  72  -2.0
  105    7  C #1     4f3+   4  57   1.0  67  -1.0  58  -1.0  68   1.0
  106    8  C #2     3d0    2 109   1.0 110   1.0
  107    9  C #2     3d0    2 111   1.0 112   1.0
  108   10  C #2     4f1+   2 133   1.0 134  -1.0


          irreducible representation number 7

  109    1  C #1     3d2+   2  45   1.0  46   1.0
  110    2  C #1     3d2+   2  47   1.0  48   1.0
  111    3  C #1     4f1+   2  61   1.0  62  -1.0
  112    4  C #2     2pz    2  95   1.0  96  -1.0
  113    5  C #2     2pz    2  97   1.0  98  -1.0
  114    6  C #2     2pz    2  99   1.0 100  -1.0
  115    7  C #2     3d2+   2 117   1.0 118   1.0
  116    8  C #2     3d2+   2 119   1.0 120   1.0
  117    9  C #2     4f1-   6 129  -3.0 139  -3.0 143   2.0 130   3.0 140   3.0 144  -2.0
  118   10  C #2     4f3+   4 129   1.0 139  -1.0 130  -1.0 140   1.0


          irreducible representation number 8

  119    1  C #1     3d2+   2  45   1.0  46  -1.0
  120    2  C #1     3d2+   2  47   1.0  48  -1.0
  121    3  C #1     4f1+   2  61   1.0  62   1.0
  122    4  C #2     3d0    2 109   1.0 110  -1.0
  123    5  C #2     3d0    2 111   1.0 112  -1.0
  124    6  C #2     4f1+   2 133   1.0 134   1.0
  Nuclear repulsion energy :   74.3239611126 a.u.
  required memory for a1 array                5112368  words 
  required memory for a2 array                2103164  words 
 @GETMEM-I,  Allocated      70 MB of main memory.
  @MOLECU-I, One electron integrals (CPU/WALL):        0.04/       0.05 seconds.
  @TWOEL-I,     150245 integrals of symmetry type  I I I I
  @TWOEL-I,    1041817 integrals of symmetry type  I J I J
  @TWOEL-I,     579988 integrals of symmetry type  I I J J
  @TWOEL-I,    2060468 integrals of symmetry type  I J K L
  @TWOEL-I, Total number of 2-e integrals    3832518.
  @MOLECU-I, Two electron integrals (CPU/WALL):        2.20/       2.94 seconds.
  @CHECKOUT-I, Total execution time (CPU/WALL):        2.66/       3.63 seconds.
--executable xvmol finished with status     0 in        4.09 seconds (walltime).
 --invoking executable--
/home/nike/cfour_v2.00beta/cfour_v2.00beta/bin/xvmol2ja
 @GETMEM-I,  Allocated   11444 MB of main memory.
  @CHECKOUT-I, Total execution time (CPU/WALL):        0.02/       0.02 seconds.
--executable xvmol2ja finished with status     0 in        0.13 seconds (walltime).
 --invoking executable--
/home/nike/cfour_v2.00beta/cfour_v2.00beta/bin/xvscf
  There are  124 functions in the AO basis.

  There are 8 irreducible representations.

       Irrep        # of functions
         1                 28
         2                 21
         3                 21
         4                 14
         5                 14
         6                 10
         7                 10
         8                  6


  Parameters for SCF calculation: 
        SCF reference function:  RHF  
  Maximum number of iterations: ****
     Full symmetry point group: D2h 
     Computational point group: D2h 
        Initial density matrix: MOREAD                 
     SCF convergence tolerance: 10**(-12)
  DIIS convergence acceleration:  ON
          Latest start for DIIS:   5
                     DIIS order:   6

  Memory information:     691158 words required.
  Fock matrices are constructed from AO integral file.
 @GETMEM-I,  Allocated       5 MB of main memory.
  Initialization and symmetry analysis required      0.020 seconds.

  @INITGES-I, Occupancies from core Hamiltonian:

          Alpha population by irrep:   4    3    2    1    1    0    1    0
           Beta population by irrep:   4    3    2    1    1    0    1    0


 total no. of electrons in initial guess :  0.000000000000000E+000
  --------------------------------------------------------------------
  Iteration         Total Energy            Largest Density Difference
  --------------------------------------------------------------------
       0            74.323961112554130              0.0000000000D+00
   current occupation vector 
     4  3  2  1  1  0  1  0
     4  3  2  1  1  0  1  0
  processed                 150245  ao basis integrals from 
                   251  buffers.
  processed                 579988  ao basis integrals from 
                   967  buffers.
  processed                1041817  ao basis integrals from 
                  1737  buffers.
       1          -127.866387729302076              0.4424574476D+01
   current occupation vector 
     4  3  2  1  1  0  1  0
     4  3  2  1  1  0  1  0
  processed                 150245  ao basis integrals from 
                   251  buffers.
  processed                 579988  ao basis integrals from 
                   967  buffers.
  processed                1041817  ao basis integrals from 
                  1737  buffers.
       2          -131.008499883653826              0.8405372768D+02
   current occupation vector 
     4  3  2  1  1  1  0  0
     4  3  2  1  1  1  0  0
  processed                 150245  ao basis integrals from 
                   251  buffers.
  processed                 579988  ao basis integrals from 
                   967  buffers.
  processed                1041817  ao basis integrals from 
                  1737  buffers.
       3          -137.140502515661979              0.8422167384D+02
   current occupation vector 
     4  2  3  1  1  0  1  0
     4  2  3  1  1  0  1  0
  processed                 150245  ao basis integrals from 
                   251  buffers.
  processed                 579988  ao basis integrals from 
                   967  buffers.
  processed                1041817  ao basis integrals from 
                  1737  buffers.
       4          -139.396216378060842              0.2123092859D+02
   current occupation vector 
     4  3  2  1  1  1  0  0
     4  3  2  1  1  1  0  0
 
 sum over diagonal and offdiagdiagonal of C(T)*S*C for irrep
                     1
  3.041566998263079E-012 -2.500796927842474E-012
 reorthoganalization of MOs is carried out
 sum over diagonal and offdiagdiagonal of C(T)*S*C for irrep
                     1
 -3.858025010572419E-013  4.935028072273193E-013
 
 sum over diagonal and offdiagdiagonal of C(T)*S*C for irrep
                     2
 -6.765699112065704E-012  1.457759446717812E-012
 reorthoganalization of MOs is carried out
 sum over diagonal and offdiagdiagonal of C(T)*S*C for irrep
                     2
  6.854516954035716E-013 -6.206984260239721E-014
 
 sum over diagonal and offdiagdiagonal of C(T)*S*C for irrep
                     3
 -1.123989790130508E-012  1.592615654282778E-012
 reorthoganalization of MOs is carried out
 sum over diagonal and offdiagdiagonal of C(T)*S*C for irrep
                     3
 -1.051381204320023E-013  8.902263443876016E-015
 
 sum over diagonal and offdiagdiagonal of C(T)*S*C for irrep
                     4
  1.295075158225245E-012 -9.531036715391974E-013
 reorthoganalization of MOs is carried out
 sum over diagonal and offdiagdiagonal of C(T)*S*C for irrep
                     4
  2.065014825802791E-014 -3.235590632278628E-014
 
 sum over diagonal and offdiagdiagonal of C(T)*S*C for irrep
                     5
  1.045830089196897E-013  8.082885193524094E-015
 reorthoganalization of MOs is carried out
 sum over diagonal and offdiagdiagonal of C(T)*S*C for irrep
                     5
  1.998401444325282E-015 -6.788679182919647E-015
 
 sum over diagonal and offdiagdiagonal of C(T)*S*C for irrep
                     6
  2.653433028854124E-014  9.740050333769130E-015
 reorthoganalization of MOs is carried out
 sum over diagonal and offdiagdiagonal of C(T)*S*C for irrep
                     6
  2.109423746787797E-015  5.067410603901765E-015
 
 sum over diagonal and offdiagdiagonal of C(T)*S*C for irrep
                     7
 -6.494804694057166E-014 -1.278244934847417E-015
 reorthoganalization of MOs is carried out
 sum over diagonal and offdiagdiagonal of C(T)*S*C for irrep
                     7
 -7.771561172376096E-016  1.324905440589068E-015
 
 sum over diagonal and offdiagdiagonal of C(T)*S*C for irrep
                     8
  1.354472090042691E-014 -5.707791947563040E-015
 reorthoganalization of MOs is carried out
 sum over diagonal and offdiagdiagonal of C(T)*S*C for irrep
                     8
 -3.330669073875470E-016 -2.463377125036525E-016
  processed                 150245  ao basis integrals from 
                   251  buffers.
  processed                 579988  ao basis integrals from 
                   967  buffers.
  processed                1041817  ao basis integrals from 
                  1737  buffers.
       5          -139.263820195636924              0.2123526050D+02
   current occupation vector 
     4  2  3  1  1  0  1  0
     4  2  3  1  1  0  1  0
  processed                 150245  ao basis integrals from 
                   251  buffers.
  processed                 579988  ao basis integrals from 
                   967  buffers.
  processed                1041817  ao basis integrals from 
                  1737  buffers.
       6          -149.399587334578882              0.9362427495D+00
   current occupation vector 
     5  2  2  1  1  0  1  0
     5  2  2  1  1  0  1  0
  processed                 150245  ao basis integrals from 
                   251  buffers.
  processed                 579988  ao basis integrals from 
                   967  buffers.
  processed                1041817  ao basis integrals from 
                  1737  buffers.
       7          -151.137659366613832              0.4031243455D+00
   current occupation vector 
     5  3  2  1  1  0  0  0
     5  3  2  1  1  0  0  0
  processed                 150245  ao basis integrals from 
                   251  buffers.
  processed                 579988  ao basis integrals from 
                   967  buffers.
  processed                1041817  ao basis integrals from 
                  1737  buffers.
       8          -151.193613508389035              0.6053208014D-01
   current occupation vector 
     5  3  2  1  1  0  0  0
     5  3  2  1  1  0  0  0
  processed                 150245  ao basis integrals from 
                   251  buffers.
  processed                 579988  ao basis integrals from 
                   967  buffers.
  processed                1041817  ao basis integrals from 
                  1737  buffers.
       9          -151.197715410112266              0.2462555268D-01
   current occupation vector 
     5  3  2  1  1  0  0  0
     5  3  2  1  1  0  0  0
 
 sum over diagonal and offdiagdiagonal of C(T)*S*C for irrep
                     1
  3.138156401405467E-012 -2.311590377820722E-012
 reorthoganalization of MOs is carried out
 sum over diagonal and offdiagdiagonal of C(T)*S*C for irrep
                     1
 -5.661027202563673E-013  2.300717799608028E-013
 
 sum over diagonal and offdiagdiagonal of C(T)*S*C for irrep
                     2
 -6.123213047715126E-012  4.566342137885644E-012
 reorthoganalization of MOs is carried out
 sum over diagonal and offdiagdiagonal of C(T)*S*C for irrep
                     2
 -3.270717030545711E-013 -3.184546485502064E-013
 
 sum over diagonal and offdiagdiagonal of C(T)*S*C for irrep
                     3
 -1.152411499560912E-012  1.152984368362303E-012
 reorthoganalization of MOs is carried out
 sum over diagonal and offdiagdiagonal of C(T)*S*C for irrep
                     3
 -9.126033262418787E-014 -3.927024722537439E-014
 
 sum over diagonal and offdiagdiagonal of C(T)*S*C for irrep
                     4
  1.291300399941520E-012 -1.054030452594216E-012
 reorthoganalization of MOs is carried out
 sum over diagonal and offdiagdiagonal of C(T)*S*C for irrep
                     4
  3.386180225106727E-014 -4.913210717068904E-014
 
 sum over diagonal and offdiagdiagonal of C(T)*S*C for irrep
                     5
  1.172395514004165E-013 -7.464388803777285E-014
 reorthoganalization of MOs is carried out
 sum over diagonal and offdiagdiagonal of C(T)*S*C for irrep
                     5
 -1.110223024625157E-016  3.987677863168768E-015
 
 sum over diagonal and offdiagdiagonal of C(T)*S*C for irrep
                     6
  3.297362383136715E-014  1.891931660549469E-014
 reorthoganalization of MOs is carried out
 sum over diagonal and offdiagdiagonal of C(T)*S*C for irrep
                     6
 -6.661338147750939E-016 -1.546306899387246E-016
 
 sum over diagonal and offdiagdiagonal of C(T)*S*C for irrep
                     7
 -3.608224830031759E-014 -3.990361490193580E-014
 reorthoganalization of MOs is carried out
 sum over diagonal and offdiagdiagonal of C(T)*S*C for irrep
                     7
 -1.110223024625157E-015 -3.167544826275691E-016
 
 sum over diagonal and offdiagdiagonal of C(T)*S*C for irrep
                     8
  5.329070518200751E-015  8.918241060442588E-015
 reorthoganalization of MOs is carried out
 sum over diagonal and offdiagdiagonal of C(T)*S*C for irrep
                     8
  2.220446049250313E-016 -7.133873038967048E-016
  processed                 150245  ao basis integrals from 
                   251  buffers.
  processed                 579988  ao basis integrals from 
                   967  buffers.
  processed                1041817  ao basis integrals from 
                  1737  buffers.
      10          -151.198073632996625              0.9227781369D-02
   current occupation vector 
     5  3  2  1  1  0  0  0
     5  3  2  1  1  0  0  0
  processed                 150245  ao basis integrals from 
                   251  buffers.
  processed                 579988  ao basis integrals from 
                   967  buffers.
  processed                1041817  ao basis integrals from 
                  1737  buffers.
      11          -151.198089954025022              0.2472022244D-02
   current occupation vector 
     5  3  2  1  1  0  0  0
     5  3  2  1  1  0  0  0
  processed                 150245  ao basis integrals from 
                   251  buffers.
  processed                 579988  ao basis integrals from 
                   967  buffers.
  processed                1041817  ao basis integrals from 
                  1737  buffers.
      12          -151.198090275290895              0.3524093677D-03
   current occupation vector 
     5  3  2  1  1  0  0  0
     5  3  2  1  1  0  0  0
  processed                 150245  ao basis integrals from 
                   251  buffers.
  processed                 579988  ao basis integrals from 
                   967  buffers.
  processed                1041817  ao basis integrals from 
                  1737  buffers.
      13          -151.198090299504429              0.6159294321D-04
   current occupation vector 
     5  3  2  1  1  0  0  0
     5  3  2  1  1  0  0  0
  processed                 150245  ao basis integrals from 
                   251  buffers.
  processed                 579988  ao basis integrals from 
                   967  buffers.
  processed                1041817  ao basis integrals from 
                  1737  buffers.
      14          -151.198090300106458              0.1349139507D-04
   current occupation vector 
     5  3  2  1  1  0  0  0
     5  3  2  1  1  0  0  0
 
 sum over diagonal and offdiagdiagonal of C(T)*S*C for irrep
                     1
  2.616462602134106E-012 -2.094983739099395E-012
 reorthoganalization of MOs is carried out
 sum over diagonal and offdiagdiagonal of C(T)*S*C for irrep
                     1
  5.817568649035820E-014  2.856383990893362E-014
 
 sum over diagonal and offdiagdiagonal of C(T)*S*C for irrep
                     2
 -6.093237026050247E-012  4.060014753431425E-012
 reorthoganalization of MOs is carried out
 sum over diagonal and offdiagdiagonal of C(T)*S*C for irrep
                     2
 -2.904343432419410E-013  1.933345202863124E-013
 
 sum over diagonal and offdiagdiagonal of C(T)*S*C for irrep
                     3
 -1.205480160137995E-012  1.056192655258009E-012
 reorthoganalization of MOs is carried out
 sum over diagonal and offdiagdiagonal of C(T)*S*C for irrep
                     3
 -3.208544541166702E-014  1.054555767669200E-013
 
 sum over diagonal and offdiagdiagonal of C(T)*S*C for irrep
                     4
  1.318611886347298E-012 -1.103357179429019E-012
 reorthoganalization of MOs is carried out
 sum over diagonal and offdiagdiagonal of C(T)*S*C for irrep
                     4
  1.365574320288943E-014  3.782541799088220E-014
 
 sum over diagonal and offdiagdiagonal of C(T)*S*C for irrep
                     5
  1.105782132526656E-013 -7.406775124944193E-014
 reorthoganalization of MOs is carried out
 sum over diagonal and offdiagdiagonal of C(T)*S*C for irrep
                     5
 -3.330669073875470E-016 -3.659635579413161E-015
 
 sum over diagonal and offdiagdiagonal of C(T)*S*C for irrep
                     6
  1.942890293094024E-014  1.447657967786580E-014
 reorthoganalization of MOs is carried out
 sum over diagonal and offdiagdiagonal of C(T)*S*C for irrep
                     6
 -1.110223024625157E-015 -2.058632811078720E-015
 
 sum over diagonal and offdiagdiagonal of C(T)*S*C for irrep
                     7
 -5.306866057708248E-014 -4.790481237591667E-014
 reorthoganalization of MOs is carried out
 sum over diagonal and offdiagdiagonal of C(T)*S*C for irrep
                     7
 -4.440892098500626E-016  7.647853184190086E-016
 
 sum over diagonal and offdiagdiagonal of C(T)*S*C for irrep
                     8
  8.215650382226158E-015  3.250389056361817E-015
 reorthoganalization of MOs is carried out
 sum over diagonal and offdiagdiagonal of C(T)*S*C for irrep
                     8
 -1.110223024625157E-015 -5.972780850877507E-016
  processed                 150245  ao basis integrals from 
                   251  buffers.
  processed                 579988  ao basis integrals from 
                   967  buffers.
  processed                1041817  ao basis integrals from 
                  1737  buffers.
      15          -151.198090300128740              0.3692140347D-05
   current occupation vector 
     5  3  2  1  1  0  0  0
     5  3  2  1  1  0  0  0
  processed                 150245  ao basis integrals from 
                   251  buffers.
  processed                 579988  ao basis integrals from 
                   967  buffers.
  processed                1041817  ao basis integrals from 
                  1737  buffers.
      16          -151.198090300129365              0.2423944765D-06
   current occupation vector 
     5  3  2  1  1  0  0  0
     5  3  2  1  1  0  0  0
  processed                 150245  ao basis integrals from 
                   251  buffers.
  processed                 579988  ao basis integrals from 
                   967  buffers.
  processed                1041817  ao basis integrals from 
                  1737  buffers.
      17          -151.198090300129479              0.5968461760D-07
   current occupation vector 
     5  3  2  1  1  0  0  0
     5  3  2  1  1  0  0  0
  processed                 150245  ao basis integrals from 
                   251  buffers.
  processed                 579988  ao basis integrals from 
                   967  buffers.
  processed                1041817  ao basis integrals from 
                  1737  buffers.
      18          -151.198090300128854              0.2123134202D-07
   current occupation vector 
     5  3  2  1  1  0  0  0
     5  3  2  1  1  0  0  0
  processed                 150245  ao basis integrals from 
                   251  buffers.
  processed                 579988  ao basis integrals from 
                   967  buffers.
  processed                1041817  ao basis integrals from 
                  1737  buffers.
      19          -151.198090300129309              0.6604684938D-08
   current occupation vector 
     5  3  2  1  1  0  0  0
     5  3  2  1  1  0  0  0
 
 sum over diagonal and offdiagdiagonal of C(T)*S*C for irrep
                     1
  2.601030502091817E-012 -2.024137633651984E-012
 reorthoganalization of MOs is carried out
 sum over diagonal and offdiagdiagonal of C(T)*S*C for irrep
                     1
 -1.291189377639057E-013  2.250240192558148E-013
 
 sum over diagonal and offdiagdiagonal of C(T)*S*C for irrep
                     2
 -6.578626532416365E-012  4.235459699615297E-012
 reorthoganalization of MOs is carried out
 sum over diagonal and offdiagdiagonal of C(T)*S*C for irrep
                     2
  9.292566716112560E-014  1.994383266832807E-013
 
 sum over diagonal and offdiagdiagonal of C(T)*S*C for irrep
                     3
 -1.107669511668519E-012  9.839420229158160E-013
 reorthoganalization of MOs is carried out
 sum over diagonal and offdiagdiagonal of C(T)*S*C for irrep
                     3
 -1.139088823265411E-013  1.975558923206928E-013
 
 sum over diagonal and offdiagdiagonal of C(T)*S*C for irrep
                     4
  1.263655846628353E-012 -1.050307657548712E-012
 reorthoganalization of MOs is carried out
 sum over diagonal and offdiagdiagonal of C(T)*S*C for irrep
                     4
  7.804867863114850E-014 -4.429802532643413E-014
 
 sum over diagonal and offdiagdiagonal of C(T)*S*C for irrep
                     5
  9.692247004977617E-014 -7.911020540289322E-014
 reorthoganalization of MOs is carried out
[...]
  Largest element of DIIS residual   : -0.48878742E-07.
  W(mnij) AB contribution =  0.1014752028 a.u.
  W(abef) AB contribution =  0.1437104259 a.u.
  W(mbej) AB contribution = -0.3350716986 a.u.
   After  19 iterations, amplitude changes are:
    -------------------------------------------------------------------
                 Spin      RMS          Max.      Max. change for
     Amplitude   Case     Change       Change       i    j    a    b
    -------------------------------------------------------------------
        T1        AA    0.0000000001 0.0000000122    8        82
        T2        AA    0.0000000000 0.0000000097    5    2   95   82
        T2        AB    0.0000000000-0.0000000336    5    5   95   95
    -------------------------------------------------------------------
   The AA contribution to the correlation energy is:   -0.0608514 a.u.
   The AB contribution to the correlation energy is:   -0.4338021 a.u.
   The total correlation energy is -0.555504977614 a.u.
   The total correlation energy is -0.555504977614 a.u.
  Current DIIS expansion coefficients : 
 [   1] 0.1544925912 [   2]-0.3109746493 [   3]-0.3569849734 [   4] 1.5176364171
 [   5]-0.0041693855
  Convergence information after    19 iterations: 
  Largest element of residual vector : -0.33591909E-07.
  Largest element of DIIS residual   :  0.15432407E-07.
  W(mnij) AB contribution =  0.1014752040 a.u.
  W(abef) AB contribution =  0.1437104263 a.u.
  W(mbej) AB contribution = -0.3350717018 a.u.
   After  20 iterations, amplitude changes are:
    -------------------------------------------------------------------
                 Spin      RMS          Max.      Max. change for
     Amplitude   Case     Change       Change       i    j    a    b
    -------------------------------------------------------------------
        T1        AA    0.0000000001 0.0000000058    6        50
        T2        AA    0.0000000000 0.0000000043    5    3   95   82
        T2        AB    0.0000000000-0.0000000174    5    5   95   95
    -------------------------------------------------------------------
   The AA contribution to the correlation energy is:   -0.0608514 a.u.
   The AB contribution to the correlation energy is:   -0.4338021 a.u.
   The total correlation energy is -0.555504978564 a.u.
   The total correlation energy is -0.555504978564 a.u.
  Current DIIS expansion coefficients : 
 [   1] 0.0301029690 [   2] 0.0636188432 [   3]-0.3148254034 [   4]-0.0397458318
 [   5] 1.2608494231
  Convergence information after    20 iterations: 
  Largest element of residual vector : -0.17437353E-07.
  Largest element of DIIS residual   : -0.93110070E-08.
   Largest T1 amplitudes for spin case AA:
   i       a                 i       a                 i       a    
-----------------------------------------------------------------------------
[  6      50    ] 0.02348 [  8      83    ] 0.02156 [  3      11    ] 0.01575
[  2      12    ] 0.01467 [  8      87    ] 0.01444 [  2      13    ] 0.01433
[  3      13    ] 0.01427 [  8      85    ] 0.01266 [  7      71    ] 0.01173
[  3      12    ] 0.01131 [  7      70    ] 0.00903 [  2      10    ] 0.00737
[  4      35    ] 0.00713 [  7      74    ] 0.00708 [  3      19    ] 0.00611
-----------------------------------------------------------------------------
   Norm of T1AA vector (      150 symmetry allowed elements):  0.0588396978.
-----------------------------------------------------------------------------
   Largest T2 amplitudes for spin case AB:
       _       _                 _       _                 _       _
   i   j   a   b             i   j   a   b             i   j   a   b
-----------------------------------------------------------------------------
[  3   3  50  50]-0.08127 [  8   8 105 105]-0.05854 [  5   5  95  95]-0.05831
[  8   8  95  95]-0.05591 [  3   3 105 105]-0.05234 [  8   3 105  50] 0.04560
[  3   8  50 105] 0.04560 [  7   7  50  50]-0.04142 [  2   2  95  95]-0.04078
[  8   7  95  50]-0.03481 [  7   8  50  95]-0.03481 [  5   2  82  95]-0.03247
[  2   5  95  82]-0.03247 [  6   6 105 105]-0.03077 [  5   2  95  82]-0.02980
-----------------------------------------------------------------------------
   Norm of T2AB vector (   106232 symmetry allowed elements):  0.4456331753.
-----------------------------------------------------------------------------
  W(mnij) AB contribution =  0.1014752050 a.u.
  W(abef) AB contribution =  0.1437104272 a.u.
  W(mbej) AB contribution = -0.3350717050 a.u.
   After  21 iterations, amplitude changes are:
    -------------------------------------------------------------------
                 Spin      RMS          Max.      Max. change for
     Amplitude   Case     Change       Change       i    j    a    b
    -------------------------------------------------------------------
        T1        AA    0.0000000000 0.0000000030    6        50
        T2        AA    0.0000000000 0.0000000016    5    3   95   82
        T2        AB    0.0000000000-0.0000000043    3    3  105  105
    -------------------------------------------------------------------
   The AA contribution to the correlation energy is:   -0.0608514 a.u.
   The AB contribution to the correlation energy is:   -0.4338021 a.u.
   The total correlation energy is -0.555504979099 a.u.
   The total correlation energy is -0.555504979099 a.u.
  Current DIIS expansion coefficients : 
 [   1] 1.0771288382 [   2] 0.0246638220 [   3]-0.0177257891 [   4]-0.0817543105
 [   5]-0.0023125606
  Convergence information after    21 iterations: 
  Largest element of residual vector : -0.43417145E-08.
  Largest element of DIIS residual   : -0.41003865E-08.
  W(mnij) AB contribution =  0.1014752056 a.u.
  W(abef) AB contribution =  0.1437104279 a.u.
  W(mbej) AB contribution = -0.3350717075 a.u.
   After  22 iterations, amplitude changes are:
    -------------------------------------------------------------------
                 Spin      RMS          Max.      Max. change for
     Amplitude   Case     Change       Change       i    j    a    b
    -------------------------------------------------------------------
        T1        AA    0.0000000000 0.0000000017    6        50
        T2        AA    0.0000000000 0.0000000007    5    3   95   82
        T2        AB    0.0000000000-0.0000000038    5    5   95   95
    -------------------------------------------------------------------
   The AA contribution to the correlation energy is:   -0.0608514 a.u.
   The AB contribution to the correlation energy is:   -0.4338021 a.u.
   The total correlation energy is -0.555504979204 a.u.
   The total correlation energy is -0.555504979204 a.u.
  Current DIIS expansion coefficients : 
 [   1]-0.3330605561 [   2] 1.5006482612 [   3]-0.0097884305 [   4] 0.0875953966
 [   5]-0.2453946712
  Convergence information after    22 iterations: 
  Largest element of residual vector : -0.38239054E-08.
  Largest element of DIIS residual   : -0.21123356E-08.
  W(mnij) AB contribution =  0.1014752063 a.u.
  W(abef) AB contribution =  0.1437104285 a.u.
  W(mbej) AB contribution = -0.3350717099 a.u.
   After  23 iterations, amplitude changes are:
    -------------------------------------------------------------------
                 Spin      RMS          Max.      Max. change for
     Amplitude   Case     Change       Change       i    j    a    b
    -------------------------------------------------------------------
        T1        AA    0.0000000000-0.0000000009    8        82
        T2        AA    0.0000000000-0.0000000001    5    2   95   82
        T2        AB    0.0000000000-0.0000000014    5    5   95   95
    -------------------------------------------------------------------
   The AA contribution to the correlation energy is:   -0.0608514 a.u.
   The AB contribution to the correlation energy is:   -0.4338021 a.u.
   The total correlation energy is -0.555504979487 a.u.
   The total correlation energy is -0.555504979487 a.u.
  Current DIIS expansion coefficients : 
 [   1]-0.1049630355 [   2]-0.0898692989 [   3] 1.1809800462 [   4] 0.0174619152
 [   5]-0.0036096269
  Convergence information after    23 iterations: 
  Largest element of residual vector : -0.13961415E-08.
  Largest element of DIIS residual   : -0.13772236E-08.
  W(mnij) AB contribution =  0.1014752066 a.u.
  W(abef) AB contribution =  0.1437104289 a.u.
  W(mbej) AB contribution = -0.3350717112 a.u.
   After  24 iterations, amplitude changes are:
    -------------------------------------------------------------------
                 Spin      RMS          Max.      Max. change for
     Amplitude   Case     Change       Change       i    j    a    b
    -------------------------------------------------------------------
        T1        AA    0.0000000000 0.0000000002    3         9
        T2        AA    0.0000000000 0.0000000001    8    7   95   50
        T2        AB    0.0000000000-0.0000000009    5    5   95   95
    -------------------------------------------------------------------
   The AA contribution to the correlation energy is:   -0.0608514 a.u.
   The AB contribution to the correlation energy is:   -0.4338021 a.u.
   The total correlation energy is -0.555504979483 a.u.
   The total correlation energy is -0.555504979483 a.u.
  Current DIIS expansion coefficients : 
 [   1] 0.0312510455 [   2]-0.1136638682 [   3] 0.0106139198 [   4] 1.0672224678
 [   5] 0.0045764350
  Convergence information after    24 iterations: 
  Largest element of residual vector : -0.86671636E-09.
  Largest element of DIIS residual   : -0.71940840E-09.
  Amplitude equations converged in    24iterations.
   The AA contribution to the correlation energy is:   -0.0608514 a.u.
   The AB contribution to the correlation energy is:   -0.4338021 a.u.
   The total correlation energy is -0.555504979498 a.u.
   The total correlation energy is -0.555504979498 a.u.
   The CC iterations have converged.

   Largest T1 amplitudes for spin case AA:
   i       a                 i       a                 i       a    
-----------------------------------------------------------------------------
[  6      50    ] 0.02348 [  8      83    ] 0.02156 [  3      11    ] 0.01575
[  2      12    ] 0.01467 [  8      87    ] 0.01444 [  2      13    ] 0.01433
[  3      13    ] 0.01427 [  8      85    ] 0.01266 [  7      71    ] 0.01173
[  3      12    ] 0.01131 [  7      70    ] 0.00903 [  2      10    ] 0.00737
[  4      35    ] 0.00713 [  7      74    ] 0.00708 [  3      19    ] 0.00611
-----------------------------------------------------------------------------
   Norm of T1AA vector (      150 symmetry allowed elements):  0.0588397016.
-----------------------------------------------------------------------------
   Largest T2 amplitudes for spin case AB:
       _       _                 _       _                 _       _
   i   j   a   b             i   j   a   b             i   j   a   b
-----------------------------------------------------------------------------
[  3   3  50  50]-0.08127 [  8   8 105 105]-0.05854 [  5   5  95  95]-0.05831
[  8   8  95  95]-0.05591 [  3   3 105 105]-0.05234 [  8   3 105  50] 0.04560
[  3   8  50 105] 0.04560 [  7   7  50  50]-0.04142 [  2   2  95  95]-0.04078
[  8   7  95  50]-0.03481 [  7   8  50  95]-0.03481 [  5   2  82  95]-0.03247
[  2   5  95  82]-0.03247 [  6   6 105 105]-0.03077 [  5   2  95  82]-0.02980
-----------------------------------------------------------------------------
   Norm of T2AB vector (   106232 symmetry allowed elements):  0.4456331794.
-----------------------------------------------------------------------------
       Summary of iterative solution of CC equations 
      -----------------------------------------------------------
                       Correlation           Total
       Iteration         Energy              Energy
      -----------------------------------------------------------
            0        -0.544625760462    -151.742716060591  DIIS 
            1        -0.530295269408    -151.728385569537  DIIS 
            2        -0.553267040663    -151.751357340792  DIIS 
            3        -0.552188585599    -151.750278885728  DIIS 
            4        -0.555234177352    -151.753324477481  DIIS 
            5        -0.555476800449    -151.753567100578  DIIS 
            6        -0.555502075098    -151.753592375228  DIIS 
            7        -0.555504590982    -151.753594891112  DIIS 
            8        -0.555500652593    -151.753590952722  DIIS 
            9        -0.555502653743    -151.753592953873  DIIS 
           10        -0.555502912298    -151.753593212427  DIIS 
           11        -0.555504165217    -151.753594465347  DIIS 
           12        -0.555504462923    -151.753594763053  DIIS 
           13        -0.555504830245    -151.753595130374  DIIS 
           14        -0.555504923476    -151.753595223606  DIIS 
           15        -0.555504954440    -151.753595254570  DIIS 
           16        -0.555504980571    -151.753595280700  DIIS 
           17        -0.555504976653    -151.753595276783  DIIS 
           18        -0.555504978835    -151.753595278965  DIIS 
           19        -0.555504977614    -151.753595277744  DIIS 
           20        -0.555504978564    -151.753595278694  DIIS 
           21        -0.555504979099    -151.753595279229  DIIS 
           22        -0.555504979204    -151.753595279334  DIIS 
           23        -0.555504979487    -151.753595279616  DIIS 
           24        -0.555504979498    -151.753595279627  DIIS 
      -----------------------------------------------------------
      A miracle has come to pass. The CC iterations have converged.
 @DIMT3-I, Dimensions of T3 amplitudes : 
               # abc          # ijk       Symmetry    Spin 
                    29016              6     1          1
                    29049              9     2          1
                    29068             10     3          1
                    29156             10     4          1
                    27932              4     5          1
                    27859              7     6          1
                    27929              5     7          1
                    27911              5     8          1
                    89601             39     1          2
                    89145             41     2          2
                    89313             37     3          2
                    88911             37     4          2
                    85239             19     5          2
                    84687             21     6          2
                    84897             15     7          2
                    84399             15     8          2
                    89601             39     1          3
                    89145             41     2          3
                    89313             37     3          3
                    88911             37     4          3
                    85239             19     5          3
                    84687             21     6          3
                    84897             15     7          3
                    84399             15     8          3
                    29016              6     1          4
                    29049              9     2          4
                    29068             10     3          4
                    29156             10     4          4
                    27932              4     5          4
                    27859              7     6          4
                    27929              5     7          4
                    27911              5     8          4
 @DIMT3-I, Dimensions of T3 amplitudes : 
               # abc          # ijk       Symmetry    Spin 
                    29016              6     1          1
                    29049              9     2          1
                    29068             10     3          1
                    29156             10     4          1
                    27932              4     5          1
                    27859              7     6          1
                    27929              5     7          1
                    27911              5     8          1
                    89601             39     1          2
                    89145             41     2          2
                    89313             37     3          2
                    88911             37     4          2
                    85239             19     5          2
                    84687             21     6          2
                    84897             15     7          2
                    84399             15     8          2
                    89601             39     1          3
                    89145             41     2          3
                    89313             37     3          3
                    88911             37     4          3
                    85239             19     5          3
                    84687             21     6          3
                    84897             15     7          3
                    84399             15     8          3
                    29016              6     1          4
                    29049              9     2          4
                    29068             10     3          4
                    29156             10     4          4
                    27932              4     5          4
                    27859              7     6          4
                    27929              5     7          4
                    27911              5     8          4
 @TRPS-I, Welcome to TRPS. Watch your RUs ! 
 @TRPS-I, Method is CCSD(T) 
 @TRPS-I, Calculation type is energy 
 @TRPS-I, Reference function information : 
          Reference function is Hartree-Fock 
          Reference function is RHF Hartree-Fock 
 @TRPS-I, INT1 is true 
 @TRPS-I, INT2 is false 
 @TRPS-I, Lengths of ijka integrals. #1       3516
                                     #2       3516
                                     #3       8232
                                     #4       8232
                                    Max       8232
 @INITRP-I, Initializing W intermediate lists. 
 @SETOOOV-I, Some OOOV lists are being transposed. 
 @TRPS-I, Available memory in integer words   1499959040
          Number of pre-allocated words for TRPS2        63621
          Number of free words for TRPS2   1499895419
 @TRPS2-I, Spin case AAB 
 @TRPS2-I, Number of free integer words 1499895419
           Number of free double  words 1499895419
           Ratio                                 1
 @TRPS2-I, E4TBAA      -0.017989921845
  @TRPS2-I, E4TAAA  -1.045200608432890E-003
 @TRPS2-I, E5ST A    0.000271539964566
 @TRPS2-I, E5ST B    0.000203982246495
 @SETOOOV-I, Some OOOV lists are being transposed. 
 @CCENRG-I, CCSD/QCISD energy will now be evaluated. 
 @CCENRG-I, Correlation energies. ECCAA       -0.060851439977
                                  ECCBB        0.000000000000
                                  ECCAB       -0.433802099544
                                  Total       -0.555504979498
 @CCENRG-I, Reference   energy    -151.198090300129
            CCSD/QCISD energy     -151.753595279627
          E4T (T(CCSD)) = -0.038070244907
          E5ST          =  0.000951044422
          E4ST          =  0.000000000000
          In other words  
          <T3[2](Dagger) D3  T3[2]> = -0.038070244907
          <T1   (Dagger) Q1 WT3[2]> =  0.000951044422
          <T2   (Dagger) Q2 FT3[2]> =  0.000000000000
        E(CCSD)           =    -151.753595279627
        E(CCSD + T(CCSD)) =    -151.791665524534
        E(CCSD(T))        =    -151.790714480112
  @CHECKOUT-I, Total execution time (CPU/WALL):        6.76/       8.54 seconds.
--executable xvcc finished with status     0 in        8.71 seconds (walltime).
  The final electronic energy is      -151.790714480111916 a.u. 
  This computation required                          147.86 seconds (walltime).
