 --invoking executable--
/home/nike/cfour_v2.00beta/bin/xjoda


   *************************************************************************
         <<<     CCCCCC     CCCCCC   |||     CCCCCC     CCCCCC   >>>
       <<<      CCC        CCC       |||    CCC        CCC         >>>
      <<<      CCC        CCC        |||   CCC        CCC            >>>
    <<<        CCC        CCC        |||   CCC        CCC              >>>
      <<<      CCC        CCC        |||   CCC        CCC            >>>
       <<<      CCC        CCC       |||    CCC        CCC         >>>
         <<<     CCCCCC     CCCCCC   |||     CCCCCC     CCCCCC   >>>
   *************************************************************************

     ****************************************************************
     * CFOUR Coupled-Cluster techniques for Computational Chemistry *
     ****************************************************************
 

   Department of Chemistry                Institut fuer Physikalische Chemie
   University of Texas at Austin          Universitaet Mainz
   Austin, TX  78712, USA                 D-55099 Mainz, Germany
 
                       Version 2.00beta
 
                     wob144                                            
                     Fri Mar  9 16:48:42 EST 2018                      
                     integer*8 version is running
 
********************************************************************************
*                          Input from ZMAT file                                *
********************************************************************************
Li2                                                                             
Li                                                                              
Li 1 R                                                                          
                                                                                
R=3.065                                                                         
                                                                                
*ACES2(CALC=CCSD                                                                
INPUT_MRCC=OFF                                                                  
CC_PROG=MRCC                                                                    
SAVE_INTS=ON                                                                    
#SCF_EXPSTART=2                                                                 
#SCF_DAMPING=900                                                                
#SCF_EXTRAPOLATION=ON                                                           
XFORM_TOL=18                                                                    
SCF_CONV=9                                                                      
CC_CONV=10                                                                      
CC_MAXCYC=999                                                                   
SCF_MAXCYC=9999                                                                 
T3_EXTRAPOL=ON                                                                  
REFERENCE=ROHF                                                                  
MULT=3                                                                          
ABCDTYPE=STANDARD                                                               
OCCUPATION=3-0-0-0-1-0-0-0/1-0-0-0-1-0-0-0                                      
MEM=128                                                                         
MEM_UNIT=GB                                                                     
BASIS=SPECIAL)                                                                  
                                                                                
LI:aug-cc-pCVDZ                                                                 
LI:aug-cc-pCVDZ                                                                 
                                                                                
********************************************************************************
  @GTFLGS-W, Keyword #SCF_EXPSTART not known and is ignored.
  @GTFLGS-W, Keyword #SCF_DAMPING not known and is ignored.
  @GTFLGS-W, Keyword #SCF_EXTRAPOLATION not known and is ignored.
    -------------------------------------------------------------------
                    CFOUR Control Parameters 
    -------------------------------------------------------------------
        External           Internal           Value            Units
          Name               Name
    -------------------------------------------------------------------
       ABCDTYPE             IABCDT         STANDARD     [  0]   ***   
       ANHARMONIC           IANHAR         OFF          [  0]   ***   
       ANH_ALGORIT          IANALG         STANDARD     [  0]   ***   
       ANH_DERIVAT          IANDER         SECOND       [  1]   ***   
       ANH_STEPSIZ          ICUBST             50000          x 10-6  
       ANH_SYMMETR          IANHSM         ABELIAN      [  0]   ***   
       AO_LADDERS           IAOLAD         SINGLEPASS   [  1]   ***   
       BASIS                IBASIS         SPECIAL      [  0]   ***   
       BREIT                IBREIT         OFF          [  0]   ***   
       BRUCK_CONV           IBRTOL          10D-  4             ***   
       BRUECKNER            IBRKNR             OFF      [  0]   ***   
       BUFFERSIZE           IBUFFS            600               ***   
       CACHE_RECS           ICHREC             10               ***   
       CALCLEVEL            ICLLVL           CCSD       [ 10]   ***   
       CCORBOPT             ICCORB             OFF      [  0] x 0.01  
       CC_CONV              ICCCNV          10D- 10             ***   
       CC_EXPORDER          ICCEOR              5               ***   
       CC_EXTRAPOL          ICCEXT             DIIS     [  1]   ***   
       CC_MAXCYC            ICCCYC            999              cycles 
       CC_PROGRAM           ICCPRO         MRCC         [  2]   ***   
       CHARGE               ICHRGE              0               ***   
       CHOLESKY             ICHOLE         OFF          [  0]   ***   
       CIS_CONV             ICISTL              5               ***   
       COMM_SIZE            IPSIZE            ***               ***   
       CONSTANT             ICONST         OLD          [  1]   ***   
       CONTINUUM            ICONTU         NONE         [  0]   ***   
       CONTRACTION          ICNTYP          GENERAL     [  1]   ***   
       COORDINATES          ICOORD         INTERNAL     [  0]   ***   
       CPHF_CONVER          ICPHFT          10D- 16             ***   
       CPHF_MAXCYC          ICPHFC             64              cycles 
       CUBIC                ICUBIC         OFF          [  0]   ***   
       CURVILINEAR          ICURVY            OFF       [  0]   ***   
       DBOC                 IDBOC          OFF          [  0]   ***   
       DCT                  IDCT           OFF          [  0]   ***   
       DERIV_LEV            IDRLVL            ZERO      [  0]   ***   
       DIAG_MRCC            IEOMST          10D-  0             ***   
       DIFF_TYPE            IDIFTY         RELAXED      [  0]   ***   
       DIRECT               IDIRCT         OFF          [  0]   ***   
       DROPMO               IDRPMO      NONE         
       ECP                  IECP           OFF          [  0]   ***   
       EIGENVECTOR          IVEC                1               ***   
       EL_ANHARM            IELANH         OFF          [  0]   ***   
       EOMFOLLOW            IEOMSR         ENERGY       [  0]   ***   
       EOM_MRCC             IMRCCE         NEW          [  1]   ***   
       EOM_NONIT            EOMNON         OFF          [  0]   ***   
       EOM_NSING            IEOMSI          10D-  0             ***   
       EOM_NSTATES          IMRCCD         DAVIDSON     [  0]   ***   
       EOM_NTRIP            IEOMTR          10D-  0             ***   
       EOM_ORDER            IEXORD         ENERGY       [  0]   ***   
       ESTATE_CONV          IEXTOL          10D-  5             ***   
       ESTATE_DIAG          IEXDIG         ITERATIVE    [  0]   ***   
       ESTATE_LOCK          IESLOC         ON           [  1]   ***   
       ESTATE_MAXC          IEXMXC             20               ***   
       ESTATE_PROP          IEXPRP         OFF          [  0]   ***   
       EVAL_HESS            IRECAL              0            # of cyc.
       EXCITATION           IEXCIT              0               ***   
       EXCITE               IEXCIT         NONE         [  0]   ***   
       FCGRADNEW            IFCGNW         OFF          [  0]   ***   
       FC_FIELD             IFINFC              0             x 10-6  
       FD_CALTYPE           IFDCAL         GRADONLY     [  0]   ***   
       FD_PROJECT           IFDPRJ         OFF          [  1]   ***   
       FD_STEPSIZE          IDISFD              0            10-4 bohr
       FD_USEGROUP          IFDGRP         FULL         [  0]   ***   
       FILE_RECSIZ          IFLREC              4096           words  
       FINITE_PERT          IFIPER              0             x 10-6  
       FIXGEOM              IFIXGM         OFF          [  0]   ***   
       FOCK                 IFOCK          AO           [  1]   ***   
       FREQ_ALGORI          IVIALG         STANDARD     [  0]   ***   
       FROZEN_CORE          IFROCO         OFF          [  0]   ***   
       FROZEN_VIRT          IFROVI         OFF          [  0]   ***   
       GAMMA_ABCD           IGABCD         STORE        [  0]   ***   
       GAMMA_ABCI           IGABCI         STORE        [  0]   ***   
       GENBAS_1             IGNBS1              0               ***   
       GENBAS_2             IGNBS2              0               ***   
       GENBAS_3             IGNBS3              0               ***   
       GENBAS_4             IGNBS4              0               ***   
       GEO_CONV             ICONTL              5              H/bohr 
       GEO_MAXCYC           IOPTCY             50               ***   
       GEO_MAXSTEP          IMXSTP            300            millibohr
       GEO_METHOD           INR            SINGLE_POINT [  5]   ***   
       GIAO                 IGIAO          OFF          [  1]   ***   
       GIMIC                IGIMIC         OFF          [  0]   ***   
       GRID                 IGRID          OFF          [  0]   ***   
       GRID_ALGO            IGALGO         SERIAL       [  0]   ***   
       GUESS                IGUESS            MOREAD    [  0]   ***   
       HBAR                 IHBAR              OFF      [  0]   ***   
       HESS_TYPE            IHESTP         SCF          [  0]   ***   
       HF2_FILE             IHF2Fl         USE          [  1]   ***   
       HFSTABILITY          ISTABL         OFF          [  0]   ***   
       INCORE               INCORE             OFF      [  0]   ***   
       INPUT_MRCC           IMRCC          OFF          [  0]   ***   
       INTEGRALS            INTTYP             VMOL     [  1]   ***   
       JODA_PRINT           IJPRNT              0               ***   
       LINDEP_TOL           ILINDP              8               ***   
       LINEQ_CONV           IZTACN          10D-  7           cycles  
       LINEQ_EXPOR          ILMAXD              5               ***   
       LINEQ_MAXCY          ILMAXC             50               ***   
       LINEQ_TYPE           ILTYPE         DIIS         [  1]   ***   
       LOCK_ORBOCC          ILOCOC             OFF      [  0]   ***   
       MEMORY_SIZE          IMEMSZ         *********           words  
       MEM_UNIT             IMEMU          GB           [  3]   ***   
       MRCC                 IMRCCC         OFF          [  0]   ***   
       MULTIPLICTY          IMULTP              3               ***   
       NEGEVAL              IDIE             ABORT      [  0]   ***   
       NEWNORM              INEWNO         OFF          [  0]   ***   
       NON-HF               INONHF              ON      [  1]   ***   
       NTOP_TAMP            ITOPT2             15               ***   
       NUC_MODEL            INUCMO         POINT        [  0]   ***   
       OCCUPATION           IOCCU  A   3,  0,  0,  0,  1,  0,  0,  0,
                                   B   1,  0,  0,  0,  1,  0,  0,  0,
       OPEN-SHELL           IOPEN          SPIN-ORBITAL [  0]   ***   
       ORBITALS             IORBTP         SEMICANONICAL[  1]   ***   
       PARALLEL             IPARAL         ON           [  1]   ***   
       PARA_INT             IPINTS         ON           [  1]   ***   
       PARA_PRINT           IPPRIN              0               ***   
       PERT_ORB             IPTORB         STANDARD     [  0]   ***   
       POINTS               IGRDFD              0               ***   
       PRINT                IPRNT               0               ***   
       PROPS                IPROPS             OFF      [  0]   ***   
       PROP_INTEGR          IINTYP         INTERNAL     [  0]   ***   
       PSI                  IPSI           OFF          [  0]   ***   
       QUARTIC              IQUART         OFF          [  0]   ***   
       RAMAN_INT            IRAMIN         OFF          [  0]   ***   
       RAMAN_ORB            IRAMRE         UNRELAXED    [  0]   ***   
       RDO                  IRDOFM             OFF      [  0]   ***   
       REFERENCE            IREFNC             ROHF     [  2]   ***   
       RELATIVIST           IRELAT         OFF          [  0]   ***   
       RELAX_DENS           IRDENS             OFF      [  0]   ***   
       RESET_FLAGS          IRESET             OFF      [  0]   ***   
       RESTART_CC           ICCRES         OFF          [  0]   ***   
       ROT_EVEC             ROTVEC              0               ***   
       SAVE_INTS            ISVINT              ON      [  1]   ***   
       SCALE_ON             ISTCRT              0               ***   
       SCF_CONV             ISCFCV          10D-  9             ***   
       SCF_DAMPING          IDAMP               0             x 10-3  
       SCF_EXPORDE          IRPPOR              6               ***   
       SCF_EXPSTAR          IRPPLS              8               ***   
       SCF_EXTRAPO          IRPP                ON      [  1]   ***   
       SCF_MAXCYC           ISCFCY            ***              cycles 
       SCF_NOSTOP           ISCFST         OFF          [  0]   ***   
       SCF_PRINT            ISCFPR              0               ***   
       SD_FIELD             IFINSD              0             x 10-6  
       SEQUENCE             ISEQUE         OFF          [  0]   ***   
       SOPERT               IPERSO         OFF          [  0]   ***   
       SPHERICAL            IDFGHI             ON       [  1]   ***   
       SPINORBIT            ISOCAL         OFF          [  0]   ***   
       SPINROTATIO          ISRCON         OFF          [  0]   ***   
       SPIN_FLIP            ISPFLP         OFF          [  0]   ***   
       SPIN_ORBIT           ISPORB         OFF          [  0]   ***   
       SPIN_SCAL            ISCSMP         OFF          [  0]   ***   
       SUBGROUP             ISUBGP         DEFAULT      [  0]   ***   
       SUBGRPAXIS           ISBXYZ         X            [  0]   ***   
       SYMMETRY             ISYM             ON         [  0]   ***   
       SYM_CHECK            ISYMCK         OVERRIDE     [  1]   ***   
       T3_EXTRAPOL          IT3EXT         ON           [  1]   ***   
       TAMP_SUM             IEVERY              5               ***   
       TESTSUITE            ITESTS         OFF          [  0]   ***   
       THERMOCH             ITHERM         OFF          [  0]   ***   
       TOL_CHOLESK          ITOLCH          10D-  4             ***   
       TRANGRAD             IRESRM         OFF          [  0]   ***   
       TRANS_INV            ITRAIN         USE          [  0]   ***   
       TREAT_PERT           ITREAT         SIMULTANEOUS [  0]   ***   
       UIJ_THRESHO          IUIJTH              1               ***   
       UNITS                IUNITS         ANGSTROM     [  0]   ***   
       UNOS                 IUNOS          OFF          [  0]   ***   
       UPDATE_HESS          IHUPDT         ON           [  1]   ***   
       VIBPHASE             ISETPH         STANDARD     [  0]   ***   
       VIBRATION            IVIB              NO        [  0]   ***   
       VIB_ALGORIT          IGEALG         STANDARD     [  0]   ***   
       VNATORB              IVNORB         OFF          [  0]   ***   
       VTRAN                IVTRAN         FULL/PARTIAL [  0]   ***   
       XFIELD               IXEFLD              0             x 10-6  
       XFORM_TOL            IXFTOL          10D- 18             ***   
       YFIELD               IYEFLD              0             x 10-6  
       ZFIELD               IZEFLD              0             x 10-6  
    -------------------------------------------------------------------
   2 entries found in Z-matrix 
   Job Title : Li2                                                                             
   There are  1 unique internal coordinates.
   Of these,  0 will be optimized.
   User supplied Z-matrix: 
--------------------------------------------------------------------------------
       SYMBOL    BOND      LENGTH    ANGLE     ANGLE     DIHED     ANGLE
                  TO      (ANGST)    WRT      (DEG)      WRT      (DEG)
--------------------------------------------------------------------------------
        Li   
        Li         1         R    
                  *Initial values for internal coordinates* 
                      Name             Value
                        R               3.0650000000
--------------------------------------------------------------------------------
  1  LI         3     7.01600
  2  LI         3     7.01600
 factor:   60.1997200000000     
   Rotational constants (in cm-1): 
          0.5115355570             0.5115355570
   Rotational constants (in MHz): 
      15335.4523476713         15335.4523476713
********************************************************************************
   The full molecular point group is DXh .
   The largest Abelian subgroup of the full molecular point group is D2h .
   The computational point group is D2h .
********************************************************************************
--------------------------------------------------------------------------------
   Analysis of internal coordinates specified by Z-matrix 
--------------------------------------------------------------------------------
   *The nuclear repulsion energy is    1.553864241435563 a.u.
   *There is   1 degree of freedom within the tot. symm. molecular subspace.
   *Z-matrix requests optimization of   0 coordinates.
   *The optimization is constrained.
   *The following   1 parameters can have non-zero 
    derivatives within the totally symmetric subspace:
             R    [ 1]
   *The following   0 parameters are to be optimized:

   *The following coordinates must be varied in an  unconstrained optimization.
             R    [ 1]
--------------------------------------------------------------------------------
 ----------------------------------------------------------------
 Z-matrix   Atomic            Coordinates (in bohr)
  Symbol    Number           X              Y              Z
 ----------------------------------------------------------------
     LI        3         0.00000000     0.00000000     2.89600589
     LI        3         0.00000000     0.00000000    -2.89600589
 ----------------------------------------------------------------
   Interatomic distance matrix (Angstroms) 
 
                 LI            LI   
                [ 1]        [ 2]
  LI   [ 1]     0.00000
  LI   [ 2]     3.06500     0.00000
   Rotational constants (in cm-1): 
          0.5115355570             0.0000000000
   Rotational constants (in MHz): 
      15335.4523476713             0.0000000000
  @GTFLGS-W, Keyword #SCF_EXPSTART not known and is ignored.
  @GTFLGS-W, Keyword #SCF_DAMPING not known and is ignored.
  @GTFLGS-W, Keyword #SCF_EXTRAPOLATION not known and is ignored.
  There are   54 basis functions.
 @GEOPT-W, Archive file not created for single-point calculation.
  @CHECKOUT-I, Total execution time (CPU/WALL):        0.10/       1.48 seconds.
--executable xjoda finished with status     0 in        1.64 seconds (walltime).
 --invoking executable--
/home/nike/cfour_v2.00beta/bin/xvmol
 Serial version of molecule started
********************************************************************************
                    Input from MOL file
********************************************************************************
INTGRL        1    0    1    0    0    0    0    0    0                         
         *** CFOUR Program System (Release V0.1) ***                            
Li2                                                                             
    1    3 X  Y   Z   0.10E-08              0    0                              
   9999.00      3.00                                                            
          3.00000000    1    3    1    1    1                                   
LI#1   0.000000000000000   0.000000000000000   2.896005892923183                
   11    5                                                                      
   1469.00000000000       7.660000000000000E-004 -1.200000000000000E-004        
  0.000000000000000E+000  0.000000000000000E+000  0.000000000000000E+000        
   220.500000000000       5.892000000000000E-003 -9.230000000000000E-004        
  0.000000000000000E+000  0.000000000000000E+000  0.000000000000000E+000        
   50.2600000000000       2.967100000000000E-002 -4.689000000000000E-003        
  0.000000000000000E+000  0.000000000000000E+000  0.000000000000000E+000        
   14.2400000000000       0.109180000000000      -1.768200000000000E-002        
  0.000000000000000E+000  0.000000000000000E+000  0.000000000000000E+000        
   4.58100000000000       0.282789000000000      -4.890200000000000E-002        
  0.000000000000000E+000  0.000000000000000E+000  0.000000000000000E+000        
   1.58000000000000       0.453123000000000      -9.600900000000000E-002        
  0.000000000000000E+000  0.000000000000000E+000  0.000000000000000E+000        
  0.564000000000000       0.274774000000000      -0.136380000000000             
  0.000000000000000E+000  0.000000000000000E+000  0.000000000000000E+000        
  7.345000000000000E-002  9.750999999999999E-003  0.575102000000000             
  0.000000000000000E+000  0.000000000000000E+000  0.000000000000000E+000        
  2.805000000000000E-002 -3.180000000000000E-003  0.517661000000000             
   1.00000000000000       0.000000000000000E+000  0.000000000000000E+000        
  0.906000000000000       0.000000000000000E+000  0.000000000000000E+000        
  0.000000000000000E+000   1.00000000000000       0.000000000000000E+000        
  8.640000000000000E-003  0.000000000000000E+000  0.000000000000000E+000        
  0.000000000000000E+000  0.000000000000000E+000   1.00000000000000             
    6    4                                                                      
   1.53400000000000       2.278400000000000E-002  0.000000000000000E+000        
  0.000000000000000E+000  0.000000000000000E+000                                
  0.274900000000000       0.139107000000000       0.000000000000000E+000        
  0.000000000000000E+000  0.000000000000000E+000                                
  7.362000000000000E-002  0.500375000000000       0.000000000000000E+000        
  0.000000000000000E+000  0.000000000000000E+000                                
  2.403000000000000E-002  0.508474000000000        1.00000000000000             
  0.000000000000000E+000  0.000000000000000E+000                                
   3.24200000000000       0.000000000000000E+000  0.000000000000000E+000        
   1.00000000000000       0.000000000000000E+000                                
  5.790000000000000E-003  0.000000000000000E+000  0.000000000000000E+000        
  0.000000000000000E+000   1.00000000000000                                     
    2    2                                                                      
  0.123900000000000        1.00000000000000       0.000000000000000E+000        
  7.250000000000000E-002  0.000000000000000E+000   1.00000000000000             
FINISH                                                                          
 
********************************************************************************
 One- and two-electron integrals over symmetry-adapted AOs are calculated.

  Spherical harmonics are used.
  
  Integrals less than  0.10E-13 are neglected.

  Nuclear repulsion energy :    1.5538642414 a.u.
  required memory for a1 array                5112320  words 
  required memory for a2 array                2103164  words 
 @GETMEM-I,  Allocated      70 MB of main memory.
  @MOLECU-I, One electron integrals (CPU/WALL):        0.01/       0.47 seconds.
  @TWOEL-I,       6272 integrals of symmetry type  I I I I
  @TWOEL-I,      39195 integrals of symmetry type  I J I J
  @TWOEL-I,      24520 integrals of symmetry type  I I J J
  @TWOEL-I,      64068 integrals of symmetry type  I J K L
  @TWOEL-I, Total number of 2-e integrals     134055.
  @MOLECU-I, Two electron integrals (CPU/WALL):        0.07/       0.52 seconds.
  @CHECKOUT-I, Total execution time (CPU/WALL):        0.08/       1.28 seconds.
--executable xvmol finished with status     0 in        1.45 seconds (walltime).
 --invoking executable--
/home/nike/cfour_v2.00beta/bin/xvmol2ja
 @GETMEM-I,  Allocated  122070 MB of main memory.
  @CHECKOUT-I, Total execution time (CPU/WALL):        0.00/       0.03 seconds.
--executable xvmol2ja finished with status     0 in        0.19 seconds (walltime).
 --invoking executable--
/home/nike/cfour_v2.00beta/bin/xvscf
  There are   54 functions in the AO basis.

  There are 8 irreducible representations.

       Irrep        # of functions
         1                 13
         2                  6
         3                  6
         4                  2
         5                 13
         6                  6
         7                  6
         8                  2


  Parameters for SCF calculation: 
        SCF reference function: ROHF  
  Maximum number of iterations: 9999
     Full symmetry point group: DXh 
     Computational point group: D2h 
        Initial density matrix: MOREAD                 
     SCF convergence tolerance: 10**(- 9)
  DIIS convergence acceleration:  ON
          Latest start for DIIS:   8
                     DIIS order:   6

     Alpha population by irrep:   3    0    0    0    1    0    0    0
      Beta population by irrep:   1    0    0    0    1    0    0    0


  Memory information:     151258 words required.
  Fock matrices are constructed from AO integral file.
 @GETMEM-I,  Allocated       1 MB of main memory.
  Initialization and symmetry analysis required      0.001 seconds.

 total no. of electrons in initial guess :  0.000000000000000E+000
 total no. of electrons in initial guess :  0.000000000000000E+000
  --------------------------------------------------------------------
  Iteration         Total Energy            Largest Density Difference
  --------------------------------------------------------------------
       0             1.553864241435562              0.0000000000D+00
   current occupation vector 
     3  0  0  0  1  0  0  0
     1  0  0  0  1  0  0  0
       1           -14.420811271475342              0.3308139838D+01
   current occupation vector 
     3  0  0  0  1  0  0  0
     1  0  0  0  1  0  0  0
       2           -14.743660503893334              0.2968859303D+01
   current occupation vector 
     3  0  0  0  1  0  0  0
     1  0  0  0  1  0  0  0
       3           -14.812280347150612              0.1733786235D+01
   current occupation vector 
     3  0  0  0  1  0  0  0
     1  0  0  0  1  0  0  0
       4           -14.821976311238146              0.2738990180D+00
   current occupation vector 
     3  0  0  0  1  0  0  0
     1  0  0  0  1  0  0  0
       5           -14.822893774781267              0.7745322261D-01
   current occupation vector 
     3  0  0  0  1  0  0  0
     1  0  0  0  1  0  0  0
       6           -14.822955711032488              0.9133607259D-01
   current occupation vector 
     3  0  0  0  1  0  0  0
     1  0  0  0  1  0  0  0
       7           -14.823042199922021              0.7121448863D-01
   current occupation vector 
     3  0  0  0  1  0  0  0
     1  0  0  0  1  0  0  0
       8           -14.823076708247267              0.2830734854D-01
   current occupation vector 
     3  0  0  0  1  0  0  0
     1  0  0  0  1  0  0  0
       9           -14.823077408714891              0.2763249939D-02
   current occupation vector 
     3  0  0  0  1  0  0  0
     1  0  0  0  1  0  0  0
      10           -14.823077426790519              0.5652326505D-03
   current occupation vector 
     3  0  0  0  1  0  0  0
     1  0  0  0  1  0  0  0
      11           -14.823077427850887              0.7684307355D-04
   current occupation vector 
     3  0  0  0  1  0  0  0
     1  0  0  0  1  0  0  0
      12           -14.823077427854173              0.7819178465D-05
   current occupation vector 
     3  0  0  0  1  0  0  0
     1  0  0  0  1  0  0  0
      13           -14.823077427854670              0.2698839981D-05
   current occupation vector 
     3  0  0  0  1  0  0  0
     1  0  0  0  1  0  0  0
      14           -14.823077427854628              0.1633524468D-06
   current occupation vector 
     3  0  0  0  1  0  0  0
     1  0  0  0  1  0  0  0
      15           -14.823077427854660              0.1336841313D-07
   current occupation vector 
     3  0  0  0  1  0  0  0
     1  0  0  0  1  0  0  0
      16           -14.823077427854678              0.5156863884D-08
   current occupation vector 
     3  0  0  0  1  0  0  0
     1  0  0  0  1  0  0  0
      17           -14.823077427854685              0.4540348817D-08
   current occupation vector 
     3  0  0  0  1  0  0  0
     1  0  0  0  1  0  0  0
      18           -14.823077427854674              0.1334397719D-08
   current occupation vector 
     3  0  0  0  1  0  0  0
     1  0  0  0  1  0  0  0

  SCF has converged.

 Density matrix saved to file den.dat
 total alpha spin electron number:   4.00000000000000     
 total  beta spin electron number:   2.00000000000000     
     E(ROHF)=       -14.823077427854656              0.9711781379D-10

  Eigenvector printing suppressed.


       The average multiplicity is    3.0000000
  The expectation value of S**2 is    2.0000000

 @PUTMOS-I, Writing converged MOs to NEWMOS. 
 @PUTMOS-I, Symmetry   1 Full Blocks  3 Partial Blocksize   1
 @PUTMOS-I, Symmetry   2 Full Blocks  1 Partial Blocksize   2
 @PUTMOS-I, Symmetry   3 Full Blocks  1 Partial Blocksize   2
 @PUTMOS-I, Symmetry   4 Full Blocks  0 Partial Blocksize   2
 @PUTMOS-I, Symmetry   5 Full Blocks  3 Partial Blocksize   1
 @PUTMOS-I, Symmetry   6 Full Blocks  1 Partial Blocksize   2
 @PUTMOS-I, Symmetry   7 Full Blocks  1 Partial Blocksize   2
 @PUTMOS-I, Symmetry   8 Full Blocks  0 Partial Blocksize   2
  @DMPJOB-I, Rotating orbitals to semicanonical basis.
             *** Eigenvalues correspond to new basis. ***



 
  ORBITAL EIGENVALUES (ALPHA)  (1H = 27.2113838 eV)

       MO #        E(hartree)               E(eV)           FULLSYM    COMPSYM
       ----   --------------------   --------------------   -------   ---------
    1     1          -2.4974108573         -67.9580053942    SGg+        Ag (1)
    2    28          -2.4971616498         -67.9512241125    SGu+       B1u (5)
    3     2          -0.2672017824          -7.2709302575    SGg+        Ag (1)
    4     3          -0.1084347075          -2.9506584450    SGg+        Ag (1)
  +++++++++++++++++++++++++++++++++++++++++++++++++++++++++++++++++++++++++++++
    5    29          -0.0415234540          -1.1299106456    SGu+       B1u (5)
    6    20           0.0002140443           0.0058244408    PIu        B3u (3)
    7    14           0.0002140443           0.0058244408    PIu        B2u (2)
    8    30           0.0132535320           0.3606469470    SGu+       B1u (5)
    9    41           0.0177162845           0.4820846172    PIg        B3g (6)
   10    47           0.0177162845           0.4820846172    PIg        B2g (7)
   11     4           0.0192941076           0.5250193686    SGg+        Ag (1)
   12    21           0.0245981839           0.6693506233    PIu        B3u (3)
   13    15           0.0245981839           0.6693506233    PIu        B2u (2)
   14     5           0.0261387578           0.7112717724    SGg+        Ag (1)
   15    31           0.0483162309           1.3147515048    SGu+       B1u (5)
   16    42           0.0571436306           1.5549572651    PIg        B3g (6)
   17    48           0.0571436306           1.5549572651    PIg        B2g (7)
   18    32           0.0909604196           2.4751588902    SGu+       B1u (5)
   19     6           0.1052183664           2.8631373539    SGg+        Ag (1)
   20    22           0.1405369510           3.8242049134    PIu        B3u (3)
   21    16           0.1405369510           3.8242049134    PIu        B2u (2)
   22     7           0.1591494052           4.3306755482    DEg         Ag (1)
   23    26           0.1591494052           4.3306755482    DEg        B1g (4)
   24     8           0.1664715730           4.5299218681    SGg+        Ag (1)
   25    49           0.1770646858           4.8181751275    PIg        B2g (7)
   26    43           0.1770646858           4.8181751275    PIg        B3g (6)
   27    33           0.1917832015           5.2186863048    SGu+       B1u (5)
   28    23           0.2004888608           5.4555793436    PIu        B3u (3)
   29    17           0.2004888608           5.4555793436    PIu        B2u (2)
   30    53           0.2141248555           5.8266336272    DEu         Au (8)
   31    34           0.2141248555           5.8266336272    DEu        B1u (5)
   32    35           0.2154794090           5.8634929048    SGu+       B1u (5)
   33     9           0.2788195751           7.5870664745    SGg+        Ag (1)
   34    50           0.2988363412           8.1317503807    PIg        B2g (7)
   35    44           0.2988363412           8.1317503807    PIg        B3g (6)
   36    36           0.4121481567          11.2151216825    SGu+       B1u (5)
   37    24           0.4915400811          13.3754858100    PIu        B3u (3)
   38    18           0.4915400811          13.3754858100    PIu        B2u (2)
   39    10           0.5165148331          14.0550833722    DEg         Ag (1)
   40    27           0.5165148331          14.0550833722    DEg        B1g (4)
   41    54           0.5593460595          15.2205803123    DEu         Au (8)
   42    37           0.5593460595          15.2205803123    DEu        B1u (5)
   43    11           0.5601355424          15.2420632350    SGg+        Ag (1)
   44    51           0.6408991967          17.4397540323    PIg        B2g (7)
   45    45           0.6408991967          17.4397540323    PIg        B3g (6)
   46    38           0.6983067814          19.0018938532    SGu+       B1u (5)
   47    12           4.0174425053         109.3201699860    SGg+        Ag (1)
   48    39           4.1140536325         111.9490924472    SGu+       B1u (5)
   49    13           5.5475494058         150.9564961404    SGg+        Ag (1)
   50    25           5.5514393551         151.0623470438    PIu        B2u (3)
   51    19           5.5514393551         151.0623470438    PIu        B3u (2)
   52    46           5.5888098481         152.0792498703    PIg        B3g (6)
   53    52           5.5888098481         152.0792498703    PIg        B2g (7)
   54    40           5.8177151444         158.3080797471    SGu+       B1u (5)


 
  ORBITAL EIGENVALUES ( BETA)  (1H = 27.2113838 eV)

       MO #        E(hartree)               E(eV)           FULLSYM    COMPSYM
       ----   --------------------   --------------------   -------   ---------
    1     1          -2.4880829460         -67.7041800190    SGg+        Ag (1)
    2    28          -2.4880237672         -67.7025696812    SGu+       B1u (5)
  +++++++++++++++++++++++++++++++++++++++++++++++++++++++++++++++++++++++++++++
    3     2          -0.0061104165          -0.1662728885    SGg+        Ag (1)
    4    29           0.0098148579           0.2670758661    SGu+       B1u (5)
    5    20           0.0105248809           0.2863965748    PIu        B3u (3)
    6    14           0.0105248809           0.2863965748    PIu        B2u (2)
    7     3           0.0185130834           0.5037666193    SGg+        Ag (1)
    8    41           0.0192569687           0.5240087663    PIg        B3g (6)
    9    47           0.0192569687           0.5240087663    PIg        B2g (7)
   10    30           0.0238814408           0.6498470521    SGu+       B1u (5)
   11     4           0.0349185545           0.9501821880    SGg+        Ag (1)
   12    21           0.0449605519           1.2234388336    PIu        B3u (3)
   13    15           0.0449605519           1.2234388336    PIu        B2u (2)
   14    31           0.0612918990           1.6678373883    SGu+       B1u (5)
   15    48           0.0706263765           1.9218414379    PIg        B2g (7)
   16    42           0.0706263765           1.9218414379    PIg        B3g (6)
   17     5           0.0716111546           1.9486386149    SGg+        Ag (1)
   18    32           0.1038437220           2.8257313759    SGu+       B1u (5)
   19     6           0.1679177230           4.5692736098    SGg+        Ag (1)
   20    26           0.1710851119           4.6554626461    DEg        B1g (4)
   21     7           0.1710851119           4.6554626461    DEg         Ag (1)
   22    22           0.1715727391           4.6687316578    PIu        B3u (3)
   23    16           0.1715727391           4.6687316578    PIu        B2u (2)
   24     8           0.1890218852           5.1435470684    SGg+        Ag (1)
   25    49           0.1926000520           5.2409139396    PIg        B2g (7)
   26    43           0.1926000520           5.2409139396    PIg        B3g (6)
   27    33           0.2120353969           5.7697765693    SGu+       B1u (5)
   28    23           0.2194993624           5.9728813975    PIu        B3u (3)
   29    17           0.2194993624           5.9728813975    PIu        B2u (2)
   30    53           0.2221812606           6.0458595599    DEu         Au (8)
   31    34           0.2221812606           6.0458595599    DEu        B1u (5)
   32    35           0.2463668223           6.7039821627    SGu+       B1u (5)
   33     9           0.2987719763           8.1299989211    SGg+        Ag (1)
   34    50           0.3133863585           8.5276764844    PIg        B2g (7)
   35    44           0.3133863585           8.5276764844    PIg        B3g (6)
   36    36           0.4468187999          12.1585578612    SGu+       B1u (5)
   37    24           0.5251195471          14.2892295484    PIu        B3u (3)
   38    18           0.5251195471          14.2892295484    PIu        B2u (2)
   39    27           0.5284234247          14.3791326287    DEg        B1g (4)
   40    10           0.5284234247          14.3791326287    DEg         Ag (1)
   41    54           0.5689952637          15.4831485127    DEu         Au (8)
   42    37           0.5689952637          15.4831485127    DEu        B1u (5)
   43    11           0.5984393700          16.2843633897    SGg+        Ag (1)
   44    51           0.6586287974          17.9222010005    PIg        B2g (7)
   45    45           0.6586287974          17.9222010005    PIg        B3g (6)
   46    38           0.7244291325          19.7127191747    SGu+       B1u (5)
   47    12           4.0281304271         109.6110031267    SGg+        Ag (1)
   48    39           4.1233129076         112.2010501377    SGu+       B1u (5)
   49    13           5.5530998370         151.1075310525    SGg+        Ag (1)
   50    19           5.5539479016         151.1306080647    PIu        B2u (2)
   51    25           5.5539479016         151.1306080647    PIu        B3u (3)
   52    46           5.5912154972         152.1447109132    PIg        B3g (6)
   53    52           5.5912154972         152.1447109132    PIg        B2g (7)
   54    40           5.8233654783         158.4618331526    SGu+       B1u (5)


  VSCF finished.

  @CHECKOUT-I, Total execution time (CPU/WALL):        0.04/       0.17 seconds.
--executable xvscf finished with status     0 in        0.33 seconds (walltime).
 --invoking executable--
/home/nike/cfour_v2.00beta/bin/xvtran
 @GETMEM-I,  Allocated  122070 MB of main memory.
  Full UHF integral transformation
  Transformation of IIII integrals :
  2 passes through the AO integral file were required.
        6272 AO integrals were read.
        9308 MO integrals (Spin case AAAA) were written to HF2AA.
        9308 MO integrals (Spin case BBBB) were written to HF2BB.
       18344 MO integrals (Spin case AABB) were written to HF2AB.
  Transformation of IIJJ integrals :
  2 passes through the AO integral file were required.
       24520 AO integrals were read.
       27820 MO integrals (Spin case AAAA) were written to HF2AA.
       27820 MO integrals (Spin case BBBB) were written to HF2BB.
       55640 MO integrals (Spin case AABB) were written to HF2AB.
  Transformation of IJIJ integrals :
  2 passes through the AO integral file were required.
       39195 AO integrals were read.
       45047 MO integrals (Spin case AAAA) were written to HF2AA.
       45047 MO integrals (Spin case BBBB) were written to HF2BB.
       88881 MO integrals (Spin case AABB) were written to HF2AB.
  Transformation of IJKL integrals :
  2 passes through the AO integral file were required.
       64068 AO integrals were read.
       65748 MO integrals (Spin case AAAA) were written to HF2AA.
       65748 MO integrals (Spin case BBBB) were written to HF2BB.
      131496 MO integrals (Spin case AABB) were written to HF2AB.
  Summary of active molecular orbitals: 
------------------------------------------------------------------------
                         * Spin case alpha *
 
  Index      Eigenvalue    Symmetry    Index      Eigenvalue    Symmetry
------------------------------------------------------------------------
     1        -2.4974109        1        28         0.5165148        4
     2        -0.2672018        1        29        -0.0415235        5
     3        -0.1084347        1        30         0.0132535        5
     4        -2.4971616        5        31         0.0483162        5
     5         0.0192941        1        32         0.0909604        5
     6         0.0261388        1        33         0.1917832        5
     7         0.1052184        1        34         0.2141249        5
     8         0.1591494        1        35         0.2154794        5
     9         0.1664716        1        36         0.4121482        5
    10         0.2788196        1        37         0.5593461        5
    11         0.5165148        1        38         0.6983068        5
    12         0.5601355        1        39         4.1140536        5
    13         4.0174425        1        40         5.8177151        5
    14         5.5475494        1        41         0.0177163        6
    15         0.0002140        2        42         0.0571436        6
    16         0.0245982        2        43         0.1770647        6
    17         0.1405370        2        44         0.2988363        6
    18         0.2004889        2        45         0.6408992        6
    19         0.4915401        2        46         5.5888098        6
    20         5.5514394        2        47         0.0177163        7
    21         0.0002140        3        48         0.0571436        7
    22         0.0245982        3        49         0.1770647        7
    23         0.1405370        3        50         0.2988363        7
    24         0.2004889        3        51         0.6408992        7
    25         0.4915401        3        52         5.5888098        7
    26         5.5514394        3        53         0.2141249        8
    27         0.1591494        4        54         0.5593461        8
------------------------------------------------------------------------
------------------------------------------------------------------------
                         * Spin case beta *
 
  Index      Eigenvalue    Symmetry    Index      Eigenvalue    Symmetry
------------------------------------------------------------------------
     1        -2.4880829        1        28         0.5284234        4
     2        -2.4880238        5        29         0.0098149        5
     3        -0.0061104        1        30         0.0238814        5
     4         0.0185131        1        31         0.0612919        5
     5         0.0349186        1        32         0.1038437        5
     6         0.0716112        1        33         0.2120354        5
     7         0.1679177        1        34         0.2221813        5
     8         0.1710851        1        35         0.2463668        5
     9         0.1890219        1        36         0.4468188        5
    10         0.2987720        1        37         0.5689953        5
    11         0.5284234        1        38         0.7244291        5
    12         0.5984394        1        39         4.1233129        5
    13         4.0281304        1        40         5.8233655        5
    14         5.5530998        1        41         0.0192570        6
    15         0.0105249        2        42         0.0706264        6
    16         0.0449606        2        43         0.1926001        6
    17         0.1715727        2        44         0.3133864        6
    18         0.2194994        2        45         0.6586288        6
    19         0.5251195        2        46         5.5912155        6
    20         5.5539479        2        47         0.0192570        7
    21         0.0105249        3        48         0.0706264        7
    22         0.0449606        3        49         0.1926001        7
    23         0.1715727        3        50         0.3133864        7
    24         0.2194994        3        51         0.6586288        7
    25         0.5251195        3        52         5.5912155        7
    26         5.5539479        3        53         0.2221813        8
    27         0.1710851        4        54         0.5689953        8
------------------------------------------------------------------------
  @CHECKOUT-I, Total execution time (CPU/WALL):        0.07/       3.93 seconds.
--executable xvtran finished with status     0 in        4.08 seconds (walltime).
 --invoking executable--
/home/nike/cfour_v2.00beta/bin/xintprc
 @GETMEM-I,  Allocated  122070 MB of main memory.
  Processing integrals for CCSD calculation.
  @GMOIAA-I, Processing MO integrals for spin case AA.
  @GMOIAA-I, Generation of integral list completed.
                      TYPE                NUMBER
                      ----               --------
                      PPPP                106838
                      PPPH                 35214
                      PPHH                  3256
                      PHPH                  2149
                      PHHH                   432
                      HHHH                    34

                     TOTAL                147923
  @GMOIAA-I, Processing MO integrals for spin case BB.
  @GMOIAA-I, Generation of integral list completed.
                      TYPE                NUMBER
                      ----               --------
                      PPPP                125995
                      PPPH                 20208
                      PPHH                   932
                      PHPH                   712
                      PHHH                    72
                      HHHH                     4

                     TOTAL                147923
  @GMOIAB-I, Processing MO integrals for spin case AB.
                      TYPE                NUMBER
                      ----               --------
                      PPPP                230650
                      PPPH1H               38500
                      PPPH2H               18472
                      PPHH                  3328
                      PHPH1P                 642
                      PHPH2P                2382
                      PHHH1P                 130
                      PHHH2P                 240
                      HHHH                    17

                     TOTAL                294361
            ----------------------------------------------
                     Projected spin multiplicities: 
            ----------------------------------------------
             <0|S^2|0>                  =    2.0000000000.
             <0|S^2 T2|0>               =    0.0000000000.
             Projected <0|S^2 exp(T)|0> =    2.0000000000.
             Approximate spin mult.     =    3.0000000000.
            ----------------------------------------------
   Largest T2 amplitudes for spin case AA:
   i   j   a   b             i   j   a   b             i   j   a   b
-----------------------------------------------------------------------------
[  3   2  35  29]-0.03230 [  3   2  32  29] 0.02463 [  3   2  36  29]-0.01839
[  3   2  33  29] 0.01484 [  3   2  23  21] 0.01386 [  3   2  17  15] 0.01386
[  3   2  17  16] 0.01016 [  3   2  23  22] 0.01016 [  3   2  18  15]-0.00943
[  3   2  24  21]-0.00943 [  3   2  35  33] 0.00825 [  3   2  35  31]-0.00808
[  3   2  18  16]-0.00790 [  3   2  24  22]-0.00790 [  3   2   9   7]-0.00780
-----------------------------------------------------------------------------
   Norm of T2AA vector (     1107 symmetry allowed elements):  0.0653058979.
-----------------------------------------------------------------------------
   Largest T2 amplitudes for spin case BB:
   i   j   a   b             i   j   a   b             i   j   a   b
-----------------------------------------------------------------------------
[  2   1  36  14]-0.00005 [  2   1  36   7]-0.00005 [  2   1  40  14] 0.00004
[  2   1  36   9] 0.00003 [  2   1  38  14]-0.00003 [  2   1  38   7]-0.00003
[  2   1  40   7] 0.00003 [  2   1  46  20]-0.00003 [  2   1  52  26]-0.00003
[  2   1  33  14] 0.00002 [  2   1  40   9]-0.00002 [  2   1  38   9] 0.00002
[  2   1  33   7] 0.00002 [  2   1  49  23]-0.00002 [  2   1  43  17]-0.00002
-----------------------------------------------------------------------------
   Norm of T2BB vector (      220 symmetry allowed elements):  0.0001455599.
-----------------------------------------------------------------------------
   Largest T2 amplitudes for spin case AB:
       _       _                 _       _                 _       _
   i   j   a   b             i   j   a   b             i   j   a   b
-----------------------------------------------------------------------------
[  4   2  13  13]-0.01384 [  1   1  13  13]-0.01384 [  4   1  13  39]-0.01357
[  4   1  39  13]-0.01357 [  1   2  13  39]-0.01357 [  1   2  39  13]-0.01357
[  4   2  39  39]-0.01338 [  1   1  39  39]-0.01337 [  1   1  14  14]-0.00906
[  1   1  20  20]-0.00904 [  1   1  26  26]-0.00904 [  4   2  20  20]-0.00901
[  4   2  26  26]-0.00901 [  4   2  14  14]-0.00901 [  4   1  52  26]-0.00899
-----------------------------------------------------------------------------
   Norm of T2AB vector (     3328 symmetry allowed elements):  0.0650394495.
-----------------------------------------------------------------------------
  @CHECKOUT-I, Total execution time (CPU/WALL):        0.06/       1.03 seconds.
--executable xintprc finished with status     0 in        1.51 seconds (walltime).
 --invoking executable--
/home/nike/cfour_v2.00beta/bin/xint
 @GETMEM-I,  Allocated  122070 MB of main memory.
  @CHECKOUT-I, Total execution time (CPU/WALL):        1.00/       1.02 seconds.
--executable xint finished with status     0 in        2.48 seconds (walltime).
 --invoking executable--
/home/nike/MRCC/dmrcc
 **********************************************************************
                          MRCC program system
 **********************************************************************
 
                              Written by
    Mihaly Kallay, Zoltan Rolik, Jozsef Csontos, Istvan Ladjanszki,
       Lorant Szegedy, Bence Ladoczki, Gyula Samu, Klara Petrov,
        Mate Farkas, Peter Nagy, David Mester, and Bence Hegely
 
        Department of Physical Chemistry and Materials Science
            Budapest University of Technology and Economics
                  Budapest P.O.Box 91, H-1521 Hungary
 
                              www.mrcc.hu

 ************************ 2018-03-09 16:48:53 *************************
 Executing minp...

 Reading input from MINP...
 
 Input file:
 
# TITLE
basis=aug-cc-pCVDZ
iface=cfour
uncontract=off
calc=CCSDTQP
mem=128GB
core=corr
itol=18
scftol=14
cctol=7
ccmaxit=999
scfmaxit=9999
scfiguess=ao
scftype=ROHF
rohftype=semicanonical
rest=2
refdet=serialno
1,2
3,4

symm=5
mult=3
occ=3,0,0,0,0,1,0,0/1,0,0,0,0,1,0,0
geom
Li
Li 1 R

R=3.065

unit=angstroms

 
 
 Checking keyword combinations...
 
 Keywords:
 
 active=none
 agrid=ld0006-ld0590
 basis=aug-cc-pcvdz
 basopt=off
 bpcompo=0.985
 bpcompv=0.98
 bpdfo=0.985
 bpocc=0.985
 bppdo=0.985
 bppdv=0.98
 bpedo=0.985
 bpedv=0.98
 calc=ccsdtqp
 ccmaxit=999
 ccprog=mrcc
 cctol=7
 charge=0
 cialg=disk
 ciguess=off
 cmpgrp=auto
 core=corr
 corembed=off
 dboc=off
 dendec=cholesky
 dens=0
 dfalg=invsqrt
 dfbasis_cor=none
 dfbasis_scf=none
 dfintran=ovirt
 dft=off
 diag=david
 domrad=10.d0
 drpaalg=fit
 ecp=auto
 edisp=off
 embed=off
 epert=none
 eps=0.975
 excrad=0.d0
 excrad_fin=0.000000000D+00
 freq=off
 gauss=spher
 geom=zmat
 gopt=off
 ghost=none
 gtol=7
 grtol=10
 hamilton=dc
 iface=cfour
 intalg=auto
 itol=18
 lcorthr=loose
 lccrest=off
 lmp2dens=on
 lnoepso=3e-5
 lnoepsv=1e-6
 localcc=off
 locintrf=disk
 maxact=off
 maxex=0
 bfbasis=none
 mem=128gb
 molden=on
 mulmet=0
 mult=3
 nacto=0
 nactv=0
 naf_cor=off
 naf_scf=off
 nafalg=albe
 naftyp=
 nchol=auto
 ndeps=1e-3
 nstate=1
 nsing=0
 ntrip=0
 occ=3,0,0,0,0,1,0,0/1,0,0,0,0,1,0,0
 optalg=
 optmaxit=50
 optetol=1e-6
 optgtol=1e-4
 optstol=1e-3
 orblocc=off
 orbloco=off
 orblocv=off
 osveps=1e-3
 ovirt=off
 ovosnorb=80.0
 ptfreq=0.0
 popul=off
 pressure=100000
 qmmm=off
 refdet=serialno
 rest=2
 rgrid=log3
 rohftype=semicanonical
 scspe=1.d0
 scsps=1.2d0
 scspt=0.33333333333333
 scfalg=auto
 scfdamp=off
 scfdiis=on
 scfdiis_end=9999
 scfdiis_start=1
 scfdiis_step=1
 scfdtol=18
 scfext=10
 scfiguess=ao
 scflshift=off
 scfmaxit=9999
 scftype=rohf
 scftol=14
 spairtol=1e-4
 symm=5
 talg=occ
 temp=298.15
 test=off
 tprint=off
 uncontract=off
 unit=angs
 verbosity=2
 wpairtol=0.100000000E-05

 ************************ 2018-03-09 16:48:54 *************************
 Executing goldstone...

 Generation of CC equations in terms of H and T...
 Generation of antisymmetrized Goldstone diagrams...
 Number of diagrams in T^1 equations:    15
 Number of diagrams in T^2 equations:    38
 Number of diagrams in T^3 equations:    54
 Number of diagrams in T^4 equations:    80
 Number of diagrams in T^5 equations:    99
 Translation of diagrams to factorized equations...
 Optimizing intermediate calculation...
 Number of floating-point operations per iteration step:   8.7273E+11
 Probable CPU time per iteration step (hours):      8.73
 Required memory (Mbytes):    4372.1
 Number of intermediates:                                 143
 Number of intermediates to be stored:                     55
 Length of intermediate file (Mbytes):     241.4

 ************************ 2018-03-09 16:48:56 *************************
 Executing xmrcc...

 **********************************************************************
 CC(                     5 ) calculation 
 
 
 Allocation of4372.1 Mbytes of memory...
 Number of spinorbitals:                   108
 Number of alpha electrons:                        4
 Number of beta electrons:                         2
 Spin multiplicity:                     2
 z-component of spin:  1.0
 Spatial symmetry:                      5
 Convergence criterion:  1.0E-07
 Invalid spatial symmetry!
 
 Fatal error in xmrcc.
 Program will stop.
 
 ************************ 2018-03-09 16:48:57 *************************
                   Error at the termination of mrcc.
 **********************************************************************
--executable dmrcc finished with status   256 in        3.84 seconds (walltime).
  This computation required                           15.93 seconds (walltime).
--- SharcNET Job Epilogue ---
Job completed successfully.
               jobid: 1528004
               resid: 3009865
         exit status: 0
      allocated time: 17.099
           user time: 2.24
         system time: 0.21
peak rss=208834560; peak vsz=208834560 (bytes)
atime=17.099; utime=2.24; stime=0.21; exit=0


 **********************************************************************
                          MRCC program system
 **********************************************************************
 
                              Written by
    Mihaly Kallay, Zoltan Rolik, Jozsef Csontos, Istvan Ladjanszki,
       Lorant Szegedy, Bence Ladoczki, Gyula Samu, Klara Petrov,
        Mate Farkas, Peter Nagy, David Mester, and Bence Hegely
 
        Department of Physical Chemistry and Materials Science
            Budapest University of Technology and Economics
                  Budapest P.O.Box 91, H-1521 Hungary
 
                              www.mrcc.hu

 ************************ 2018-03-09 16:58:32 *************************
 Executing minp...

 Reading input from MINP...
 
 Input file:
 
# TITLE
basis=aug-cc-pCVDZ
iface=cfour
uncontract=off
calc=CCSDTQP
mem=128GB
core=corr
itol=18
scftol=14
cctol=7
ccmaxit=999
scfmaxit=9999
scfiguess=ao
scftype=ROHF
rohftype=semicanonical
rest=2
refdet=serialno
1,2
3,4

symm=1
mult=3
occ=3,0,0,0,0,1,0,0/1,0,0,0,0,1,0,0
geom
Li
Li 1 R

R=3.065

unit=angstroms

 
 
 Checking keyword combinations...
 
 Keywords:
 
 active=none
 agrid=ld0006-ld0590
 basis=aug-cc-pcvdz
 basopt=off
 bpcompo=0.985
 bpcompv=0.98
 bpdfo=0.985
 bpocc=0.985
 bppdo=0.985
 bppdv=0.98
 bpedo=0.985
 bpedv=0.98
 calc=ccsdtqp
 ccmaxit=999
 ccprog=mrcc
 cctol=7
 charge=0
 cialg=disk
 ciguess=off
 cmpgrp=auto
 core=corr
 corembed=off
 dboc=off
 dendec=cholesky
 dens=0
 dfalg=invsqrt
 dfbasis_cor=none
 dfbasis_scf=none
 dfintran=ovirt
 dft=off
 diag=david
 domrad=10.d0
 drpaalg=fit
 ecp=auto
 edisp=off
 embed=off
 epert=none
 eps=0.975
 excrad=0.d0
 excrad_fin=0.000000000D+00
 freq=off
 gauss=spher
 geom=zmat
 gopt=off
 ghost=none
 gtol=7
 grtol=10
 hamilton=dc
 iface=cfour
 intalg=auto
 itol=18
 lcorthr=loose
 lccrest=off
 lmp2dens=on
 lnoepso=3e-5
 lnoepsv=1e-6
 localcc=off
 locintrf=disk
 maxact=off
 maxex=0
 bfbasis=none
 mem=128gb
 molden=on
 mulmet=0
 mult=3
 nacto=0
 nactv=0
 naf_cor=off
 naf_scf=off
 nafalg=albe
 naftyp=
 nchol=auto
 ndeps=1e-3
 nstate=1
 nsing=0
 ntrip=0
 occ=3,0,0,0,0,1,0,0/1,0,0,0,0,1,0,0
 optalg=
 optmaxit=50
 optetol=1e-6
 optgtol=1e-4
 optstol=1e-3
 orblocc=off
 orbloco=off
 orblocv=off
 osveps=1e-3
 ovirt=off
 ovosnorb=80.0
 ptfreq=0.0
 popul=off
 pressure=100000
 qmmm=off
 refdet=serialno
 rest=2
 rgrid=log3
 rohftype=semicanonical
 scspe=1.d0
 scsps=1.2d0
 scspt=0.33333333333333
 scfalg=auto
 scfdamp=off
 scfdiis=on
 scfdiis_end=9999
 scfdiis_start=1
 scfdiis_step=1
 scfdtol=18
 scfext=10
 scfiguess=ao
 scflshift=off
 scfmaxit=9999
 scftype=rohf
 scftol=14
 spairtol=1e-4
 symm=1
 talg=occ
 temp=298.15
 test=off
 tprint=off
 uncontract=off
 unit=angs
 verbosity=2
 wpairtol=0.100000000E-05

 ************************ 2018-03-09 16:58:32 *************************
 Executing goldstone...

 Generation of CC equations in terms of H and T...
 Generation of antisymmetrized Goldstone diagrams...
 Number of diagrams in T^1 equations:    15
 Number of diagrams in T^2 equations:    38
 Number of diagrams in T^3 equations:    54
 Number of diagrams in T^4 equations:    80
 Number of diagrams in T^5 equations:    99
 Translation of diagrams to factorized equations...
 Optimizing intermediate calculation...
 Number of floating-point operations per iteration step:   8.7273E+11
 Probable CPU time per iteration step (hours):      8.73
 Required memory (Mbytes):    4372.1
 Number of intermediates:                                 143
 Number of intermediates to be stored:                     55
 Length of intermediate file (Mbytes):     241.4

 ************************ 2018-03-09 16:58:32 *************************
 Executing xmrcc...

 **********************************************************************
 CC(                     5 ) calculation 
 
 
 Allocation of4372.1 Mbytes of memory...
 Number of spinorbitals:                   108
 Number of alpha electrons:                        4
 Number of beta electrons:                         2
 Spin multiplicity:                     2
 z-component of spin:  1.0
 Spatial symmetry:                      1
 Convergence criterion:  1.0E-07
 Construction of occupation graphs...
 Number of                     0 -fold excitations:                      1
 Number of                     1 -fold excitations:                     66
 Number of                     2 -fold excitations:                   4655
 Number of                     3 -fold excitations:                 150100
 Number of                     4 -fold excitations:                2323334
 Number of                     5 -fold excitations:               16087328
 Total number of configurations:               18565484
 Calculation of coupling coefficients...
 Length of intermediate file (Mbytes):     165.7
 
 ======================================================================
 
 Memory requirements /Mbyte/: 
               Minimal        Optimal
 Real*8:      23561.5603     23561.5603
 Integer:        96.0778
 Total:       23657.6381     23657.6381
 

 ************************ 2018-03-09 16:58:36 *************************
 Executing goldstone...

 Generation of CC equations in terms of H and T...
 Generation of antisymmetrized Goldstone diagrams...
 Number of diagrams in T^1 equations:    15
 Number of diagrams in T^2 equations:    34
 Number of diagrams in T^3 equations:     2
 Translation of diagrams to factorized equations...
 Optimizing intermediate calculation...
 Number of floating-point operations per iteration step:   7.6342E+07
 Probable CPU time per iteration step (hours):      0.00
 Required memory (Mbytes):     890.8
 Number of intermediates:                                  49
 Number of intermediates to be stored:                     20
 Length of intermediate file (Mbytes):      16.1

 ************************ 2018-03-09 16:58:38 *************************
 Executing xmrcc...

 **********************************************************************
 CC(2)(3) calculation 
 
 
 Allocation of 890.8 Mbytes of memory...
 Number of spinorbitals:                   108
 Number of alpha electrons:                        4
 Number of beta electrons:                         2
 Spin multiplicity:                     2
 z-component of spin:  1.0
 Spatial symmetry:                      1
 Convergence criterion:  1.0E-07
 Construction of occupation graphs...
 Number of                     0 -fold excitations:                      1
 Number of                     1 -fold excitations:                     66
 Number of                     2 -fold excitations:                   4655
 Total number of configurations:                   4722
 Calculation of coupling coefficients...
 Length of intermediate file (Mbytes):      13.0
 
 ======================================================================
 
 Spin case  1   Alpha:  1   Beta:  2
 Number of excitations:                  36212
 Spin case  2   Alpha:  2   Beta:  1
 Number of excitations:                 103632
 Spin case  3   Alpha:  3   Beta:  0
 Number of excitations:                  10256
 Number of                     3 -fold excitations:                 150100
 
 Memory requirements /Mbyte/: 
               Minimal        Optimal
 Real*8:         25.4328        64.9237
 Integer:         3.8988
 Total:          29.3315        68.8224
 

 ************************ 2018-03-09 16:58:38 *************************
 Executing mrcc...

 **********************************************************************
 CCSD(T) calculation                                                    
 
 
 OpenMP parallel version is running.
 Number of CPUs:  24
 Allocation of   64.9 Mbytes of memory...
 Number of spinorbitals: 108
 Number of alpha electrons:  4
 Number of beta  electrons:  2
 Spin multiplicity: 2
 z-component of spin:  1.0
 Spatial symmetry: 1
 Convergence criterion:  1.0E-07
 Construction of occupation graphs...
 Number of 0-fold excitations: 1
 Number of 1-fold excitations: 66
 Number of 2-fold excitations: 4655
 Total number of determinants: 4722
 Calculation of coupling coefficients...
 Initial cluster amplitudes are generated.
 Length of intermediate file (Mbytes):      13.0
 Reading integral list from unit 55...
 Sorting integrals...
 Sorting integrals...
 Sorting integrals...
 Sorting integrals...
 Energy of reference determinant [au]:     -14.823077427855
 Calculation of MP denominators...
 
 Starting CC iteration...
 ======================================================================
 Norm of residual vector:     0.91084119
 CPU time [min]:     0.487                   Wall time [min]:     0.060
 
 Iteration  1  CC energy:   -14.88376376  Energy decrease:   0.06068633
 ======================================================================
 Norm of residual vector:     0.12480981
 CPU time [min]:     0.643                   Wall time [min]:     0.066
 
 Iteration  2  CC energy:   -14.89592886  Energy decrease:   0.01216510
 ======================================================================
 Norm of residual vector:     0.02018918
 CPU time [min]:     0.790                   Wall time [min]:     0.073
 
 Iteration  3  CC energy:   -14.89547722  Energy decrease:   0.00045163
 ======================================================================
 Norm of residual vector:     0.00444261
 CPU time [min]:     0.937                   Wall time [min]:     0.079
 
 Iteration  4  CC energy:   -14.89566168  Energy decrease:   0.00018445
 ======================================================================
 Norm of residual vector:     0.00127482
 CPU time [min]:     1.086                   Wall time [min]:     0.085
 
 Iteration  5  CC energy:   -14.89571438  Energy decrease:   0.00005271
 ======================================================================
 Norm of residual vector:     0.00045795
 CPU time [min]:     1.235                   Wall time [min]:     0.091
 
 Iteration  6  CC energy:   -14.89570082  Energy decrease:   0.00001356
 ======================================================================
 Norm of residual vector:     0.00021006
 CPU time [min]:     1.384                   Wall time [min]:     0.097
 
 Iteration  7  CC energy:   -14.89570376  Energy decrease:   0.00000294
 ======================================================================
 Norm of residual vector:     0.00004991
 CPU time [min]:     1.533                   Wall time [min]:     0.104
 
 Iteration  8  CC energy:   -14.89570354  Energy decrease:   0.00000022
 ======================================================================
 Norm of residual vector:     0.00002635
 CPU time [min]:     1.683                   Wall time [min]:     0.110
 
 Iteration  9  CC energy:   -14.89570358  Energy decrease:   0.00000004
 ======================================================================
 Norm of residual vector:     0.00000752
 CPU time [min]:     1.831                   Wall time [min]:     0.116
 
 Iteration 10  CC energy:   -14.89570369  Energy decrease:   0.00000010
 ======================================================================
 Norm of residual vector:     0.00000274
 CPU time [min]:     1.981                   Wall time [min]:     0.122
 
 Iteration 11  CC energy:   -14.89570364  Energy decrease:   0.00000004
 ======================================================================
 Norm of residual vector:     0.00000051
 CPU time [min]:     2.131                   Wall time [min]:     0.129
 
 Iteration 12  CC energy:   -14.89570363  Energy decrease:   0.00000001
 ======================================================================
 Norm of residual vector:     0.00000024
 CPU time [min]:     2.281                   Wall time [min]:     0.135
 
 Iteration 13  CC energy:   -14.89570364  Energy decrease:   0.00000001
 ======================================================================
 Norm of residual vector:     0.00000006
 CPU time [min]:     2.429                   Wall time [min]:     0.141
 
 Iteration 14  CC energy:   -14.89570364  Energy decrease:   1.1607E-10
 ======================================================================
 
 Iteration has converged in 14 steps.
 
 Final results:
 Total CCSD energy [au]:             -14.895703639857
 
 Perturbative corrections are calculated...
 ======================================================================
 Spin case  1   Alpha:  1   Beta:  2
 Number of excitations:        36212
 CPU time [min]:     2.485                   Wall time [min]:     0.143
 ======================================================================
 Spin case  2   Alpha:  2   Beta:  1
 Number of excitations:        103632
 CPU time [min]:     2.521                   Wall time [min]:     0.145
 ======================================================================
 Spin case  3   Alpha:  3   Beta:  0
 Number of excitations:        10256
 CPU time [min]:     2.532                   Wall time [min]:     0.145
 ======================================================================
 Number of 3-fold excitations: 150100
 
 
 CPU time [min]:     2.533                   Wall time [min]:     0.145
 
 Total CCSD[T] energy [au]:          -14.895771926320
 Total CCSD(T) energy [au]:          -14.895771889902

 ************************ 2018-03-09 16:58:48 *************************
 Executing goldstone...

 Generation of CC equations in terms of H and T...
 Generation of antisymmetrized Goldstone diagrams...
 Number of diagrams in T^1 equations:    15
 Number of diagrams in T^2 equations:    38
 Number of diagrams in T^3 equations:    50
 Number of diagrams in T^4 equations:     5
 Translation of diagrams to factorized equations...
 Optimizing intermediate calculation...
 Number of floating-point operations per iteration step:   6.6715E+09
 Probable CPU time per iteration step (hours):      0.07
 Required memory (Mbytes):     890.8
 Number of intermediates:                                  80
 Number of intermediates to be stored:                     32
 Length of intermediate file (Mbytes):      18.4

 ************************ 2018-03-09 16:58:48 *************************
 Executing xmrcc...

 **********************************************************************
 CC(3)(4) calculation 
 
 
 Allocation of 890.8 Mbytes of memory...
 Number of spinorbitals:                   108
 Number of alpha electrons:                        4
 Number of beta electrons:                         2
 Spin multiplicity:                     2
 z-component of spin:  1.0
 Spatial symmetry:                      1
 Convergence criterion:  1.0E-07
 Construction of occupation graphs...
 Number of                     0 -fold excitations:                      1
 Number of                     1 -fold excitations:                     66
 Number of                     2 -fold excitations:                   4655
 Number of                     3 -fold excitations:                 150100
 Total number of configurations:                 154822
 Calculation of coupling coefficients...
 Length of intermediate file (Mbytes):      15.1
 
 ======================================================================
 
 Spin case  1   Alpha:  2   Beta:  2
 Number of excitations:                1254330
 Spin case  2   Alpha:  3   Beta:  1
 Number of excitations:                1040128
 Spin case  3   Alpha:  4   Beta:  0
 Number of excitations:                  28876
 Number of                     4 -fold excitations:                2323334
 
 Memory requirements /Mbyte/: 
               Minimal        Optimal
 Real*8:         91.3590        91.3590
 Integer:         8.9243
 Total:         100.2833       100.2833
 

 ************************ 2018-03-09 16:58:49 *************************
 Executing mrcc...

 **********************************************************************
 CCSDT(Q) calculation                                                   
 
 
 OpenMP parallel version is running.
 Number of CPUs:  24
 Allocation of   91.4 Mbytes of memory...
 Number of spinorbitals: 108
 Number of alpha electrons:  4
 Number of beta  electrons:  2
 Spin multiplicity: 2
 z-component of spin:  1.0
 Spatial symmetry: 1
 Convergence criterion:  1.0E-07
 Construction of occupation graphs...
 Number of 0-fold excitations: 1
 Number of 1-fold excitations: 66
 Number of 2-fold excitations: 4655
 Number of 3-fold excitations: 150100
 Total number of determinants: 154822
 Calculation of coupling coefficients...
 Initial cluster amplitudes are read from unit 16.
 Length of intermediate file (Mbytes):      15.1
 Reading integral list from unit 55...
 Sorting integrals...
 Sorting integrals...
 Sorting integrals...
 Sorting integrals...
 Energy of reference determinant [au]:     -14.823077427855
 Calculation of MP denominators...
 
 Starting CC iteration...
 ======================================================================
 Norm of residual vector:     0.02520911
 CPU time [min]:     0.798                   Wall time [min]:     0.071
 
 Iteration  1  CC energy:   -14.89570364  Energy decrease:   1.7049E-11
 ======================================================================
 Norm of residual vector:     0.00372796
 CPU time [min]:     1.252                   Wall time [min]:     0.090
 
 Iteration  2  CC energy:   -14.89574270  Energy decrease:   0.00003906
 ======================================================================
 Norm of residual vector:     0.00075256
 CPU time [min]:     1.712                   Wall time [min]:     0.109
 
 Iteration  3  CC energy:   -14.89577136  Energy decrease:   0.00002866
 ======================================================================
 Norm of residual vector:     0.00014979
 CPU time [min]:     2.174                   Wall time [min]:     0.129
 
 Iteration  4  CC energy:   -14.89578272  Energy decrease:   0.00001136
 ======================================================================
 Norm of residual vector:     0.00006539
 CPU time [min]:     2.640                   Wall time [min]:     0.148
 
 Iteration  5  CC energy:   -14.89578383  Energy decrease:   0.00000111
 ======================================================================
 Norm of residual vector:     0.00001807
 CPU time [min]:     3.110                   Wall time [min]:     0.168
 
 Iteration  6  CC energy:   -14.89578372  Energy decrease:   0.00000011
 ======================================================================
 Norm of residual vector:     0.00000852
 CPU time [min]:     3.634                   Wall time [min]:     0.190
 
 Iteration  7  CC energy:   -14.89578371  Energy decrease:   0.00000001
 ======================================================================
 Norm of residual vector:     0.00000309
 CPU time [min]:     4.114                   Wall time [min]:     0.210
 
 Iteration  8  CC energy:   -14.89578373  Energy decrease:   0.00000002
 ======================================================================
 Norm of residual vector:     0.00000143
 CPU time [min]:     4.651                   Wall time [min]:     0.232
 
 Iteration  9  CC energy:   -14.89578373  Energy decrease:   8.9217E-10
 ======================================================================
 Norm of residual vector:     0.00000041
 CPU time [min]:     5.137                   Wall time [min]:     0.253
 
 Iteration 10  CC energy:   -14.89578373  Energy decrease:   1.0091E-09
 ======================================================================
 Norm of residual vector:     0.00000014
 CPU time [min]:     5.624                   Wall time [min]:     0.273
 
 Iteration 11  CC energy:   -14.89578373  Energy decrease:   3.5058E-10
 ======================================================================
 Norm of residual vector:     0.00000005
 CPU time [min]:     6.073                   Wall time [min]:     0.292
 
 Iteration 12  CC energy:   -14.89578373  Energy decrease:   2.9097E-11
 ======================================================================
 
 Iteration has converged in 12 steps.
 
 Final results:
 Total CCSDT energy [au]:            -14.895783727867
 
 Perturbative corrections are calculated...
 ======================================================================
 Spin case  1   Alpha:  2   Beta:  2
 Number of excitations:        1254330
 CPU time [min]:     9.232                   Wall time [min]:     0.426
 ======================================================================
 Spin case  2   Alpha:  3   Beta:  1
 Number of excitations:        1040128
 CPU time [min]:    11.503                   Wall time [min]:     0.528
 ======================================================================
 Spin case  3   Alpha:  4   Beta:  0
 Number of excitations:        28876
 CPU time [min]:    11.766                   Wall time [min]:     0.539
 ======================================================================
 Number of 4-fold excitations: 2323334
 
 T_2^+ contribution:               0.000000033179
 T_3^+ contribution:              -0.000000170253
 T_1^+ * T_2^+ contribution:      -0.000000004209
 T_1^+ * <ab||ij> contribution:   -0.000000002744
 T_2^+ * f_ai contribution:        0.000000000420
 
 CPU time [min]:    11.792                   Wall time [min]:     0.540
 
 Total CCSDT[Q] energy [au]:         -14.895783694688
 Total CCSDT(Q)/A energy [au]:       -14.895783869150
 Total CCSDT(Q)/B energy [au]:       -14.895783867266

 ************************ 2018-03-09 16:59:22 *************************
 Executing goldstone...

 Generation of CC equations in terms of H and T...
 Generation of antisymmetrized Goldstone diagrams...
 Number of diagrams in T^1 equations:    15
 Number of diagrams in T^2 equations:    38
 Number of diagrams in T^3 equations:    54
 Number of diagrams in T^4 equations:    77
 Number of diagrams in T^5 equations:     8
 Translation of diagrams to factorized equations...
 Optimizing intermediate calculation...
 Number of floating-point operations per iteration step:   1.9246E+11
 Probable CPU time per iteration step (hours):      1.92
 Required memory (Mbytes):     890.8
 Number of intermediates:                                 119
 Number of intermediates to be stored:                     51
 Length of intermediate file (Mbytes):     195.0

 ************************ 2018-03-09 16:59:22 *************************
 Executing xmrcc...

 **********************************************************************
 CC(4)(5) calculation 
 
 
 Allocation of 890.8 Mbytes of memory...
 Number of spinorbitals:                   108
[...]
 maxact=off
 maxex=0
 bfbasis=none
 mem=128gb
 molden=on
 mulmet=0
 mult=3
 nacto=0
 nactv=0
 naf_cor=off
 naf_scf=off
 nafalg=albe
 naftyp=
 nchol=auto
 ndeps=1e-3
 nstate=1
 nsing=0
 ntrip=0
 occ=3,0,0,0,0,1,0,0/1,0,0,0,0,1,0,0
 optalg=
 optmaxit=50
 optetol=1e-6
 optgtol=1e-4
 optstol=1e-3
 orblocc=off
 orbloco=off
 orblocv=off
 osveps=1e-3
 ovirt=off
 ovosnorb=80.0
 ptfreq=0.0
 popul=off
 pressure=100000
 qmmm=off
 refdet=serialno
 rest=1
 rgrid=log3
 rohftype=semicanonical
 scspe=1.d0
 scsps=1.2d0
 scspt=0.33333333333333
 scfalg=auto
 scfdamp=off
 scfdiis=on
 scfdiis_end=9999
 scfdiis_start=1
 scfdiis_step=1
 scfdtol=18
 scfext=10
 scfiguess=ao
 scflshift=off
 scfmaxit=9999
 scftype=rohf
 scftol=14
 spairtol=1e-4
 symm=1
 talg=occ
 temp=298.15
 test=off
 tprint=off
 uncontract=off
 unit=angs
 verbosity=2
 wpairtol=0.100000000E-05

 ************************ 2018-03-15 15:37:07 *************************
 Executing goldstone...

 Generation of CC equations in terms of H and T...
 Generation of antisymmetrized Goldstone diagrams...
 Number of diagrams in T^1 equations:    15
 Number of diagrams in T^2 equations:    38
 Number of diagrams in T^3 equations:    54
 Number of diagrams in T^4 equations:    81
 Number of diagrams in T^5 equations:   105
 Number of diagrams in T^6 equations:   135
 Translation of diagrams to factorized equations...
 Optimizing intermediate calculation...
 Number of floating-point operations per iteration step:   1.0988E+13
 Probable CPU time per iteration step (hours):    109.88
 Required memory (Mbytes):   61408.5
 Number of intermediates:                                 194
 Number of intermediates to be stored:                     72
 Length of intermediate file (Mbytes):    1952.2

 ************************ 2018-03-15 15:37:11 *************************
 Executing xmrcc...

 **********************************************************************
 CC(                     6 ) calculation 
 
 
 Allocation of****** Mbytes of memory...
 Number of spinorbitals:                   108
 Number of alpha electrons:                        4
 Number of beta electrons:                         2
 Spin multiplicity:                     2
 z-component of spin:  1.0
 Spatial symmetry:                      1
 Convergence criterion:  1.0E-07
 Construction of occupation graphs...
 Number of                     0 -fold excitations:                      1
 Number of                     1 -fold excitations:                     66
 Number of                     2 -fold excitations:                   4655
 Number of                     3 -fold excitations:                 150100
 Number of                     4 -fold excitations:                2323334
 Number of                     5 -fold excitations:               16087328
 Number of                     6 -fold excitations:               38200224
 Total number of configurations:               56765708
 Calculation of coupling coefficients...
 Length of intermediate file (Mbytes):    1185.7
 
 ======================================================================
 
 Memory requirements /Mbyte/: 
               Minimal        Optimal
 Real*8:     248424.5798    248424.5798
 Integer:        96.2396
 Total:      248520.8195    248520.8195
 

 ************************ 2018-03-15 15:37:15 *************************
 Executing goldstone...

 Generation of MRCC equations in terms of H and T...
 Generation of antisymmetrized Goldstone diagrams...
 Number of diagrams in T^1 equations:    15
 Number of diagrams in T^2 equations:    38
 Number of diagrams in T^3 equations:    54
 Number of diagrams in T^4 equations:    81
 Number of diagrams in T^5 equations:   105
 Number of diagrams in T^6 equations:   135
 Translation of diagrams to factorized equations...
 Number of restricted diagrams in T^1 equations:     30
 Number of restricted diagrams in T^2 equations:    129
 Number of restricted diagrams in T^3 equations:    306
 Number of restricted diagrams in T^4 equations:    674
 Number of restricted diagrams in T^5 equations:   1282
 Number of restricted diagrams in T^6 equations:   2288
 Optimizing intermediate calculation...
 Number of floating-point operations per iteration step:   6.9615E+12
 Probable CPU time per iteration step (hours):     69.62
 Required memory (Mbytes):     981.7
 Number of intermediates:                                1217
 Number of intermediates to be stored:                    392
 Length of intermediate file (Mbytes):    7951.7

 ************************ 2018-03-15 15:37:27 *************************
 Executing xmrcc...

 **********************************************************************
 MRCC(                     6 ) calculation 
 
 
 Allocation of 981.7 Mbytes of memory...
 Number of spinorbitals:                   108
 Number of alpha electrons:                        4
 Number of beta electrons:                         2
 Number of active particles:                    52
 Number of active holes:                         0
 Spin multiplicity:                     2
 z-component of spin:  1.0
 Spatial symmetry:                      1
 Convergence criterion:  1.0E-07
 Construction of occupation graphs...
 Number of                     0 -fold excitations:                      1
 Number of                     1 -fold excitations:                     66
 Number of                     2 -fold excitations:                   4655
 Number of                     3 -fold excitations:                 150100
 Number of                     4 -fold excitations:                2323334
 Number of                     5 -fold excitations:               16087328
 Number of                     6 -fold excitations:               38200224
 Total number of configurations:               56765708
 Calculation of coupling coefficients...
 Length of intermediate file (Mbytes):    6864.4
 
 ======================================================================
 
 Memory requirements /Mbyte/: 
               Minimal        Optimal
 Real*8:       3154.8095      3154.8095
 Integer:       125.2336
 Total:        3280.0431      3280.0431
 
 The number of active orbitals has been changed!
 It is dangerous to restart the program!

 ************************ 2018-03-15 15:37:39 *************************
 Executing mrcc...

 **********************************************************************
 CC(6) calculation                                                      
 
 
 OpenMP parallel version is running.
 Number of CPUs:  24
 Allocation of 3154.8 Mbytes of memory...
 Number of spinorbitals: 108
 Number of alpha electrons:  4
 Number of beta  electrons:  2
 Number of active particles:                    52
 Number of active holes:                         0
 Spin multiplicity: 2
 z-component of spin:  1.0
 Spatial symmetry: 1
 Convergence criterion:  1.0E-07
 Construction of occupation graphs...
 Number of 0-fold excitations: 1
 Number of 1-fold excitations: 66
 Number of 2-fold excitations: 4655
 Number of 3-fold excitations: 150100
 Number of 4-fold excitations: 2323334
 Number of 5-fold excitations: 16087328
 Number of 6-fold excitations: 38200224
 Total number of determinants: 56765708
 Calculation of coupling coefficients...
 Initial cluster amplitudes are read from unit 16.
 Length of intermediate file (Mbytes):    6864.4
 Reading integral list from unit 55...
 Sorting integrals...
 Sorting integrals...
 Sorting integrals...
 Sorting integrals...
 Energy of reference determinant [au]:     -14.823077427855
 Calculation of MP denominators...
 
 Starting CC iteration...
 ======================================================================
 Norm of residual vector:     0.01266954
 CPU time [min]:  1118.038                   Wall time [min]:    72.103
 
 Iteration  1  CC energy:   -14.89566789  Energy decrease:   0.00032391
 ======================================================================
 Norm of residual vector:     0.00324425
 CPU time [min]:  2250.215                   Wall time [min]:   155.365
 
 Iteration  2  CC energy:   -14.89568462  Energy decrease:   0.00001672
 ======================================================================
 Norm of residual vector:     0.00324082
 CPU time [min]:  3415.155                   Wall time [min]:   246.726
 
 Iteration  3  CC energy:   -14.89575490  Energy decrease:   0.00007029
 ======================================================================
 Norm of residual vector:     0.00058703
 CPU time [min]:  4555.550                   Wall time [min]:   334.234
 
 Iteration  4  CC energy:   -14.89579381  Energy decrease:   0.00003891
 ======================================================================
 Norm of residual vector:     0.00022573
 CPU time [min]:  5716.754                   Wall time [min]:   419.812
 
 Iteration  5  CC energy:   -14.89579015  Energy decrease:   0.00000367
 ======================================================================
 Norm of residual vector:     0.00013270
 CPU time [min]:  6881.883                   Wall time [min]:   510.383
 
 Iteration  6  CC energy:   -14.89578290  Energy decrease:   0.00000725
 ======================================================================
 Norm of residual vector:     0.00003518
 CPU time [min]:  8073.302                   Wall time [min]:   591.439
 
 Iteration  7  CC energy:   -14.89578364  Energy decrease:   0.00000075
 ======================================================================
 Norm of residual vector:     0.00001235
 CPU time [min]:  9256.220                   Wall time [min]:   670.466
 
 Iteration  8  CC energy:   -14.89578403  Energy decrease:   0.00000039
 ======================================================================
 Norm of residual vector:     0.00000376
 CPU time [min]: 10394.220                   Wall time [min]:   745.450
 
 Iteration  9  CC energy:   -14.89578391  Energy decrease:   0.00000012
 ======================================================================
 Norm of residual vector:     0.00000126
 CPU time [min]: 11545.304                   Wall time [min]:   823.795
 
 Iteration 10  CC energy:   -14.89578389  Energy decrease:   0.00000002
 ======================================================================
 Norm of residual vector:     0.00000035
 CPU time [min]: 12691.091                   Wall time [min]:   901.497
 
 Iteration 11  CC energy:   -14.89578391  Energy decrease:   0.00000001
 ======================================================================
 Norm of residual vector:     0.00000011
 CPU time [min]: 13846.299                   Wall time [min]:   986.627
 
 Iteration 12  CC energy:   -14.89578391  Energy decrease:   1.4874E-09
 ======================================================================
 Norm of residual vector:     0.00000004
 CPU time [min]: 15011.316                   Wall time [min]:  1084.618
 
 Iteration 13  CC energy:   -14.89578391  Energy decrease:   9.7689E-10
 ======================================================================
 
 Iteration has converged in 13 steps.
 
 Final results:
 Total CC(6) energy [au]:            -14.895783909691
 
 ************************ 2018-03-16 09:43:06 *************************
                      Normal termination of mrcc.
 **********************************************************************
--- SharcNET Job Epilogue ---
Job completed successfully.
               jobid: 1528011
               resid: 3010151
         exit status: 0
      allocated time: 65161.2
           user time: 658948
         system time: 241774
peak rss=19806306304; peak vsz=19806306304 (bytes)
atime=65161.2; utime=658948; stime=241774; exit=0


 **********************************************************************
                          MRCC program system
 **********************************************************************
 
                              Written by
    Mihaly Kallay, Zoltan Rolik, Jozsef Csontos, Istvan Ladjanszki,
       Lorant Szegedy, Bence Ladoczki, Gyula Samu, Klara Petrov,
        Mate Farkas, Peter Nagy, David Mester, and Bence Hegely
 
        Department of Physical Chemistry and Materials Science
            Budapest University of Technology and Economics
                  Budapest P.O.Box 91, H-1521 Hungary
 
                              www.mrcc.hu

 ************************ 2018-03-13 22:54:40 *************************
 Executing minp...

 Reading input from MINP...
 
 Input file:
 
# TITLE
basis=aug-cc-pCVDZ
iface=cfour
uncontract=off
calc=CC(5)(6)
mem=128GB
core=corr
itol=18
scftol=14
cctol=7
ccmaxit=999
scfmaxit=9999
scfiguess=ao
scftype=ROHF
rohftype=semicanonical
rest=1
refdet=serialno
1,2
3,4

symm=1
mult=3
occ=3,0,0,0,0,1,0,0/1,0,0,0,0,1,0,0
geom
Li
Li 1 R

R=3.065

unit=angstroms

 
 
 Checking keyword combinations...
 
 Keywords:
 
 active=none
 agrid=ld0006-ld0590
 basis=aug-cc-pcvdz
 basopt=off
 bpcompo=0.985
 bpcompv=0.98
 bpdfo=0.985
 bpocc=0.985
 bppdo=0.985
 bppdv=0.98
 bpedo=0.985
 bpedv=0.98
 calc=cc(5)(6)
 ccmaxit=999
 ccprog=mrcc
 cctol=7
 charge=0
 cialg=disk
 ciguess=off
 cmpgrp=auto
 core=corr
 corembed=off
 dboc=off
 dendec=cholesky
 dens=0
 dfalg=invsqrt
 dfbasis_cor=none
 dfbasis_scf=none
 dfintran=ovirt
 dft=off
 diag=david
 domrad=10.d0
 drpaalg=fit
 ecp=auto
 edisp=off
 embed=off
 epert=none
 eps=0.975
 excrad=0.d0
 excrad_fin=0.000000000D+00
 freq=off
 gauss=spher
 geom=zmat
 gopt=off
 ghost=none
 gtol=7
 grtol=10
 hamilton=dc
 iface=cfour
 intalg=auto
 itol=18
 lcorthr=loose
 lccrest=off
 lmp2dens=on
 lnoepso=3e-5
 lnoepsv=1e-6
 localcc=off
 locintrf=disk
 maxact=off
 maxex=0
 bfbasis=none
 mem=128gb
 molden=on
 mulmet=0
 mult=3
 nacto=0
 nactv=0
 naf_cor=off
 naf_scf=off
 nafalg=albe
 naftyp=
 nchol=auto
 ndeps=1e-3
 nstate=1
 nsing=0
 ntrip=0
 occ=3,0,0,0,0,1,0,0/1,0,0,0,0,1,0,0
 optalg=
 optmaxit=50
 optetol=1e-6
 optgtol=1e-4
 optstol=1e-3
 orblocc=off
 orbloco=off
 orblocv=off
 osveps=1e-3
 ovirt=off
 ovosnorb=80.0
 ptfreq=0.0
 popul=off
 pressure=100000
 qmmm=off
 refdet=serialno
 rest=1
 rgrid=log3
 rohftype=semicanonical
 scspe=1.d0
 scsps=1.2d0
 scspt=0.33333333333333
 scfalg=auto
 scfdamp=off
 scfdiis=on
 scfdiis_end=9999
 scfdiis_start=1
 scfdiis_step=1
 scfdtol=18
 scfext=10
 scfiguess=ao
 scflshift=off
 scfmaxit=9999
 scftype=rohf
 scftol=14
 spairtol=1e-4
 symm=1
 talg=occ
 temp=298.15
 test=off
 tprint=off
 uncontract=off
 unit=angs
 verbosity=2
 wpairtol=0.100000000E-05

 ************************ 2018-03-13 22:54:44 *************************
 Executing goldstone...

 Generation of CC equations in terms of H and T...
 Generation of antisymmetrized Goldstone diagrams...
 Number of diagrams in T^1 equations:    15
 Number of diagrams in T^2 equations:    38
 Number of diagrams in T^3 equations:    54
 Number of diagrams in T^4 equations:    81
 Number of diagrams in T^5 equations:   102
 Number of diagrams in T^6 equations:    14
 Translation of diagrams to factorized equations...
 Optimizing intermediate calculation...
 Number of floating-point operations per iteration step:   3.1575E+12
 Probable CPU time per iteration step (hours):     31.58
 Required memory (Mbytes):    4777.5
 Number of intermediates:                                 165
 Number of intermediates to be stored:                     67
 Length of intermediate file (Mbytes):    4624.7

 ************************ 2018-03-13 22:54:48 *************************
 Executing xmrcc...

 **********************************************************************
 CC(5)(6) calculation 
 
 
 Allocation of4777.5 Mbytes of memory...
 Number of spinorbitals:                   108
 Number of alpha electrons:                        4
 Number of beta electrons:                         2
 Spin multiplicity:                     2
 z-component of spin:  1.0
 Spatial symmetry:                      1
 Convergence criterion:  1.0E-07
 Construction of occupation graphs...
 Number of                     0 -fold excitations:                      1
 Number of                     1 -fold excitations:                     66
 Number of                     2 -fold excitations:                   4655
 Number of                     3 -fold excitations:                 150100
 Number of                     4 -fold excitations:                2323334
 Number of                     5 -fold excitations:               16087328
 Total number of configurations:               18565484
 Calculation of coupling coefficients...
 Length of intermediate file (Mbytes):    2439.5
 
 ======================================================================
 
 Spin case  1   Alpha:  4   Beta:  2
 Number of excitations:               38200224
 Number of                     6 -fold excitations:               38200224
 
 Memory requirements /Mbyte/: 
               Minimal        Optimal
 Real*8:      23469.1686     23469.1686
 Integer:        96.1814
 Total:       23565.3500     23565.3500
 

 ************************ 2018-03-13 22:54:55 *************************
 Executing mrcc...

 **********************************************************************
 CC(5)(6) calculation                                                   
 
 
 OpenMP parallel version is running.
 Number of CPUs:  24
 Allocation of23469.2 Mbytes of memory...
 Number of spinorbitals: 108
 Number of alpha electrons:  4
 Number of beta  electrons:  2
 Spin multiplicity: 2
 z-component of spin:  1.0
 Spatial symmetry: 1
 Convergence criterion:  1.0E-07
 Construction of occupation graphs...
 Number of 0-fold excitations: 1
 Number of 1-fold excitations: 66
 Number of 2-fold excitations: 4655
 Number of 3-fold excitations: 150100
 Number of 4-fold excitations: 2323334
 Number of 5-fold excitations: 16087328
 Total number of determinants: 18565484
 Calculation of coupling coefficients...
 Initial cluster amplitudes are read from unit 16.
 Length of intermediate file (Mbytes):    2439.5
 Reading integral list from unit 55...
 Sorting integrals...
 Sorting integrals...
 Sorting integrals...
 Sorting integrals...
 Energy of reference determinant [au]:     -14.823077427855
 Calculation of MP denominators...
 
 Starting CC iteration...
 ======================================================================
 Norm of residual vector:     0.00000002
 CPU time [min]:    77.618                   Wall time [min]:     7.157
 
 Iteration  1  CC energy:   -14.89578391  Energy decrease:   3.2257E-11
 ======================================================================
 
 Iteration has converged in  1 steps.
 
 Final results:
 Total CCSDTQP energy [au]:          -14.895783909401
 
 Perturbative corrections are calculated...
 ======================================================================
 Spin case  1   Alpha:  4   Beta:  2
 Number of excitations:        38200224
 CPU time [min]:  1503.479                   Wall time [min]:    87.053
 ======================================================================
 Number of 6-fold excitations: 38200224
 
 T_2^+ contribution:              -0.000000000000
 T_2^+ contribution:              -0.000000000000
 T_3^+ contribution:              -0.000000000000
 T_1^+ * T_2^+ contribution:      -0.000000000000
 T_1^+ * <ab||ij> contribution:    0.000000000000
 T_2^+ * f_ai contribution:       -0.000000000000
 
 CPU time [min]:  1507.973                   Wall time [min]:    87.638
 
 Total CC(5)[6] energy [au]:         -14.895783909401
 Total CC(5)(6)/A energy [au]:       -14.895783909401
 Total CC(5)(6)/B energy [au]:       -14.895783909401
 
 ************************ 2018-03-14 00:22:49 *************************
                      Normal termination of mrcc.
 **********************************************************************
--- SharcNET Job Epilogue ---
Job completed successfully.
               jobid: 1528278
               resid: 3010131
         exit status: 0
      allocated time: 5290.54
           user time: 88684.9
         system time: 1809.02
peak rss=30360793088; peak vsz=30360793088 (bytes)
atime=5290.54; utime=88684.9; stime=1809.02; exit=0
