************************************************************************
* This file is part of OpenMolcas.                                     *
*                                                                      *
* OpenMolcas is free software; you can redistribute it and/or modify   *
* it under the terms of the GNU Lesser General Public License, v. 2.1. *
* OpenMolcas is distributed in the hope that it will be useful, but it *
* is provided "as is" and without any express or implied warranties.   *
* For more details see the full text of the license in the file        *
* LICENSE or in <http://www.gnu.org/licenses/>.                        *
************************************************************************

#Hamiltonian NRH
#Nucleus UNK
#Contraction CCC
#AllElectron AE_

************************************************************************
* This file has been generated by Nike Dattani from the AI_ENERGIES    *
* https://github.com/HPQC-LABS/AI_ENERGIES/blob/master/GENBAS database *
************************************************************************

/C.aug-cc-pV7Z.DattaniFeller.19s13p7d6f5g4h3i2k.9s8p7d6f5g4h3i2k.
https://github.com/HPQC-LABS/AI_ENERGIES/blob/master/GENBAS
CARBON (19s,13p,7d,6f,5g,4h,3i,2k) -> [9s,8p,7d,6f,5g,4h,3i,2k] 
     6.0   7
* s-type functions
    19    9
          0.9490288E+06 
	  0.1420830E+06 
	  0.3233247E+05 
	  0.9158117E+04 
	  0.2987909E+04 
	  0.1078788E+04 
	  0.4208308E+03 
	  0.1746003E+03 
	  0.7618292E+02 
	  0.3463588E+02 
	  0.1627076E+02 
	  0.7855479E+01 
	  0.3882172E+01 
	  0.1928334E+01 
	  0.8358060E+00 
	  0.3862910E+00 
	  0.1768600E+00 
	  0.8025200E-01 
	  0.0321008
0.14E-05      -0.30E-06      0.0000000  0.0000000  0.0000000  0.0000000 0.0000000 0.0000000 0.0000000
0.11E-04      -0.23E-05      0.0000000  0.0000000  0.0000000  0.0000000 0.0000000 0.0000000 0.0000000
0.578E-04     -0.123E-04     0.0000000  0.0000000  0.0000000  0.0000000 0.0000000 0.0000000 0.0000000
0.2444000E-03 -0.52E-04      0.0000000  0.0000000  0.0000000  0.0000000 0.0000000 0.0000000 0.0000000
0.891E-03     -0.19E-03      0.0000000  0.0000000  0.0000000  0.0000000 0.0000000 0.0000000 0.0000000
0.2904000E-02 -0.62E-03      0.0000000  0.0000000  0.0000000  0.0000000 0.0000000 0.0000000 0.0000000
0.8631000E-02 -0.1855000E-02 0.0000000  0.0000000  0.0000000  0.0000000 0.0000000 0.0000000 0.0000000
0.2352900E-01 -0.5092000E-02 0.0000000  0.0000000  0.0000000  0.0000000 0.0000000 0.0000000 0.0000000
0.5816100E-01 -0.1291600E-01 0.0000000  0.0000000  0.0000000  0.0000000 0.0000000 0.0000000 0.0000000
0.1266240E+00 -0.2923000E-01 0.0000000  0.0000000  0.0000000  0.0000000 0.0000000 0.0000000 0.0000000
0.2304650E+00 -0.5841400E-01 0.0000000  0.0000000  0.0000000  0.0000000 0.0000000 0.0000000 0.0000000
0.3192970E+00 -0.9665500E-01 0.0000000  0.0000000  0.0000000  0.0000000 0.0000000 0.0000000 0.0000000
0.0000000E+00 -0.0000000E+00 1.0000000  0.0000000  0.0000000  0.0000000 0.0000000 0.0000000 0.0000000
0.0000000E+00 -0.0000000E-01 0.0000000  1.0000000  0.0000000  0.0000000 0.0000000 0.0000000 0.0000000
0.0000000E-02  0.0000000E+00 0.0000000  0.0000000  1.0000000  0.0000000 0.0000000 0.0000000 0.0000000
0.00E-05       0.0000000E+00 0.0000000  0.0000000  0.0000000  1.0000000 0.0000000 0.0000000 0.0000000
0.000E-03      0.0000000E+00 0.0000000  0.0000000  0.0000000  0.0000000 1.0000000 0.0000000 0.0000000
-0.000E-04     0.0000000E+00 0.0000000  0.0000000  0.0000000  0.0000000 0.0000000 1.0000000 0.0000000
0.0            0.0           0.0000000  0.0000000  0.0000000  0.0000000 0.0000000 0.0000000 1.0000000
* p-type functions
    13    8
          0.7654553E+03 
	  0.1808628E+03 
	  0.5871441E+02 
	  0.2241625E+02 
	  0.9406214E+01 
	  0.4187198E+01 
	  0.1955876E+01 
	  0.9453360E+00 
	  0.4627630E+00 
	  0.2267960E+00 
	  0.1105920E+00 
	  0.524E-01  
	  0.019407
0.272E-04     0.0000000  0.0000000  0.0000000  0.0000000 0.0000000 0.0000000 0.0000000
0.241E-03     0.0000000  0.0000000  0.0000000  0.0000000 0.0000000 0.0000000 0.0000000
0.1357000E-02 0.0000000  0.0000000  0.0000000  0.0000000 0.0000000 0.0000000 0.0000000
0.562E-02     0.0000000  0.0000000  0.0000000  0.0000000 0.0000000 0.0000000 0.0000000
0.1826700E-01 0.0000000  0.0000000  0.0000000  0.0000000 0.0000000 0.0000000 0.0000000
0.5001900E-01 0.0000000  0.0000000  0.0000000  0.0000000 0.0000000 0.0000000 0.0000000
0.1164080E+00 1.0000000  0.0000000  0.0000000  0.0000000 0.0000000 0.0000000 0.0000000
0.0000000E+00 0.0000000  1.0000000  0.0000000  0.0000000 0.0000000 0.0000000 0.0000000
0.0000000E+00 0.0000000  0.0000000  1.0000000  0.0000000 0.0000000 0.0000000 0.0000000
0.0000000E+00 0.0000000  0.0000000  0.0000000  1.0000000 0.0000000 0.0000000 0.0000000
0.0000000E+00 0.0000000  0.0000000  0.0000000  0.0000000 1.0000000 0.0000000 0.0000000
0.0000000E-01 0.0000000  0.0000000  0.0000000  0.0000000 0.0000000 1.0000000 0.0000000
0.0           0.0000000  0.0000000  0.0000000  0.0000000 0.0000000 0.0000000 1.0000000
* d-type functions
    7     7
          5.80319 
	  2.75811 
	  1.31086 
	  0.62302 
	  0.29610 
	  0.14073 
	  0.05840
1.0000000  0.0000000  0.0000000 0.0000000 0.0000000 0.0000000 0.0000000
0.0000000  1.0000000  0.0000000 0.0000000 0.0000000 0.0000000 0.0000000
0.0000000  0.0000000  1.0000000 0.0000000 0.0000000 0.0000000 0.0000000
0.0000000  0.0000000  0.0000000 1.0000000 0.0000000 0.0000000 0.0000000
0.0000000  0.0000000  0.0000000 0.0000000 1.0000000 0.0000000 0.0000000
0.0000000  0.0000000  0.0000000 0.0000000 0.0000000 1.0000000 0.0000000
0.0000000  0.0000000  0.0000000 0.0000000 0.0000000 0.0000000 1.0000000
* f-type functions
    6     6
          3.31553 
	  1.74776 
	  0.92133 
	  0.48567 
	  0.25602  
	  0.11020
1.0000000 0.0000000 0.0000000 0.0000000 0.0000000 0.0000000
0.0000000 1.0000000 0.0000000 0.0000000 0.0000000 0.0000000
0.0000000 0.0000000 1.0000000 0.0000000 0.0000000 0.0000000
0.0000000 0.0000000 0.0000000 1.0000000 0.0000000 0.0000000
0.0000000 0.0000000 0.0000000 0.0000000 1.0000000 0.0000000
0.0000000 0.0000000 0.0000000 0.0000000 0.0000000 1.0000000
* g-type functions
    5     5
          3.62722 
	  1.83501 
	  0.92833 
	  0.4696 
	  0.21720
1.0000000 0.0000000 0.0000000 0.0000000 0.0000000
0.0000000 1.0000000 0.0000000 0.0000000 0.0000000
0.0000000 0.0000000 1.0000000 0.0000000 0.0000000
0.0000000 0.0000000 0.0000000 1.0000000 0.0000000
0.0000000 0.0000000 0.0000000 0.0000000 1.0000000
* h-type functions
    4     4
          2.75639 
	  1.36308 
	  0.67407  
	  0.34760
1.0000000 0.0000000 0.0000000 0.0
0.0000000 1.0000000 0.0000000 0.0
0.0000000 0.0000000 1.0000000 0.0
0.0000000 0.0000000 0.0000000 1.0
* i-type functions
    3     3
          2.37436 
	  1.05532 
	  0.58500
1.0000000 0.0 0.0
0.0000000 1.0 0.0
0.0000000 0.0 1.0
* k-type functions
    2     2
          1.956 
	  0.9780
1.0000000 0.0
0.0000000 1.0

C:aV8Z-FELLER
EMSL BASIS SET LIBRARY

  9
    0    1    2    3    4    5    6 7 8
   10    9    8    7    6    5    4 3 2
   21   15    8    7    6    5    4 3 2

      2764616.420000 426928.625000 100120.188000 29028.317100 9622.802270 3511.201210 1380.844760 577.053010 252.617585 114.419479 53.243429 25.370531 12.344542 6.121284 3.076436 1.531757 0.735998 0.347522 0.163610 0.076138  0.02577000

0.0              0.0             0.00 0.00 0.00 0.00 0.00 0.00 0.00 0.00
0.370000000E-06 -0.800000000E-07 0.00 0.00 0.00 0.00 0.00 0.00 0.00 0.00
0.273000000E-05 -0.580000000E-06 0.00 0.00 0.00 0.00 0.00 0.00 0.00 0.00
0.138000000E-04 -0.294000000E-05 0.00 0.00 0.00 0.00 0.00 0.00 0.00 0.00
0.568800000E-04 -0.121200000E-04 0.00 0.00 0.00 0.00 0.00 0.00 0.00 0.00
0.204380000E-03 -0.435800000E-04 0.00 0.00 0.00 0.00 0.00 0.00 0.00 0.00
0.662330000E-03 -0.141190000E-03 0.00 0.00 0.00 0.00 0.00 0.00 0.00 0.00
0.196985000E-02 -0.420840000E-03 0.00 0.00 0.00 0.00 0.00 0.00 0.00 0.00
0.545843000E-02 -0.116861000E-02 0.00 0.00 0.00 0.00 0.00 0.00 0.00 0.00
0.142901200E-01 -0.308371000E-02 0.00 0.00 0.00 0.00 0.00 0.00 0.00 0.00
0.352744800E-01 -0.771202000E-02 0.00 0.00 0.00 0.00 0.00 0.00 0.00 0.00
0.800365800E-01 -0.180361100E-01 0.00 0.00 0.00 0.00 0.00 0.00 0.00 0.00
0.159727770     -0.379958800E-01 0.00 0.00 0.00 0.00 0.00 0.00 0.00 0.00
0.263355200     -0.702213800E-01 1.00 0.00 0.00 0.00 0.00 0.00 0.00 0.00
0.0              0.0             0.0  1.0  0.00 0.00 0.00 0.00 0.00 0.00
0.0              0.0             0.00 0.00 1.0  0.00 0.00 0.00 0.00 0.00
0.0              0.0             0.00 0.00 0.00 1.0  0.00 0.00 0.00 0.00
0.0              0.0             0.00 0.00 0.00 0.00 1.0  0.00 0.00 0.00
0.0              0.0             0.00 0.00 0.00 0.00 0.00 1.0  0.00 0.00
0.0              0.0             0.00 0.00 0.00 0.00 0.00 0.00 1.0  0.00
0.0              0.0             0.00 0.00 0.00 0.00 0.00 0.00 0.00 1.0

      3240.457250 761.645378 181.542861 58.635685 22.377059 9.424354 4.193964 1.948406 0.937873 0.461320 0.230344 0.116161 0.057987 0.023226  0.00930000

0.000002 0.00 0.00 0.00 0.00 0.00 0.00 0.00 0.00
0.000025 0.00 0.00 0.00 0.00 0.00 0.00 0.00 0.00
0.000242 0.00 0.00 0.00 0.00 0.00 0.00 0.00 0.00
0.001363 0.00 0.00 0.00 0.00 0.00 0.00 0.00 0.00
0.005619 0.00 0.00 0.00 0.00 0.00 0.00 0.00 0.00
0.018156 0.00 0.00 0.00 0.00 0.00 0.00 0.00 0.00
0.050146 0.00 0.00 0.00 0.00 0.00 0.00 0.00 0.00
0.0      1.0  0.00 0.00 0.00 0.00 0.00 0.00 0.00
0.0      0.00 1.0  0.00 0.00 0.00 0.00 0.00 0.00
0.0      0.00 0.00 1.0  0.00 0.00 0.00 0.00 0.00
0.0      0.00 0.00 0.00 1.0  0.00 0.00 0.00 0.00
0.0      0.00 0.00 0.00 0.00 1.0  0.00 0.00 0.00
0.0      0.00 0.00 0.00 0.00 0.00 1.0  0.00 0.00
0.0      0.00 0.00 0.00 0.00 0.00 0.00 1.0  0.00
0.0      0.00 0.00 0.00 0.00 0.00 0.00 0.00 1.0

        9.648573 4.754333 2.342697 1.154364 0.568813 0.280282 0.138109  0.06805000

1.0  0.00 0.00 0.00 0.00 0.00 0.00 0.00
0.00 1.0  0.00 0.00 0.00 0.00 0.00 0.00
0.00 0.00 1.0  0.00 0.00 0.00 0.00 0.00
0.00 0.00 0.00 1.0  0.00 0.00 0.00 0.00
0.00 0.00 0.00 0.00 1.0  0.00 0.00 0.00
0.00 0.00 0.00 0.00 0.00 1.0  0.00 0.00
0.00 0.00 0.00 0.00 0.00 0.00 1.0  0.00
0.00 0.00 0.00 0.00 0.00 0.00 0.00 1.0

     4.808565 2.590503 1.395573 0.751833 0.405032 0.218202  0.11755000

1.0  0.00 0.00 0.00 0.00 0.00 0.00
0.00 1.0  0.00 0.00 0.00 0.00 0.00
0.00 0.00 1.0  0.00 0.00 0.00 0.00
0.00 0.00 0.00 1.0  0.00 0.00 0.00
0.00 0.00 0.00 0.00 1.0  0.00 0.00
0.00 0.00 0.00 0.00 0.00 1.0  0.00
0.00 0.00 0.00 0.00 0.00 0.00 1.0

      5.184773 2.748640 1.457155 0.772492 0.409526  0.21711000

1.0  0.00 0.00 0.00 0.00 0.00
0.00 1.0  0.00 0.00 0.00 0.00
0.00 0.00 1.0  0.00 0.00 0.00
0.00 0.00 0.00 1.0  0.00 0.00
0.00 0.00 0.00 0.00 1.0  0.00
0.00 0.00 0.00 0.00 0.00 1.0

      3.314608 1.843416 1.025214 0.570172  0.31710000

1.0  0.00 0.00 0.00 0.00
0.00 1.0  0.00 0.00 0.00
0.00 0.00 1.0  0.00 0.00
0.00 0.00 0.00 1.0  0.00
0.00 0.00 0.00 0.00 1.0

     3.285238 1.662151 0.840958 0.42548000

1.0  0.00 0.00 0.00
0.00 1.0  0.00 0.00
0.00 0.00 1.0  0.00
0.00 0.00 0.00 1.0

      2.98083000 1.36906000 0.62879000

1.0  0.00 0.00
0.00 1.0  0.00
0.00 0.00 1.0

      2.01943000 0.92750000

1.0  0.00
0.00 1.0

C:aV6Z-FELLER
EMSL BASIS SET LIBRARY

  7
    0    1    2    3    4    5    6
    8    8    6    5    4    3    2
   17   11    6    5    4    3    2

312100.  46740.0  10640.0  3013.00  982.800  354.800  138.400  57.3500  24.9200  11.2300  5.20100  2.42600  0.96730  0.44560  0.19710  0.08635  0.03540

 0.00000567  -0.00000121  0.0   0.0   0.0   0.0   0.0 0.0
 0.00004410  -0.00000939  0.0   0.0   0.0   0.0   0.0 0.0
 0.00023190  -0.00004947  0.0   0.0   0.0   0.0   0.0 0.0
 0.00097897  -0.00020857  0.0   0.0   0.0   0.0   0.0 0.0
 0.00355163  -0.00076015  0.0   0.0   0.0   0.0   0.0 0.0
 0.01144061  -0.00245469  0.0   0.0   0.0   0.0   0.0 0.0
 0.03299855  -0.00720153  0.0   0.0   0.0   0.0   0.0 0.0
 0.08405347  -0.01880742  0.0   0.0   0.0   0.0   0.0 0.0
 0.18067613  -0.04325001  0.0   0.0   0.0   0.0   0.0 0.0
 0.30491140  -0.08259733  0.0   0.0   0.0   0.0   0.0 0.0
 0.34141570  -0.12857592  0.0   0.0   0.0   0.0   0.0 0.0
 0.17717867  -0.10760284  1.0   0.0   0.0   0.0   0.0 0.0
 0.01892227   0.12407734  0.0   1.0   0.0   0.0   0.0 0.0
-0.00171121   0.42851768  0.0   0.0   1.0   0.0   0.0 0.0
 0.00103578   0.46123320  0.0   0.0   0.0   1.0   0.0 0.0
-0.00015204   0.13761657  0.0   0.0   0.0   0.0   1.0 0.0
 0.00000000   0.00000000  0.0   0.0   0.0   0.0   0.0 1.0

295.200   69.9800   22.6400   8.48500   3.45900   1.50400   0.67830   0.30870   0.14000   0.06178   0.02376

0.00014249 0.0 0.0 0.0 0.0 0.0 0.0 0.0
0.00122010 0.0 0.0 0.0 0.0 0.0 0.0 0.0
0.00633696 0.0 0.0 0.0 0.0 0.0 0.0 0.0
0.02351875 0.0 0.0 0.0 0.0 0.0 0.0 0.0
0.06990447 1.0 0.0 0.0 0.0 0.0 0.0 0.0
0.16546049 0.0 1.0 0.0 0.0 0.0 0.0 0.0
0.28710436 0.0 0.0 1.0 0.0 0.0 0.0 0.0
0.35280269 0.0 0.0 0.0 1.0 0.0 0.0 0.0
0.26533663 0.0 0.0 0.0 0.0 1.0 0.0 0.0
0.07173361 0.0 0.0 0.0 0.0 0.0 1.0 0.0
0.00000000 0.0 0.0 0.0 0.0 0.0 0.0 1.0

4.5420      1.9790      0.8621      0.3756      0.1636     0.06360

 1.000000   0.0        0.0   0.0   0.0 0.0
 0.0        1.000000   0.0   0.0   0.0 0.0
 0.0        0.0        1.0   0.0   0.0 0.0
 0.0        0.0        0.0   1.0   0.0 0.0
 0.0        0.0        0.0   0.0   1.0 0.0
 0.0        0.0        0.0   0.0   0.0 1.0

2.6310       1.2550       0.5988       0.2857      0.1180

1.000000   0.0        0.0   0.0  0.0
0.0        1.000000   0.0   0.0  0.0
0.0        0.0        1.0   0.0  0.0
0.0        0.0        0.0   1.0  0.0
0.0        0.0        0.0   0.0  1.0

2.6520      1.2040      0.5470    0.2540

 1.000000   0.0        0.0  0.0
 0.0        1.000000   0.0  0.0
 0.0        0.0        1.0  0.0
 0.0        0.0        0.0  1.0

2.0300       0.8511    0.4510

1.0        0.0  0.0
0.0        1.0  0.0
0.0        0.0  1.0

1.4910  0.7760

1.0 0.0
0.0 1.0




C:aV6Z-EMSL
EMSL BASIS SET LIBRARY

  7
    0    1    2    3    4    5    6
    8    7    6    5    4    3    2
   17   11    6    5    4    3    2

 312100.000000 46740.0000000 10640.0000000  3013.0000000   982.8000000
   354.8000000   138.4000000    57.3500000    24.9200000    11.2300000
     5.2010000     2.4260000     0.9673000     0.4456000     0.1971000
     0.0863500     0.0354000

 0.0000056 -0.0000012  0.0000000  0.0000000  0.0000000  0.0000000  0.0000000
 0.0000000
 0.0000441 -0.0000093  0.0000000  0.0000000  0.0000000  0.0000000  0.0000000
 0.0000000
 0.0002319 -0.0000494  0.0000000  0.0000000  0.0000000  0.0000000  0.0000000
 0.0000000
 0.0009789 -0.0002085  0.0000000  0.0000000  0.0000000  0.0000000  0.0000000
 0.0000000
 0.0035516 -0.0007601  0.0000000  0.0000000  0.0000000  0.0000000  0.0000000
 0.0000000
 0.0114406 -0.0024546  0.0000000  0.0000000  0.0000000  0.0000000  0.0000000
 0.0000000
 0.0329985 -0.0072015  0.0000000  0.0000000  0.0000000  0.0000000  0.0000000
 0.0000000
 0.0840534 -0.0188074  0.0000000  0.0000000  0.0000000  0.0000000  0.0000000
 0.0000000
 0.1806761 -0.0432500  0.0000000  0.0000000  0.0000000  0.0000000  0.0000000
 0.0000000
 0.3049114 -0.0825973  0.0000000  0.0000000  0.0000000  0.0000000  0.0000000
 0.0000000
 0.3414157 -0.1285759  0.0000000  0.0000000  0.0000000  0.0000000  0.0000000
 0.0000000
 0.1771786 -0.1076028  1.0000000  0.0000000  0.0000000  0.0000000  0.0000000
 0.0000000
 0.0189222  0.1240773  0.0000000  1.0000000  0.0000000  0.0000000  0.0000000
 0.0000000
-0.0017112  0.4285176  0.0000000  0.0000000  1.0000000  0.0000000  0.0000000
 0.0000000
 0.0010357  0.4612332  0.0000000  0.0000000  0.0000000  1.0000000  0.0000000
 0.0000000
-0.0001520  0.1376165  0.0000000  0.0000000  0.0000000  0.0000000  1.0000000
 0.0000000
 0.0000000  0.0000000  0.0000000  0.0000000  0.0000000  0.0000000  0.0000000
 1.0000000

   295.2000000    69.9800000    22.6400000     8.4850000     3.4590000
     1.5040000     0.6783000     0.3087000     0.1400000     0.0617800
     0.0237600

 0.0001424  0.0000000  0.0000000  0.0000000  0.0000000  0.0000000  0.0000000
 0.0012201  0.0000000  0.0000000  0.0000000  0.0000000  0.0000000  0.0000000
 0.0063369  0.0000000  0.0000000  0.0000000  0.0000000  0.0000000  0.0000000
 0.0235187  0.0000000  0.0000000  0.0000000  0.0000000  0.0000000  0.0000000
 0.0699044  0.0000000  0.0000000  0.0000000  0.0000000  0.0000000  0.0000000
 0.1654604  1.0000000  0.0000000  0.0000000  0.0000000  0.0000000  0.0000000
 0.2871043  0.0000000  1.0000000  0.0000000  0.0000000  0.0000000  0.0000000
 0.3528026  0.0000000  0.0000000  1.0000000  0.0000000  0.0000000  0.0000000
 0.2653366  0.0000000  0.0000000  0.0000000  1.0000000  0.0000000  0.0000000
 0.0717336  0.0000000  0.0000000  0.0000000  0.0000000  1.0000000  0.0000000
 0.0000000  0.0000000  0.0000000  0.0000000  0.0000000  0.0000000  1.0000000

     4.5420000     1.9790000     0.8621000     0.3756000     0.1636000
     0.0636000

 1.0000000  0.0000000  0.0000000  0.0000000  0.0000000  0.0000000
 0.0000000  1.0000000  0.0000000  0.0000000  0.0000000  0.0000000
 0.0000000  0.0000000  1.0000000  0.0000000  0.0000000  0.0000000
 0.0000000  0.0000000  0.0000000  1.0000000  0.0000000  0.0000000
 0.0000000  0.0000000  0.0000000  0.0000000  1.0000000  0.0000000
 0.0000000  0.0000000  0.0000000  0.0000000  0.0000000  1.0000000

     2.6310000     1.2550000     0.5988000     0.2857000     0.1180000

 1.0000000  0.0000000  0.0000000  0.0000000  0.0000000
 0.0000000  1.0000000  0.0000000  0.0000000  0.0000000
 0.0000000  0.0000000  1.0000000  0.0000000  0.0000000
 0.0000000  0.0000000  0.0000000  1.0000000  0.0000000
 0.0000000  0.0000000  0.0000000  0.0000000  1.0000000

     2.6520000     1.2040000     0.5470000     0.2540000

 1.0000000  0.0000000  0.0000000  0.0000000
 0.0000000  1.0000000  0.0000000  0.0000000
 0.0000000  0.0000000  1.0000000  0.0000000
 0.0000000  0.0000000  0.0000000  1.0000000

     2.0300000     0.8511000     0.4510000

 1.0000000  0.0000000  0.0000000
 0.0000000  1.0000000  0.0000000
 0.0000000  0.0000000  1.0000000

     1.4910000     0.7760000

 1.0000000  0.0000000
 0.0000000  1.0000000

C:aV9Z-FELLER
EMSL BASIS SET LIBRARY

  10
    0    1    2    3    4    5    6 7 8 9
   11   10    9    8    7    6    5 4 3 2
   23   17    9    8    7    6    5 4 3 2

8446504.1 1250293.5 281186.21 76849.358 24060.211 8442.7783 3250.9923 1339.5446 577.58611 254.84875 115.36232 53.751502 25.647907 12.549058 6.2703580  3.1941910  1.6309190  0.8030740  0.3971520  0.1986730  0.1016200  0.0517680 0.01617

 0.00000009 -0.00000002 0.00 0.00 0.00 0.00 0.00 0.00 0.00 0.00 0.00
 0.00000073 -0.00000015 0.00 0.00 0.00 0.00 0.00 0.00 0.00 0.00 0.00
 0.00000395 -0.00000084 0.00 0.00 0.00 0.00 0.00 0.00 0.00 0.00 0.00
 0.00001773 -0.00000378 0.00 0.00 0.00 0.00 0.00 0.00 0.00 0.00 0.00
 0.00006817 -0.00001452 0.00 0.00 0.00 0.00 0.00 0.00 0.00 0.00 0.00
 0.00022786 -0.00004858 0.00 0.00 0.00 0.00 0.00 0.00 0.00 0.00 0.00
 0.00069106 -0.00014732 0.00 0.00 0.00 0.00 0.00 0.00 0.00 0.00 0.00
 0.00195083 -0.00041681 0.00 0.00 0.00 0.00 0.00 0.00 0.00 0.00 0.00
 0.00533249 -0.00114166 0.00 0.00 0.00 0.00 0.00 0.00 0.00 0.00 0.00
 0.01412913 -0.00304846 0.00 0.00 0.00 0.00 0.00 0.00 0.00 0.00 0.00
 0.03494208 -0.00763834 0.00 0.00 0.00 0.00 0.00 0.00 0.00 0.00 0.00
 0.07899428 -0.01779085 0.00 0.00 0.00 0.00 0.00 0.00 0.00 0.00 0.00
 0.15733027 -0.03738140 0.00 0.00 0.00 0.00 0.00 0.00 0.00 0.00 0.00
 0.25888375 -0.06876992 0.00 0.00 0.00 0.00 0.00 0.00 0.00 0.00 0.00
 0.0         0.0        1.0  0.00 0.00 0.00 0.00 0.00 0.00 0.00 0.00
 0.0         0.0        0.00 1.0  0.00 0.00 0.00 0.00 0.00 0.00 0.00
 0.0         0.0        0.00 0.00 1.0  0.00 0.00 0.00 0.00 0.00 0.00
 0.0         0.0        0.00 0.00 0.00 1.0  0.00 0.00 0.00 0.00 0.00
 0.0         0.0        0.00 0.00 0.00 0.00 1.0  0.00 0.00 0.00 0.00
 0.0         0.0        0.00 0.00 0.00 0.00 0.00 1.0  0.00 0.00 0.00
 0.0         0.0        0.00 0.00 0.00 0.00 0.00 0.00 1.0  0.00 0.00
 0.0         0.0        0.00 0.00 0.00 0.00 0.00 0.00 0.00 1.0  0.00
 0.0         0.0        0.00 0.00 0.00 0.00 0.00 0.00 0.00 0.00 1.0

5999.8334 3242.6192 725.25468 183.93344 59.387978 22.387773 9.2826190 4.1319510 1.9672040 0.9910470 0.5202210 0.2816830 0.1557000 0.0861700 0.0457970 0.0102930  0.007016

0.00000038 0.00 0.00 0.00 0.00 0.00 0.00 0.00 0.00 0.00
0.00000148 0.00 0.00 0.00 0.00 0.00 0.00 0.00 0.00 0.00
0.00002616 0.00 0.00 0.00 0.00 0.00 0.00 0.00 0.00 0.00
0.00023297 0.00 0.00 0.00 0.00 0.00 0.00 0.00 0.00 0.00
0.00134518 0.00 0.00 0.00 0.00 0.00 0.00 0.00 0.00 0.00
0.00571684 0.00 0.00 0.00 0.00 0.00 0.00 0.00 0.00 0.00
0.01877828 0.00 0.00 0.00 0.00 0.00 0.00 0.00 0.00 0.00
0.05028713 0.00 0.00 0.00 0.00 0.00 0.00 0.00 0.00 0.00
0.00000000 1.0  0.00 0.00 0.00 0.00 0.00 0.00 0.00 0.00
0.00000000 0.00 1.0  0.00 0.00 0.00 0.00 0.00 0.00 0.00
0.00000000 0.00 0.00 1.0  0.00 0.00 0.00 0.00 0.00 0.00
0.00000000 0.00 0.00 0.00 1.0  0.00 0.00 0.00 0.00 0.00
0.00000000 0.00 0.00 0.00 0.00 1.0  0.00 0.00 0.00 0.00
0.00000000 0.00 0.00 0.00 0.00 0.00 1.0  0.00 0.00 0.00
0.00000000 0.00 0.00 0.00 0.00 0.00 0.00 1.0  0.00 0.00
0.00000000 0.00 0.00 0.00 0.00 0.00 0.00 0.00 1.0  0.00
0.0        0.00 0.00 0.00 0.00 0.00 0.00 0.00 0.00 1.0

10.111987 5.3534834 2.8342387 1.5005014 0.7943947 0.4205681 0.2226570 0.1178790 0.10386

1.0  0.00 0.00 0.00 0.00 0.00 0.00 0.00  0.00
0.00 1.0  0.00 0.00 0.00 0.00 0.00 0.00  0.00
0.00 0.00 1.0  0.00 0.00 0.00 0.00 0.00  0.00
0.00 0.00 0.00 1.0  0.00 0.00 0.00 0.00  0.00
0.00 0.00 0.00 0.00 1.0  0.00 0.00 0.00  0.00
0.00 0.00 0.00 0.00 0.00 1.0  0.00 0.00  0.00
0.00 0.00 0.00 0.00 0.00 0.00 1.0  0.00  0.00
0.00 0.00 0.00 0.00 0.00 0.00 0.00 1.0   0.0
0.00 0.00 0.00 0.00 0.00 0.00 0.00 0.0   1.0

5.2477955     3.0530678     1.7762169     1.0333692     0.6011946     0.3497636     0.2034858     0.15414

1.0  0.00 0.00 0.00 0.00 0.00 0.00 0.00
0.00 1.0  0.00 0.00 0.00 0.00 0.00 0.00
0.00 0.00 1.0  0.00 0.00 0.00 0.00 0.00
0.00 0.00 0.00 1.0  0.00 0.00 0.00 0.00
0.00 0.00 0.00 0.00 1.0  0.00 0.00 0.00
0.00 0.00 0.00 0.00 0.00 1.0  0.00 0.00
0.00 0.00 0.00 0.00 0.00 0.00 1.0  0.0
0.00 0.00 0.00 0.00 0.00 0.00 0.0  1.0

5.9651818 3.4034629 1.9418619 1.1079386 0.6321396 0.3606703  0.45046

1.0  0.00 0.00 0.00 0.00 0.00  0.00
0.00 1.0  0.00 0.00 0.00 0.00  0.00
0.00 0.00 1.0  0.00 0.00 0.00  0.00
0.00 0.00 0.00 1.0  0.00 0.00  0.00
0.00 0.00 0.00 0.00 1.0  0.00  0.00
0.00 0.00 0.00 0.00 0.00 1.0   0.0
0.00 0.00 0.00 0.00 0.00 0.0   1.0

5.8000486 3.2402961 1.8102467 1.0113252 0.5649941 0.56826

1.0  0.00 0.00 0.00 0.00 0.00
0.00 1.0  0.00 0.00 0.00 0.00
0.00 0.00 1.0  0.00 0.00 0.00
0.00 0.00 0.00 1.0  0.00 0.00
0.00 0.00 0.00 0.00 1.0  0.0
0.00 0.00 0.00 0.00 0.0  1.0

3.9592251     2.2689852     1.3003287     0.7452030     0.87987

1.0  0.00 0.00 0.00   0.00
0.00 1.0  0.00 0.00   0.00
0.00 0.00 1.0  0.00   0.00
0.00 0.00 0.00 1.0    0.0
0.00 0.00 0.00 0.0    1.0

3.873875  1.844702  0.878430  1.10825

1.0  0.00 0.00 0.00
0.00 1.0  0.00 0.00
0.00 0.00 1.0  0.00
0.00 0.00 0.00 1.0

3.459997 1.632668 1.10825

1.0  0.00 0.00
0.00 1.0  0.00
0.00 0.00 1.0

2.375420 1.57561

1.00000000   0.0
0.0          1.0

B:aV7Z-EMSL
EMSL BASIS SET LIBRARY

  8
    0    1    2    3    4    5    6    7
    9    8    7    6    5    4    3    2
   25   19    7    6    5    4    3    2

 639096.480000 95681.5140000 21773.0830000 6167.29350000 2012.08270000
  726.46850000  283.44690000  117.53123000   51.30763000   23.34431800
   10.96337500    5.29336700    2.62057200    1.30393200    0.55166600
    0.25708500    0.11862700    0.05444500    2.62057200    1.30393200
    0.55166600    0.25708500    0.11862700    0.05444500    0.02498800

 0.0000014 -0.0000002  0.0000000  0.0000000  0.0000000  0.0000000  0.0000000
 0.0000000  0.0000000
 0.0000113 -0.0000022  0.0000000  0.0000000  0.0000000  0.0000000  0.0000000
 0.0000000  0.0000000
 0.0000594 -0.0000120  0.0000000  0.0000000  0.0000000  0.0000000  0.0000000
 0.0000000  0.0000000
 0.0002512 -0.0000507  0.0000000  0.0000000  0.0000000  0.0000000  0.0000000
 0.0000000  0.0000000
 0.0009159 -0.0001853  0.0000000  0.0000000  0.0000000  0.0000000  0.0000000
 0.0000000  0.0000000
 0.0029834 -0.0006032  0.0000000  0.0000000  0.0000000  0.0000000  0.0000000
 0.0000000  0.0000000
 0.0088688 -0.0018063  0.0000000  0.0000000  0.0000000  0.0000000  0.0000000
 0.0000000  0.0000000
 0.0241465 -0.0049498  0.0000000  0.0000000  0.0000000  0.0000000  0.0000000
 0.0000000  0.0000000
 0.0593128 -0.0124689  0.0000000  0.0000000  0.0000000  0.0000000  0.0000000
 0.0000000  0.0000000
 0.1281225 -0.0279376  0.0000000  0.0000000  0.0000000  0.0000000  0.0000000
 0.0000000  0.0000000
 0.2310059 -0.0550995  0.0000000  0.0000000  0.0000000  0.0000000  0.0000000
 0.0000000  0.0000000
 0.3173506 -0.0899521  0.0000000  0.0000000  0.0000000  0.0000000  0.0000000
 0.0000000  0.0000000
 0.2730748 -0.1194729  0.0000000  0.0000000  0.0000000  0.0000000  0.0000000
 0.0000000  0.0000000
 0.1030591 -0.0685224  0.0000000  0.0000000  0.0000000  0.0000000  0.0000000
 0.0000000  0.0000000
 0.0073487  0.1699820  0.0000000  0.0000000  0.0000000  0.0000000  0.0000000
 0.0000000  0.0000000
-0.0004514  0.4395943  0.0000000  0.0000000  0.0000000  0.0000000  0.0000000
 0.0000000  0.0000000
 0.0003578  0.4262509  0.0000000  0.0000000  0.0000000  0.0000000  0.0000000
 0.0000000  0.0000000
-0.0000379  0.1129628  0.0000000  0.0000000  0.0000000  0.0000000  0.0000000
 0.0000000  0.0000000
 0.0000000  0.0000000  1.0000000  0.0000000  0.0000000  0.0000000  0.0000000
 0.0000000  0.0000000
 0.0000000  0.0000000  0.0000000  1.0000000  0.0000000  0.0000000  0.0000000
 0.0000000  0.0000000
 0.0000000  0.0000000  0.0000000  0.0000000  1.0000000  0.0000000  0.0000000
 0.0000000  0.0000000
 0.0000000  0.0000000  0.0000000  0.0000000  0.0000000  1.0000000  0.0000000
 0.0000000  0.0000000
 0.0000000  0.0000000  0.0000000  0.0000000  0.0000000  0.0000000  1.0000000
 0.0000000  0.0000000
 0.0000000  0.0000000  0.0000000  0.0000000  0.0000000  0.0000000  0.0000000
 1.0000000  0.0000000
 0.0000000  0.0000000  0.0000000  0.0000000  0.0000000  0.0000000  0.0000000
 0.0000000  1.0000000

  503.76954000  119.03181000   38.64227200   14.75279300    6.19078900
    2.75602700    1.28677300    0.62256700    0.30453800    0.14898700
    0.07287700    0.03492200    1.28677300    0.62256700    0.30453800
    0.14898700    0.07287700    0.03492200    0.01673400

 0.0000253  0.0000000  0.0000000  0.0000000  0.0000000  0.0000000  0.0000000
 0.0000000
 0.0002245  0.0000000  0.0000000  0.0000000  0.0000000  0.0000000  0.0000000
 0.0000000
 0.0012533  0.0000000  0.0000000  0.0000000  0.0000000  0.0000000  0.0000000
 0.0000000
 0.0050982  0.0000000  0.0000000  0.0000000  0.0000000  0.0000000  0.0000000
 0.0000000
 0.0160518  0.0000000  0.0000000  0.0000000  0.0000000  0.0000000  0.0000000
 0.0000000
 0.0430331  0.0000000  0.0000000  0.0000000  0.0000000  0.0000000  0.0000000
 0.0000000
 0.1020151  0.0000000  0.0000000  0.0000000  0.0000000  0.0000000  0.0000000
 0.0000000
 0.1975215  0.0000000  0.0000000  0.0000000  0.0000000  0.0000000  0.0000000
 0.0000000
 0.2969536  0.0000000  0.0000000  0.0000000  0.0000000  0.0000000  0.0000000
 0.0000000
 0.3246938  0.0000000  0.0000000  0.0000000  0.0000000  0.0000000  0.0000000
 0.0000000
 0.2060646  0.0000000  0.0000000  0.0000000  0.0000000  0.0000000  0.0000000
 0.0000000
 0.0428974  0.0000000  0.0000000  0.0000000  0.0000000  0.0000000  0.0000000
 0.0000000
 0.0000000  1.0000000  0.0000000  0.0000000  0.0000000  0.0000000  0.0000000
 0.0000000
 0.0000000  0.0000000  1.0000000  0.0000000  0.0000000  0.0000000  0.0000000
 0.0000000
 0.0000000  0.0000000  0.0000000  1.0000000  0.0000000  0.0000000  0.0000000
 0.0000000
 0.0000000  0.0000000  0.0000000  0.0000000  1.0000000  0.0000000  0.0000000
 0.0000000
 0.0000000  0.0000000  0.0000000  0.0000000  0.0000000  1.0000000  0.0000000
 0.0000000
 0.0000000  0.0000000  0.0000000  0.0000000  0.0000000  0.0000000  1.0000000
 0.0000000
 0.0000000  0.0000000  0.0000000  0.0000000  0.0000000  0.0000000  0.0000000
 1.0000000

    3.60597800    1.71900300    0.81946500    0.39064600    0.18622500
    0.08877500    0.04232000

 1.0000000  0.0000000  0.0000000  0.0000000  0.0000000  0.0000000  0.0000000
 0.0000000  1.0000000  0.0000000  0.0000000  0.0000000  0.0000000  0.0000000
 0.0000000  0.0000000  1.0000000  0.0000000  0.0000000  0.0000000  0.0000000
 0.0000000  0.0000000  0.0000000  1.0000000  0.0000000  0.0000000  0.0000000
 0.0000000  0.0000000  0.0000000  0.0000000  1.0000000  0.0000000  0.0000000
 0.0000000  0.0000000  0.0000000  0.0000000  0.0000000  1.0000000  0.0000000
 0.0000000  0.0000000  0.0000000  0.0000000  0.0000000  0.0000000  1.0000000

    2.18086800    1.14964200    0.60603300    0.31947000    0.16840800
    0.08877600

 1.0000000  0.0000000  0.0000000  0.0000000  0.0000000  0.0000000
 0.0000000  1.0000000  0.0000000  0.0000000  0.0000000  0.0000000
 0.0000000  0.0000000  1.0000000  0.0000000  0.0000000  0.0000000
 0.0000000  0.0000000  0.0000000  1.0000000  0.0000000  0.0000000
 0.0000000  0.0000000  0.0000000  0.0000000  1.0000000  0.0000000
 0.0000000  0.0000000  0.0000000  0.0000000  0.0000000  1.0000000

    2.33466500    1.19782800    0.61456000    0.31530700    0.16177200

 1.0000000  0.0000000  0.0000000  0.0000000  0.0000000
 0.0000000  1.0000000  0.0000000  0.0000000  0.0000000
 0.0000000  0.0000000  1.0000000  0.0000000  0.0000000
 0.0000000  0.0000000  0.0000000  1.0000000  0.0000000
 0.0000000  0.0000000  0.0000000  0.0000000  1.0000000

    1.88024500    0.92980800    0.45980300    0.22737900

 1.0000000  0.0000000  0.0000000  0.0000000
 0.0000000  1.0000000  0.0000000  0.0000000
 0.0000000  0.0000000  1.0000000  0.0000000
 0.0000000  0.0000000  0.0000000  1.0000000

    1.56820300    0.69701100    0.30979700

 1.0000000  0.0000000  0.0000000
 0.0000000  1.0000000  0.0000000
 0.0000000  0.0000000  1.0000000

    1.29200000    0.57420000

 1.0000000  0.0000000
 0.0000000  1.0000000

C:aV7Z-EMSL
EMSL BASIS SET LIBRARY

  8
    0    1    2    3    4    5    6    7
    9    8    7    6    5    4    3    2
   25   19    7    6    5    4    3    2

 949028.800000 142083.000000 32332.4700000 9158.11700000 2987.90900000
 1078.78800000  420.83080000  174.60030000   76.18292000   34.63588000
   16.27076000    7.85547900    3.88217200    1.92833400    0.83580600
    0.38629100    0.17686000    0.08025200    3.88217200    1.92833400
    0.83580600    0.38629100    0.17686000    0.08025200    0.03210080

 0.0000014 -0.0000003  0.0000000  0.0000000  0.0000000  0.0000000  0.0000000 0.0000000  0.0000000
 0.0000110 -0.0000023  0.0000000  0.0000000  0.0000000  0.0000000  0.0000000 0.0000000  0.0000000
 0.0000578 -0.0000123  0.0000000  0.0000000  0.0000000  0.0000000  0.0000000 0.0000000  0.0000000
 0.0002444 -0.0000520  0.0000000  0.0000000  0.0000000  0.0000000  0.0000000 0.0000000  0.0000000
 0.0008910 -0.0001900  0.0000000  0.0000000  0.0000000  0.0000000  0.0000000 0.0000000  0.0000000
 0.0029040 -0.0006200  0.0000000  0.0000000  0.0000000  0.0000000  0.0000000 0.0000000  0.0000000
 0.0086310 -0.0018550  0.0000000  0.0000000  0.0000000  0.0000000  0.0000000 0.0000000  0.0000000
 0.0235290 -0.0050920  0.0000000  0.0000000  0.0000000  0.0000000  0.0000000 0.0000000  0.0000000
 0.0581610 -0.0129160  0.0000000  0.0000000  0.0000000  0.0000000  0.0000000 0.0000000  0.0000000
 0.1266240 -0.0292300  0.0000000  0.0000000  0.0000000  0.0000000  0.0000000 0.0000000  0.0000000
 0.2304650 -0.0584140  0.0000000  0.0000000  0.0000000  0.0000000  0.0000000 0.0000000  0.0000000
 0.3192970 -0.0966550  0.0000000  0.0000000  0.0000000  0.0000000  0.0000000 0.0000000  0.0000000
 0.2742950 -0.1260640  0.0000000  0.0000000  0.0000000  0.0000000  0.0000000 0.0000000  0.0000000
 0.1022520 -0.0617220  0.0000000  0.0000000  0.0000000  0.0000000  0.0000000 0.0000000  0.0000000
 0.0078620  0.1888280  0.0000000  0.0000000  0.0000000  0.0000000  0.0000000 0.0000000  0.0000000
 0.0000068  0.4461160  0.0000000  0.0000000  0.0000000  0.0000000  0.0000000 0.0000000  0.0000000
 0.0003690  0.4113350  0.0000000  0.0000000  0.0000000  0.0000000  0.0000000 0.0000000  0.0000000
-0.0000124  0.1065520  0.0000000  0.0000000  0.0000000  0.0000000  0.0000000 0.0000000  0.0000000
 0.0000000  0.0000000  1.0000000  0.0000000  0.0000000  0.0000000  0.0000000 0.0000000  0.0000000
 0.0000000  0.0000000  0.0000000  1.0000000  0.0000000  0.0000000  0.0000000 0.0000000  0.0000000
 0.0000000  0.0000000  0.0000000  0.0000000  1.0000000  0.0000000  0.0000000 0.0000000  0.0000000
 0.0000000  0.0000000  0.0000000  0.0000000  0.0000000  1.0000000  0.0000000 0.0000000  0.0000000
 0.0000000  0.0000000  0.0000000  0.0000000  0.0000000  0.0000000  1.0000000 0.0000000  0.0000000
 0.0000000  0.0000000  0.0000000  0.0000000  0.0000000  0.0000000  0.0000000 1.0000000  0.0000000
 0.0000000  0.0000000  0.0000000  0.0000000  0.0000000  0.0000000  0.0000000 0.0000000  1.0000000

  765.45530000  180.86280000   58.71441000   22.41625000    9.40621400
    4.18719800    1.95587600    0.94533600    0.46276300    0.22679600
    0.11059200    0.05240000    1.95587600    0.94533600    0.46276300
    0.22679600    0.11059200    0.05240000    0.01940700

 0.0000272  0.0000000  0.0000000  0.0000000  0.0000000  0.0000000  0.0000000 0.0000000
 0.0002410  0.0000000  0.0000000  0.0000000  0.0000000  0.0000000  0.0000000 0.0000000
 0.0013570  0.0000000  0.0000000  0.0000000  0.0000000  0.0000000  0.0000000 0.0000000
 0.0056200  0.0000000  0.0000000  0.0000000  0.0000000  0.0000000  0.0000000 0.0000000
 0.0182670  0.0000000  0.0000000  0.0000000  0.0000000  0.0000000  0.0000000 0.0000000
 0.0500190  0.0000000  0.0000000  0.0000000  0.0000000  0.0000000  0.0000000 0.0000000
 0.1164080  0.0000000  0.0000000  0.0000000  0.0000000  0.0000000  0.0000000 0.0000000
 0.2144660  0.0000000  0.0000000  0.0000000  0.0000000  0.0000000  0.0000000 0.0000000
 0.3011680  0.0000000  0.0000000  0.0000000  0.0000000  0.0000000  0.0000000 0.0000000
 0.3080450  0.0000000  0.0000000  0.0000000  0.0000000  0.0000000  0.0000000 0.0000000
 0.1884750  0.0000000  0.0000000  0.0000000  0.0000000  0.0000000  0.0000000 0.0000000
 0.0396220  0.0000000  0.0000000  0.0000000  0.0000000  0.0000000  0.0000000 0.0000000
 0.0000000  1.0000000  0.0000000  0.0000000  0.0000000  0.0000000  0.0000000 0.0000000
 0.0000000  0.0000000  1.0000000  0.0000000  0.0000000  0.0000000  0.0000000 0.0000000
 0.0000000  0.0000000  0.0000000  1.0000000  0.0000000  0.0000000  0.0000000 0.0000000
 0.0000000  0.0000000  0.0000000  0.0000000  1.0000000  0.0000000  0.0000000 0.0000000
 0.0000000  0.0000000  0.0000000  0.0000000  0.0000000  1.0000000  0.0000000 0.0000000
 0.0000000  0.0000000  0.0000000  0.0000000  0.0000000  0.0000000  1.0000000 0.0000000
 0.0000000  0.0000000  0.0000000  0.0000000  0.0000000  0.0000000  0.0000000 1.0000000

    5.80319000    2.75811000    1.31086000    0.62302000    0.29610000
    0.14073000    0.05840000

 1.0000000  0.0000000  0.0000000  0.0000000  0.0000000  0.0000000  0.0000000
 0.0000000  1.0000000  0.0000000  0.0000000  0.0000000  0.0000000  0.0000000
 0.0000000  0.0000000  1.0000000  0.0000000  0.0000000  0.0000000  0.0000000
 0.0000000  0.0000000  0.0000000  1.0000000  0.0000000  0.0000000  0.0000000
 0.0000000  0.0000000  0.0000000  0.0000000  1.0000000  0.0000000  0.0000000
 0.0000000  0.0000000  0.0000000  0.0000000  0.0000000  1.0000000  0.0000000
 0.0000000  0.0000000  0.0000000  0.0000000  0.0000000  0.0000000  1.0000000

    3.31553000    1.74776000    0.92133000    0.48567000    0.25602000
    0.11020000

 1.0000000  0.0000000  0.0000000  0.0000000  0.0000000  0.0000000
 0.0000000  1.0000000  0.0000000  0.0000000  0.0000000  0.0000000
 0.0000000  0.0000000  1.0000000  0.0000000  0.0000000  0.0000000
 0.0000000  0.0000000  0.0000000  1.0000000  0.0000000  0.0000000
 0.0000000  0.0000000  0.0000000  0.0000000  1.0000000  0.0000000
 0.0000000  0.0000000  0.0000000  0.0000000  0.0000000  1.0000000

    3.62722000    1.83501000    0.92833000    0.46964000    0.21720000

 1.0000000  0.0000000  0.0000000  0.0000000  0.0000000
 0.0000000  1.0000000  0.0000000  0.0000000  0.0000000
 0.0000000  0.0000000  1.0000000  0.0000000  0.0000000
 0.0000000  0.0000000  0.0000000  1.0000000  0.0000000
 0.0000000  0.0000000  0.0000000  0.0000000  1.0000000

    2.75639000    1.36308000    0.67407000    0.34760000

 1.0000000  0.0000000  0.0000000  0.0000000
 0.0000000  1.0000000  0.0000000  0.0000000
 0.0000000  0.0000000  1.0000000  0.0000000
 0.0000000  0.0000000  0.0000000  1.0000000

    2.37436000    1.05532000    0.58500000

 1.0000000  0.0000000  0.0000000
 0.0000000  1.0000000  0.0000000
 0.0000000  0.0000000  1.0000000

    1.95600000    0.97800000

 1.0000000  0.0000000
 0.0000000  1.0000000

N:aV7Z-EMSL
EMSL BASIS SET LIBRARY

  8
    0    1    2    3    4    5    6    7
    9    8    7    6    5    4    3    2
   25   19    7    6    5    4    3    2

 1296296.00000 194068.600000 44160.5700000 12507.7200000 4080.47600000
 1473.14000000  574.60660000  238.37000000  103.99360000   47.27944000
   22.21871000   10.73569000    5.30885600    2.63917700    1.16576400
    0.53709100    0.24490400    0.11027100    5.30885600    2.63917700
    1.16576400    0.53709100    0.24490400    0.11027100    0.01901220

 0.0000014 -0.0000003  0.0000000  0.0000000  0.0000000  0.0000000  0.0000000 0.0000000  0.0000000
 0.0000110 -0.0000024  0.0000000  0.0000000  0.0000000  0.0000000  0.0000000 0.0000000  0.0000000
 0.0000580 -0.0000127  0.0000000  0.0000000  0.0000000  0.0000000  0.0000000 0.0000000  0.0000000
 0.0002450 -0.0000539  0.0000000  0.0000000  0.0000000  0.0000000  0.0000000 0.0000000  0.0000000
 0.0008930 -0.0001973  0.0000000  0.0000000  0.0000000  0.0000000  0.0000000 0.0000000  0.0000000
 0.0029130 -0.0006432  0.0000000  0.0000000  0.0000000  0.0000000  0.0000000 0.0000000  0.0000000
 0.0086640 -0.0019264  0.0000000  0.0000000  0.0000000  0.0000000  0.0000000 0.0000000  0.0000000
 0.0236350 -0.0052948  0.0000000  0.0000000  0.0000000  0.0000000  0.0000000 0.0000000  0.0000000
 0.0585180 -0.0134588  0.0000000  0.0000000  0.0000000  0.0000000  0.0000000 0.0000000  0.0000000
 0.1277287 -0.0306129  0.0000000  0.0000000  0.0000000  0.0000000  0.0000000 0.0000000  0.0000000
 0.2328737 -0.0615113  0.0000000  0.0000000  0.0000000  0.0000000  0.0000000 0.0000000  0.0000000
 0.3211170 -0.1020055  0.0000000  0.0000000  0.0000000  0.0000000  0.0000000 0.0000000  0.0000000
 0.2713167 -0.1295014  0.0000000  0.0000000  0.0000000  0.0000000  0.0000000 0.0000000  0.0000000
 0.0985308 -0.0537032  0.0000000  0.0000000  0.0000000  0.0000000  0.0000000 0.0000000  0.0000000
 0.0078886  0.2029765  0.0000000  0.0000000  0.0000000  0.0000000  0.0000000 0.0000000  0.0000000
 0.0003125  0.4485747  0.0000000  0.0000000  0.0000000  0.0000000  0.0000000 0.0000000  0.0000000
 0.0003640  0.4003138  0.0000000  0.0000000  0.0000000  0.0000000  0.0000000 0.0000000  0.0000000
 0.0000727  0.1024529  0.0000000  0.0000000  0.0000000  0.0000000  0.0000000 0.0000000  0.0000000
 0.0000000  0.0000000  1.0000000  0.0000000  0.0000000  0.0000000  0.0000000 0.0000000  0.0000000
 0.0000000  0.0000000  0.0000000  1.0000000  0.0000000  0.0000000  0.0000000 0.0000000  0.0000000
 0.0000000  0.0000000  0.0000000  0.0000000  1.0000000  0.0000000  0.0000000 0.0000000  0.0000000
 0.0000000  0.0000000  0.0000000  0.0000000  0.0000000  1.0000000  0.0000000 0.0000000  0.0000000
 0.0000000  0.0000000  0.0000000  0.0000000  0.0000000  0.0000000  1.0000000 0.0000000  0.0000000
 0.0000000  0.0000000  0.0000000  0.0000000  0.0000000  0.0000000  0.0000000 1.0000000  0.0000000
 0.0000000  0.0000000  0.0000000  0.0000000  0.0000000  0.0000000  0.0000000 0.0000000  1.0000000

 1094.96000000  258.66110000   83.85255000   31.96225000   13.41121000
    5.98547100    2.80363000    1.35573600    0.66239600    0.32291200
    0.15592100    0.07282000    2.80363000    1.35573600    0.66239600
    0.32291200    0.15592100    0.07282000    0.02697040

 0.0000276  0.0000000  0.0000000  0.0000000  0.0000000  0.0000000  0.0000000 0.0000000
 0.0002450  0.0000000  0.0000000  0.0000000  0.0000000  0.0000000  0.0000000 0.0000000
 0.0013920  0.0000000  0.0000000  0.0000000  0.0000000  0.0000000  0.0000000 0.0000000
 0.0058590  0.0000000  0.0000000  0.0000000  0.0000000  0.0000000  0.0000000 0.0000000
 0.0194130  0.0000000  0.0000000  0.0000000  0.0000000  0.0000000  0.0000000 0.0000000
 0.0535998  0.0000000  0.0000000  0.0000000  0.0000000  0.0000000  0.0000000 0.0000000
 0.1231956  0.0000000  0.0000000  0.0000000  0.0000000  0.0000000  0.0000000 0.0000000
 0.2215690  0.0000000  0.0000000  0.0000000  0.0000000  0.0000000  0.0000000 0.0000000
 0.3024095  0.0000000  0.0000000  0.0000000  0.0000000  0.0000000  0.0000000 0.0000000
 0.3009864  0.0000000  0.0000000  0.0000000  0.0000000  0.0000000  0.0000000 0.0000000
 0.1817918  0.0000000  0.0000000  0.0000000  0.0000000  0.0000000  0.0000000 0.0000000
 0.0387420  0.0000000  0.0000000  0.0000000  0.0000000  0.0000000  0.0000000 0.0000000
 0.0000000  1.0000000  0.0000000  0.0000000  0.0000000  0.0000000  0.0000000 0.0000000
 0.0000000  0.0000000  1.0000000  0.0000000  0.0000000  0.0000000  0.0000000 0.0000000
 0.0000000  0.0000000  0.0000000  1.0000000  0.0000000  0.0000000  0.0000000 0.0000000
 0.0000000  0.0000000  0.0000000  0.0000000  1.0000000  0.0000000  0.0000000 0.0000000
 0.0000000  0.0000000  0.0000000  0.0000000  0.0000000  1.0000000  0.0000000 0.0000000
 0.0000000  0.0000000  0.0000000  0.0000000  0.0000000  0.0000000  1.0000000 0.0000000
 0.0000000  0.0000000  0.0000000  0.0000000  0.0000000  0.0000000  0.0000000 1.0000000

    8.59142980    4.03353510    1.89367850    0.88905090    0.41739480
    0.19596000    0.07536920

 1.0000000  0.0000000  0.0000000  0.0000000  0.0000000  0.0000000  0.0000000
 0.0000000  1.0000000  0.0000000  0.0000000  0.0000000  0.0000000  0.0000000
 0.0000000  0.0000000  1.0000000  0.0000000  0.0000000  0.0000000  0.0000000
 0.0000000  0.0000000  0.0000000  1.0000000  0.0000000  0.0000000  0.0000000
 0.0000000  0.0000000  0.0000000  0.0000000  1.0000000  0.0000000  0.0000000
 0.0000000  0.0000000  0.0000000  0.0000000  0.0000000  1.0000000  0.0000000
 0.0000000  0.0000000  0.0000000  0.0000000  0.0000000  0.0000000  1.0000000

    5.73890020    2.77241560    1.33933120    0.64701990    0.31257000
    0.12021920

 1.0000000  0.0000000  0.0000000  0.0000000  0.0000000  0.0000000
 0.0000000  1.0000000  0.0000000  0.0000000  0.0000000  0.0000000
 0.0000000  0.0000000  1.0000000  0.0000000  0.0000000  0.0000000
 0.0000000  0.0000000  0.0000000  1.0000000  0.0000000  0.0000000
 0.0000000  0.0000000  0.0000000  0.0000000  1.0000000  0.0000000
 0.0000000  0.0000000  0.0000000  0.0000000  0.0000000  1.0000000

    5.53680240    2.58729080    1.20901440    0.56496000    0.24563480

 1.0000000  0.0000000  0.0000000  0.0000000  0.0000000
 0.0000000  1.0000000  0.0000000  0.0000000  0.0000000
 0.0000000  0.0000000  1.0000000  0.0000000  0.0000000
 0.0000000  0.0000000  0.0000000  1.0000000  0.0000000
 0.0000000  0.0000000  0.0000000  0.0000000  1.0000000

    4.21812880    2.08714940    1.03273000    0.51636500

 1.0000000  0.0000000  0.0000000  0.0000000
 0.0000000  1.0000000  0.0000000  0.0000000
 0.0000000  0.0000000  1.0000000  0.0000000
 0.0000000  0.0000000  0.0000000  1.0000000

    3.45000000    1.58000000    0.79000000

 1.0000000  0.0000000  0.0000000
 0.0000000  1.0000000  0.0000000
 0.0000000  0.0000000  1.0000000

    2.37900000    0.97700000

 1.0000000  0.0000000
 0.0000000  1.0000000

O:aV7Z-EMSL
EMSL BASIS SET LIBRARY

  8
    0    1    2    3    4    5    6    7
    9    8    7    6    5    4    3    2
   25   19    7    6    5    4    3    2

 1678789.00000 251388.200000 57213.7300000 16207.4400000 5288.27600000
 1909.47800000  744.92310000  309.07550000  134.86450000   61.33129000
   28.83796000   13.94504000    6.89907700    3.43157700    1.53984000
    0.70975100    0.32304700    0.14422200    6.89907700    3.43157700
    1.53984000    0.70975100    0.32304700    0.14422200    0.05547000

 0.0000014 -0.0000003  0.0000000  0.0000000  0.0000000  0.0000000  0.0000000
 0.0000000  0.0000000
 0.0000112 -0.0000025  0.0000000  0.0000000  0.0000000  0.0000000  0.0000000
 0.0000000  0.0000000
 0.0000589 -0.0000134  0.0000000  0.0000000  0.0000000  0.0000000  0.0000000
 0.0000000  0.0000000
 0.0002490 -0.0000560  0.0000000  0.0000000  0.0000000  0.0000000  0.0000000
 0.0000000  0.0000000
 0.0009070 -0.0002060  0.0000000  0.0000000  0.0000000  0.0000000  0.0000000
 0.0000000  0.0000000
 0.0029570 -0.0006720  0.0000000  0.0000000  0.0000000  0.0000000  0.0000000
 0.0000000  0.0000000
 0.0087910 -0.0020130  0.0000000  0.0000000  0.0000000  0.0000000  0.0000000
 0.0000000  0.0000000
 0.0239800 -0.0055350  0.0000000  0.0000000  0.0000000  0.0000000  0.0000000
 0.0000000  0.0000000
 0.0593810 -0.0140790  0.0000000  0.0000000  0.0000000  0.0000000  0.0000000
 0.0000000  0.0000000
 0.1296500 -0.0321130  0.0000000  0.0000000  0.0000000  0.0000000  0.0000000
 0.0000000  0.0000000
 0.2360640 -0.0646760  0.0000000  0.0000000  0.0000000  0.0000000  0.0000000
 0.0000000  0.0000000
 0.3229210 -0.1071540  0.0000000  0.0000000  0.0000000  0.0000000  0.0000000
 0.0000000  0.0000000
 0.2673950 -0.1324380  0.0000000  0.0000000  0.0000000  0.0000000  0.0000000
 0.0000000  0.0000000
 0.0938440 -0.0456550  0.0000000  0.0000000  0.0000000  0.0000000  0.0000000
 0.0000000  0.0000000
 0.0075330  0.2183840  0.0000000  0.0000000  0.0000000  0.0000000  0.0000000
 0.0000000  0.0000000
 0.0006320  0.4533790  0.0000000  0.0000000  0.0000000  0.0000000  0.0000000
 0.0000000  0.0000000
 0.0003560  0.3873530  0.0000000  0.0000000  0.0000000  0.0000000  0.0000000
 0.0000000  0.0000000
 0.0000330  0.0958660  0.0000000  0.0000000  0.0000000  0.0000000  0.0000000
 0.0000000  0.0000000
 0.0000000  0.0000000  1.0000000  0.0000000  0.0000000  0.0000000  0.0000000
 0.0000000  0.0000000
 0.0000000  0.0000000  0.0000000  1.0000000  0.0000000  0.0000000  0.0000000
 0.0000000  0.0000000
 0.0000000  0.0000000  0.0000000  0.0000000  1.0000000  0.0000000  0.0000000
 0.0000000  0.0000000
 0.0000000  0.0000000  0.0000000  0.0000000  0.0000000  1.0000000  0.0000000
 0.0000000  0.0000000
 0.0000000  0.0000000  0.0000000  0.0000000  0.0000000  0.0000000  1.0000000
 0.0000000  0.0000000
 0.0000000  0.0000000  0.0000000  0.0000000  0.0000000  0.0000000  0.0000000
 1.0000000  0.0000000
 0.0000000  0.0000000  0.0000000  0.0000000  0.0000000  0.0000000  0.0000000
 0.0000000  1.0000000

 1349.05900000  319.45690000  103.78040000   39.62821000   16.66137000
    7.46416600    3.50932500    1.69568000    0.82274200    0.39573300
    0.18764400    0.08584100    3.50932500    1.69568000    0.82274200
    0.39573300    0.18764400    0.08584100    0.02861370

 0.0000323  0.0000000  0.0000000  0.0000000  0.0000000  0.0000000  0.0000000
 0.0000000
 0.0002860  0.0000000  0.0000000  0.0000000  0.0000000  0.0000000  0.0000000
 0.0000000
 0.0016160  0.0000000  0.0000000  0.0000000  0.0000000  0.0000000  0.0000000
 0.0000000
 0.0067850  0.0000000  0.0000000  0.0000000  0.0000000  0.0000000  0.0000000
 0.0000000
 0.0224990  0.0000000  0.0000000  0.0000000  0.0000000  0.0000000  0.0000000
 0.0000000
 0.0616740  0.0000000  0.0000000  0.0000000  0.0000000  0.0000000  0.0000000
 0.0000000
 0.1368450  0.0000000  0.0000000  0.0000000  0.0000000  0.0000000  0.0000000
 0.0000000
 0.2324860  0.0000000  0.0000000  0.0000000  0.0000000  0.0000000  0.0000000
 0.0000000
 0.2998210  0.0000000  0.0000000  0.0000000  0.0000000  0.0000000  0.0000000
 0.0000000
 0.2882440  0.0000000  0.0000000  0.0000000  0.0000000  0.0000000  0.0000000
 0.0000000
 0.1745550  0.0000000  0.0000000  0.0000000  0.0000000  0.0000000  0.0000000
 0.0000000
 0.0387270  0.0000000  0.0000000  0.0000000  0.0000000  0.0000000  0.0000000
 0.0000000
 0.0000000  1.0000000  0.0000000  0.0000000  0.0000000  0.0000000  0.0000000
 0.0000000
 0.0000000  0.0000000  1.0000000  0.0000000  0.0000000  0.0000000  0.0000000
 0.0000000
 0.0000000  0.0000000  0.0000000  1.0000000  0.0000000  0.0000000  0.0000000
 0.0000000
 0.0000000  0.0000000  0.0000000  0.0000000  1.0000000  0.0000000  0.0000000
 0.0000000
 0.0000000  0.0000000  0.0000000  0.0000000  0.0000000  1.0000000  0.0000000
 0.0000000
 0.0000000  0.0000000  0.0000000  0.0000000  0.0000000  0.0000000  1.0000000
 0.0000000
 0.0000000  0.0000000  0.0000000  0.0000000  0.0000000  0.0000000  0.0000000
 1.0000000

   10.06429300    4.84325940    2.33073120    1.12162230    0.53976050
    0.25975000    0.10390000

 1.0000000  0.0000000  0.0000000  0.0000000  0.0000000  0.0000000  0.0000000
 0.0000000  1.0000000  0.0000000  0.0000000  0.0000000  0.0000000  0.0000000
 0.0000000  0.0000000  1.0000000  0.0000000  0.0000000  0.0000000  0.0000000
 0.0000000  0.0000000  0.0000000  1.0000000  0.0000000  0.0000000  0.0000000
 0.0000000  0.0000000  0.0000000  0.0000000  1.0000000  0.0000000  0.0000000
 0.0000000  0.0000000  0.0000000  0.0000000  0.0000000  1.0000000  0.0000000
 0.0000000  0.0000000  0.0000000  0.0000000  0.0000000  0.0000000  1.0000000

    6.91170870    3.41994490    1.69220430    0.83731040    0.41430500
    0.17262700

 1.0000000  0.0000000  0.0000000  0.0000000  0.0000000  0.0000000
 0.0000000  1.0000000  0.0000000  0.0000000  0.0000000  0.0000000
 0.0000000  0.0000000  1.0000000  0.0000000  0.0000000  0.0000000
 0.0000000  0.0000000  0.0000000  1.0000000  0.0000000  0.0000000
 0.0000000  0.0000000  0.0000000  0.0000000  1.0000000  0.0000000
 0.0000000  0.0000000  0.0000000  0.0000000  0.0000000  1.0000000

    7.23799490    3.41575980    1.61196780    0.76072100    0.34578200

 1.0000000  0.0000000  0.0000000  0.0000000  0.0000000
 0.0000000  1.0000000  0.0000000  0.0000000  0.0000000
 0.0000000  0.0000000  1.0000000  0.0000000  0.0000000
 0.0000000  0.0000000  0.0000000  1.0000000  0.0000000
 0.0000000  0.0000000  0.0000000  0.0000000  1.0000000

    5.73310920    2.58248160    1.16328000    0.58164000

 1.0000000  0.0000000  0.0000000  0.0000000
 0.0000000  1.0000000  0.0000000  0.0000000
 0.0000000  0.0000000  1.0000000  0.0000000
 0.0000000  0.0000000  0.0000000  1.0000000

    4.81300000    2.07800000    1.03900000

 1.0000000  0.0000000  0.0000000
 0.0000000  1.0000000  0.0000000
 0.0000000  0.0000000  1.0000000

    3.12300000    1.23200000

 1.0000000  0.0000000
 0.0000000  1.0000000

F:aV7Z-EMSL
EMSL BASIS SET LIBRARY

  8
    0    1    2    3    4    5    6    7
    9    8    7    6    5    4    3    2
   25   19    7    6    5    4    3    2

 2115112.00000 316699.700000 72075.7100000 20416.8300000 6661.45800000
 2405.18800000  938.25950000  389.27100000  169.84990000   77.24367000
   36.32874000   17.57387000    8.69353000    4.32176900    1.95952000
    0.90318500    0.41040500    0.18202400    8.69353000    4.32176900
    1.95952000    0.90318500    0.41040500    0.18202400    0.07000900

 0.0000015 -0.0000003  0.0000000  0.0000000  0.0000000  0.0000000  0.0000000
 0.0000000  0.0000000
 0.0000113 -0.0000026  0.0000000  0.0000000  0.0000000  0.0000000  0.0000000
 0.0000000  0.0000000
 0.0000595 -0.0000137  0.0000000  0.0000000  0.0000000  0.0000000  0.0000000
 0.0000000  0.0000000
 0.0002514 -0.0000581  0.0000000  0.0000000  0.0000000  0.0000000  0.0000000
 0.0000000  0.0000000
 0.0009160 -0.0002124  0.0000000  0.0000000  0.0000000  0.0000000  0.0000000
 0.0000000  0.0000000
 0.0029860 -0.0006928  0.0000000  0.0000000  0.0000000  0.0000000  0.0000000
 0.0000000  0.0000000
 0.0088819 -0.0020746  0.0000000  0.0000000  0.0000000  0.0000000  0.0000000
 0.0000000  0.0000000
 0.0242321 -0.0057097  0.0000000  0.0000000  0.0000000  0.0000000  0.0000000
 0.0000000  0.0000000
 0.0600301 -0.0145356  0.0000000  0.0000000  0.0000000  0.0000000  0.0000000
 0.0000000  0.0000000
 0.1311355 -0.0332350  0.0000000  0.0000000  0.0000000  0.0000000  0.0000000
 0.0000000  0.0000000
 0.2385632 -0.0670662  0.0000000  0.0000000  0.0000000  0.0000000  0.0000000
 0.0000000  0.0000000
 0.3243075 -0.1109840  0.0000000  0.0000000  0.0000000  0.0000000  0.0000000
 0.0000000  0.0000000
 0.2643763 -0.1341456  0.0000000  0.0000000  0.0000000  0.0000000  0.0000000
 0.0000000  0.0000000
 0.0902843 -0.0387409  0.0000000  0.0000000  0.0000000  0.0000000  0.0000000
 0.0000000  0.0000000
 0.0072583  0.2297265  0.0000000  0.0000000  0.0000000  0.0000000  0.0000000
 0.0000000  0.0000000
 0.0008288  0.4557275  0.0000000  0.0000000  0.0000000  0.0000000  0.0000000
 0.0000000  0.0000000
 0.0003496  0.3778222  0.0000000  0.0000000  0.0000000  0.0000000  0.0000000
 0.0000000  0.0000000
 0.0000495  0.0913451  0.0000000  0.0000000  0.0000000  0.0000000  0.0000000
 0.0000000  0.0000000
 0.0000000  0.0000000  1.0000000  0.0000000  0.0000000  0.0000000  0.0000000
 0.0000000  0.0000000
 0.0000000  0.0000000  0.0000000  1.0000000  0.0000000  0.0000000  0.0000000
 0.0000000  0.0000000
 0.0000000  0.0000000  0.0000000  0.0000000  1.0000000  0.0000000  0.0000000
 0.0000000  0.0000000
 0.0000000  0.0000000  0.0000000  0.0000000  0.0000000  1.0000000  0.0000000
 0.0000000  0.0000000
 0.0000000  0.0000000  0.0000000  0.0000000  0.0000000  0.0000000  1.0000000
 0.0000000  0.0000000
 0.0000000  0.0000000  0.0000000  0.0000000  0.0000000  0.0000000  0.0000000
 1.0000000  0.0000000
 0.0000000  0.0000000  0.0000000  0.0000000  0.0000000  0.0000000  0.0000000
 0.0000000  1.0000000

 1687.71800000  399.65170000  129.82670000   49.57826000   20.86193000
    9.36556400    4.40997700    2.12837600    1.02828800    0.49075700
    0.23007300    0.10376600    4.40997700    2.12837600    1.02828800
    0.49075700    0.23007300    0.10376600    0.03458900

 0.0000346  0.0000000  0.0000000  0.0000000  0.0000000  0.0000000  0.0000000
 0.0000000
 0.0003058  0.0000000  0.0000000  0.0000000  0.0000000  0.0000000  0.0000000
 0.0000000
 0.0017313  0.0000000  0.0000000  0.0000000  0.0000000  0.0000000  0.0000000
 0.0000000
 0.0072975  0.0000000  0.0000000  0.0000000  0.0000000  0.0000000  0.0000000
 0.0000000
 0.0243126  0.0000000  0.0000000  0.0000000  0.0000000  0.0000000  0.0000000
 0.0000000
 0.0664341  0.0000000  0.0000000  0.0000000  0.0000000  0.0000000  0.0000000
 0.0000000
 0.1445175  0.0000000  0.0000000  0.0000000  0.0000000  0.0000000  0.0000000
 0.0000000
 0.2383867  0.0000000  0.0000000  0.0000000  0.0000000  0.0000000  0.0000000
 0.0000000
 0.2985330  0.0000000  0.0000000  0.0000000  0.0000000  0.0000000  0.0000000
 0.0000000
 0.2811414  0.0000000  0.0000000  0.0000000  0.0000000  0.0000000  0.0000000
 0.0000000
 0.1699781  0.0000000  0.0000000  0.0000000  0.0000000  0.0000000  0.0000000
 0.0000000
 0.0385819  0.0000000  0.0000000  0.0000000  0.0000000  0.0000000  0.0000000
 0.0000000
 0.0000000  1.0000000  0.0000000  0.0000000  0.0000000  0.0000000  0.0000000
 0.0000000
 0.0000000  0.0000000  1.0000000  0.0000000  0.0000000  0.0000000  0.0000000
 0.0000000
 0.0000000  0.0000000  0.0000000  1.0000000  0.0000000  0.0000000  0.0000000
 0.0000000
 0.0000000  0.0000000  0.0000000  0.0000000  1.0000000  0.0000000  0.0000000
 0.0000000
 0.0000000  0.0000000  0.0000000  0.0000000  0.0000000  1.0000000  0.0000000
 0.0000000
 0.0000000  0.0000000  0.0000000  0.0000000  0.0000000  0.0000000  1.0000000
 0.0000000
 0.0000000  0.0000000  0.0000000  0.0000000  0.0000000  0.0000000  0.0000000
 1.0000000

   12.63449500    6.11247920    2.95717430    1.43066000    0.69214320
    0.33485400    0.13394200

 1.0000000  0.0000000  0.0000000  0.0000000  0.0000000  0.0000000  0.0000000
 0.0000000  1.0000000  0.0000000  0.0000000  0.0000000  0.0000000  0.0000000
 0.0000000  0.0000000  1.0000000  0.0000000  0.0000000  0.0000000  0.0000000
 0.0000000  0.0000000  0.0000000  1.0000000  0.0000000  0.0000000  0.0000000
 0.0000000  0.0000000  0.0000000  0.0000000  1.0000000  0.0000000  0.0000000
 0.0000000  0.0000000  0.0000000  0.0000000  0.0000000  1.0000000  0.0000000
 0.0000000  0.0000000  0.0000000  0.0000000  0.0000000  0.0000000  1.0000000

   11.64432400    5.57144690    2.66576410    1.27548520    0.61028000
    0.25428300

 1.0000000  0.0000000  0.0000000  0.0000000  0.0000000  0.0000000
 0.0000000  1.0000000  0.0000000  0.0000000  0.0000000  0.0000000
 0.0000000  0.0000000  1.0000000  0.0000000  0.0000000  0.0000000
 0.0000000  0.0000000  0.0000000  1.0000000  0.0000000  0.0000000
 0.0000000  0.0000000  0.0000000  0.0000000  1.0000000  0.0000000
 0.0000000  0.0000000  0.0000000  0.0000000  0.0000000  1.0000000

    8.28639530    3.91052160    1.84545620    0.87090900    0.39586770

 1.0000000  0.0000000  0.0000000  0.0000000  0.0000000
 0.0000000  1.0000000  0.0000000  0.0000000  0.0000000
 0.0000000  0.0000000  1.0000000  0.0000000  0.0000000
 0.0000000  0.0000000  0.0000000  1.0000000  0.0000000
 0.0000000  0.0000000  0.0000000  0.0000000  1.0000000

    7.76269690    3.48103000    1.56100000    0.78050000

 1.0000000  0.0000000  0.0000000  0.0000000
 0.0000000  1.0000000  0.0000000  0.0000000
 0.0000000  0.0000000  1.0000000  0.0000000
 0.0000000  0.0000000  0.0000000  1.0000000

    5.53000000    2.16000000    1.08000000

 1.0000000  0.0000000  0.0000000
 0.0000000  1.0000000  0.0000000
 0.0000000  0.0000000  1.0000000

    4.25600000    1.59700000

 1.0000000  0.0000000
 0.0000000  1.0000000

NE:aV7Z-EMSL
EMSL BASIS SET LIBRARY

  8
    0    1    2    3    4    5    6    7
    9    8    7    6    5    4    3    2
   25   19    7    6    5    4    3    2

 2636740.00000 394695.000000 89814.2000000 25439.5000000 8292.48000000
 2991.77000000 1166.58000000  483.92700000  211.04900000   95.96840000
   45.17840000   21.88590000   10.83230000    5.38014000    2.43637000
    1.11925000    0.50669700    0.22345000   10.83230000    5.38014000
    2.43637000    1.11925000    0.50669700    0.22345000    0.10115800

 0.0000014 -0.0000003  0.0000000  0.0000000  0.0000000  0.0000000  0.0000000
 0.0000000  0.0000000
 0.0000112 -0.0000026  0.0000000  0.0000000  0.0000000  0.0000000  0.0000000
 0.0000000  0.0000000
 0.0000589 -0.0000138  0.0000000  0.0000000  0.0000000  0.0000000  0.0000000
 0.0000000  0.0000000
 0.0002494 -0.0000585  0.0000000  0.0000000  0.0000000  0.0000000  0.0000000
 0.0000000  0.0000000
 0.0009103 -0.0002142  0.0000000  0.0000000  0.0000000  0.0000000  0.0000000
 0.0000000  0.0000000
 0.0029709 -0.0006992  0.0000000  0.0000000  0.0000000  0.0000000  0.0000000
 0.0000000  0.0000000
 0.0088363 -0.0020944  0.0000000  0.0000000  0.0000000  0.0000000  0.0000000
 0.0000000  0.0000000
 0.0241280 -0.0057692  0.0000000  0.0000000  0.0000000  0.0000000  0.0000000
 0.0000000  0.0000000
 0.0598885 -0.0147221  0.0000000  0.0000000  0.0000000  0.0000000  0.0000000
 0.0000000  0.0000000
 0.1309741 -0.0337206  0.0000000  0.0000000  0.0000000  0.0000000  0.0000000
 0.0000000  0.0000000
 0.2383562 -0.0681873  0.0000000  0.0000000  0.0000000  0.0000000  0.0000000
 0.0000000  0.0000000
 0.3241828 -0.1128970  0.0000000  0.0000000  0.0000000  0.0000000  0.0000000
 0.0000000  0.0000000
 0.2645205 -0.1355740  0.0000000  0.0000000  0.0000000  0.0000000  0.0000000
 0.0000000  0.0000000
 0.0904921 -0.0355977  0.0000000  0.0000000  0.0000000  0.0000000  0.0000000
 0.0000000  0.0000000
 0.0074405  0.2375429  0.0000000  0.0000000  0.0000000  0.0000000  0.0000000
 0.0000000  0.0000000
 0.0009209  0.4583447  0.0000000  0.0000000  0.0000000  0.0000000  0.0000000
 0.0000000  0.0000000
 0.0003670  0.3709621  0.0000000  0.0000000  0.0000000  0.0000000  0.0000000
 0.0000000  0.0000000
 0.0000549  0.0876677  0.0000000  0.0000000  0.0000000  0.0000000  0.0000000
 0.0000000  0.0000000
 0.0000000  0.0000000  1.0000000  0.0000000  0.0000000  0.0000000  0.0000000
 0.0000000  0.0000000
 0.0000000  0.0000000  0.0000000  1.0000000  0.0000000  0.0000000  0.0000000
 0.0000000  0.0000000
 0.0000000  0.0000000  0.0000000  0.0000000  1.0000000  0.0000000  0.0000000
 0.0000000  0.0000000
 0.0000000  0.0000000  0.0000000  0.0000000  0.0000000  1.0000000  0.0000000
 0.0000000  0.0000000
 0.0000000  0.0000000  0.0000000  0.0000000  0.0000000  0.0000000  1.0000000
 0.0000000  0.0000000
 0.0000000  0.0000000  0.0000000  0.0000000  0.0000000  0.0000000  0.0000000
 1.0000000  0.0000000
 0.0000000  0.0000000  0.0000000  0.0000000  0.0000000  0.0000000  0.0000000
 0.0000000  1.0000000

 2081.84000000  494.12400000  160.70800000   61.41720000   25.86760000
   11.61990000    5.46353000    2.62574000    1.26106000    0.59777800
    0.27813600    0.12436200    5.46353000    2.62574000    1.26106000
    0.59777800    0.27813600    0.12436200    0.05786400

 0.0000359  0.0000000  0.0000000  0.0000000  0.0000000  0.0000000  0.0000000
 0.0000000
 0.0003165  0.0000000  0.0000000  0.0000000  0.0000000  0.0000000  0.0000000
 0.0000000
 0.0017921  0.0000000  0.0000000  0.0000000  0.0000000  0.0000000  0.0000000
 0.0000000
 0.0075793  0.0000000  0.0000000  0.0000000  0.0000000  0.0000000  0.0000000
 0.0000000
 0.0253956  0.0000000  0.0000000  0.0000000  0.0000000  0.0000000  0.0000000
 0.0000000
 0.0695194  0.0000000  0.0000000  0.0000000  0.0000000  0.0000000  0.0000000
 0.0000000
 0.1500873  0.0000000  0.0000000  0.0000000  0.0000000  0.0000000  0.0000000
 0.0000000
 0.2438008  0.0000000  0.0000000  0.0000000  0.0000000  0.0000000  0.0000000
 0.0000000
 0.2991993  0.0000000  0.0000000  0.0000000  0.0000000  0.0000000  0.0000000
 0.0000000
 0.2760379  0.0000000  0.0000000  0.0000000  0.0000000  0.0000000  0.0000000
 0.0000000
 0.1646421  0.0000000  0.0000000  0.0000000  0.0000000  0.0000000  0.0000000
 0.0000000
 0.0373287  0.0000000  0.0000000  0.0000000  0.0000000  0.0000000  0.0000000
 0.0000000
 0.0000000  1.0000000  0.0000000  0.0000000  0.0000000  0.0000000  0.0000000
 0.0000000
 0.0000000  0.0000000  1.0000000  0.0000000  0.0000000  0.0000000  0.0000000
 0.0000000
 0.0000000  0.0000000  0.0000000  1.0000000  0.0000000  0.0000000  0.0000000
 0.0000000
 0.0000000  0.0000000  0.0000000  0.0000000  1.0000000  0.0000000  0.0000000
 0.0000000
 0.0000000  0.0000000  0.0000000  0.0000000  0.0000000  1.0000000  0.0000000
 0.0000000
 0.0000000  0.0000000  0.0000000  0.0000000  0.0000000  0.0000000  1.0000000
 0.0000000
 0.0000000  0.0000000  0.0000000  0.0000000  0.0000000  0.0000000  0.0000000
 1.0000000

   16.27000000    7.80882000    3.74786000    1.79879000    0.86333600
    0.41436000    0.18997400

 1.0000000  0.0000000  0.0000000  0.0000000  0.0000000  0.0000000  0.0000000
 0.0000000  1.0000000  0.0000000  0.0000000  0.0000000  0.0000000  0.0000000
 0.0000000  0.0000000  1.0000000  0.0000000  0.0000000  0.0000000  0.0000000
 0.0000000  0.0000000  0.0000000  1.0000000  0.0000000  0.0000000  0.0000000
 0.0000000  0.0000000  0.0000000  0.0000000  1.0000000  0.0000000  0.0000000
 0.0000000  0.0000000  0.0000000  0.0000000  0.0000000  1.0000000  0.0000000
 0.0000000  0.0000000  0.0000000  0.0000000  0.0000000  0.0000000  1.0000000

   17.00780000    7.96028000    3.72569000    1.74376000    0.81614000
    0.38198400

 1.0000000  0.0000000  0.0000000  0.0000000  0.0000000  0.0000000
 0.0000000  1.0000000  0.0000000  0.0000000  0.0000000  0.0000000
 0.0000000  0.0000000  1.0000000  0.0000000  0.0000000  0.0000000
 0.0000000  0.0000000  0.0000000  1.0000000  0.0000000  0.0000000
 0.0000000  0.0000000  0.0000000  0.0000000  1.0000000  0.0000000
 0.0000000  0.0000000  0.0000000  0.0000000  0.0000000  1.0000000

   10.10510000    4.82848000    2.30718000    1.10243000    0.52677100

 1.0000000  0.0000000  0.0000000  0.0000000  0.0000000
 0.0000000  1.0000000  0.0000000  0.0000000  0.0000000
 0.0000000  0.0000000  1.0000000  0.0000000  0.0000000
 0.0000000  0.0000000  0.0000000  1.0000000  0.0000000
 0.0000000  0.0000000  0.0000000  0.0000000  1.0000000

    9.85490000    4.45959000    2.01808000    0.91323200

 1.0000000  0.0000000  0.0000000  0.0000000
 0.0000000  1.0000000  0.0000000  0.0000000
 0.0000000  0.0000000  1.0000000  0.0000000
 0.0000000  0.0000000  0.0000000  1.0000000

    7.28237000    2.92594000    1.17559600

 1.0000000  0.0000000  0.0000000
 0.0000000  1.0000000  0.0000000
 0.0000000  0.0000000  1.0000000

    5.25600000    1.97400000

 1.0000000  0.0000000
 0.0000000  1.0000000



C:aV8Zi-FELLER
EMSL BASIS SET LIBRARY

  7
    0    1    2    3    4    5    6
   10    9    8    7    6    5    4
   21   15    8    7    6    5    4

      2764616.420000 426928.625000 100120.188000 29028.317100 9622.802270 3511.201210 1380.844760 577.053010 252.617585 114.419479 53.243429 25.370531 12.344542 6.121284 3.076436 1.531757 0.735998 0.347522 0.163610 0.076138  0.02577000

0.0              0.0             0.00 0.00 0.00 0.00 0.00 0.00 0.00 0.00
0.370000000E-06 -0.800000000E-07 0.00 0.00 0.00 0.00 0.00 0.00 0.00 0.00
0.273000000E-05 -0.580000000E-06 0.00 0.00 0.00 0.00 0.00 0.00 0.00 0.00
0.138000000E-04 -0.294000000E-05 0.00 0.00 0.00 0.00 0.00 0.00 0.00 0.00
0.568800000E-04 -0.121200000E-04 0.00 0.00 0.00 0.00 0.00 0.00 0.00 0.00
0.204380000E-03 -0.435800000E-04 0.00 0.00 0.00 0.00 0.00 0.00 0.00 0.00
0.662330000E-03 -0.141190000E-03 0.00 0.00 0.00 0.00 0.00 0.00 0.00 0.00
0.196985000E-02 -0.420840000E-03 0.00 0.00 0.00 0.00 0.00 0.00 0.00 0.00
0.545843000E-02 -0.116861000E-02 0.00 0.00 0.00 0.00 0.00 0.00 0.00 0.00
0.142901200E-01 -0.308371000E-02 0.00 0.00 0.00 0.00 0.00 0.00 0.00 0.00
0.352744800E-01 -0.771202000E-02 0.00 0.00 0.00 0.00 0.00 0.00 0.00 0.00
0.800365800E-01 -0.180361100E-01 0.00 0.00 0.00 0.00 0.00 0.00 0.00 0.00
0.159727770     -0.379958800E-01 0.00 0.00 0.00 0.00 0.00 0.00 0.00 0.00
0.263355200     -0.702213800E-01 1.00 0.00 0.00 0.00 0.00 0.00 0.00 0.00
0.0              0.0             0.0  1.0  0.00 0.00 0.00 0.00 0.00 0.00
0.0              0.0             0.00 0.00 1.0  0.00 0.00 0.00 0.00 0.00
0.0              0.0             0.00 0.00 0.00 1.0  0.00 0.00 0.00 0.00
0.0              0.0             0.00 0.00 0.00 0.00 1.0  0.00 0.00 0.00
0.0              0.0             0.00 0.00 0.00 0.00 0.00 1.0  0.00 0.00
0.0              0.0             0.00 0.00 0.00 0.00 0.00 0.00 1.0  0.00
0.0              0.0             0.00 0.00 0.00 0.00 0.00 0.00 0.00 1.0

      3240.457250 761.645378 181.542861 58.635685 22.377059 9.424354 4.193964 1.948406 0.937873 0.461320 0.230344 0.116161 0.057987 0.023226  0.00930000

0.000002 0.00 0.00 0.00 0.00 0.00 0.00 0.00 0.00
0.000025 0.00 0.00 0.00 0.00 0.00 0.00 0.00 0.00
0.000242 0.00 0.00 0.00 0.00 0.00 0.00 0.00 0.00
0.001363 0.00 0.00 0.00 0.00 0.00 0.00 0.00 0.00
0.005619 0.00 0.00 0.00 0.00 0.00 0.00 0.00 0.00
0.018156 0.00 0.00 0.00 0.00 0.00 0.00 0.00 0.00
0.050146 0.00 0.00 0.00 0.00 0.00 0.00 0.00 0.00
0.0      1.0  0.00 0.00 0.00 0.00 0.00 0.00 0.00
0.0      0.00 1.0  0.00 0.00 0.00 0.00 0.00 0.00
0.0      0.00 0.00 1.0  0.00 0.00 0.00 0.00 0.00
0.0      0.00 0.00 0.00 1.0  0.00 0.00 0.00 0.00
0.0      0.00 0.00 0.00 0.00 1.0  0.00 0.00 0.00
0.0      0.00 0.00 0.00 0.00 0.00 1.0  0.00 0.00
0.0      0.00 0.00 0.00 0.00 0.00 0.00 1.0  0.00
0.0      0.00 0.00 0.00 0.00 0.00 0.00 0.00 1.0

        9.648573 4.754333 2.342697 1.154364 0.568813 0.280282 0.138109  0.06805000

1.0  0.00 0.00 0.00 0.00 0.00 0.00 0.00
0.00 1.0  0.00 0.00 0.00 0.00 0.00 0.00
0.00 0.00 1.0  0.00 0.00 0.00 0.00 0.00
0.00 0.00 0.00 1.0  0.00 0.00 0.00 0.00
0.00 0.00 0.00 0.00 1.0  0.00 0.00 0.00
0.00 0.00 0.00 0.00 0.00 1.0  0.00 0.00
0.00 0.00 0.00 0.00 0.00 0.00 1.0  0.00
0.00 0.00 0.00 0.00 0.00 0.00 0.00 1.0

     4.808565 2.590503 1.395573 0.751833 0.405032 0.218202  0.11755000

1.0  0.00 0.00 0.00 0.00 0.00 0.00
0.00 1.0  0.00 0.00 0.00 0.00 0.00
0.00 0.00 1.0  0.00 0.00 0.00 0.00
0.00 0.00 0.00 1.0  0.00 0.00 0.00
0.00 0.00 0.00 0.00 1.0  0.00 0.00
0.00 0.00 0.00 0.00 0.00 1.0  0.00
0.00 0.00 0.00 0.00 0.00 0.00 1.0

      5.184773 2.748640 1.457155 0.772492 0.409526  0.21711000

1.0  0.00 0.00 0.00 0.00 0.00
0.00 1.0  0.00 0.00 0.00 0.00
0.00 0.00 1.0  0.00 0.00 0.00
0.00 0.00 0.00 1.0  0.00 0.00
0.00 0.00 0.00 0.00 1.0  0.00
0.00 0.00 0.00 0.00 0.00 1.0

      3.314608 1.843416 1.025214 0.570172  0.31710000

1.0  0.00 0.00 0.00 0.00
0.00 1.0  0.00 0.00 0.00
0.00 0.00 1.0  0.00 0.00
0.00 0.00 0.00 1.0  0.00
0.00 0.00 0.00 0.00 1.0

     3.285238 1.662151 0.840958 0.42548000

1.0  0.00 0.00 0.00
0.00 1.0  0.00 0.00
0.00 0.00 1.0  0.00
0.00 0.00 0.00 1.0

C:aV9Zi-FELLER
EMSL BASIS SET LIBRARY

  7
    0    1    2    3    4    5    6
   11   10    9    8    7    6    5
   23   17    9    8    7    6    5

8446504.1 1250293.5 281186.21 76849.358 24060.211 8442.7783 3250.9923 1339.5446 577.58611 254.84875 115.36232 53.751502 25.647907 12.549058 6.2703580  3.1941910  1.6309190  0.8030740  0.3971520  0.1986730  0.1016200  0.0517680 0.01617

 0.00000009 -0.00000002 0.00 0.00 0.00 0.00 0.00 0.00 0.00 0.00 0.00
 0.00000073 -0.00000015 0.00 0.00 0.00 0.00 0.00 0.00 0.00 0.00 0.00
 0.00000395 -0.00000084 0.00 0.00 0.00 0.00 0.00 0.00 0.00 0.00 0.00
 0.00001773 -0.00000378 0.00 0.00 0.00 0.00 0.00 0.00 0.00 0.00 0.00
 0.00006817 -0.00001452 0.00 0.00 0.00 0.00 0.00 0.00 0.00 0.00 0.00
 0.00022786 -0.00004858 0.00 0.00 0.00 0.00 0.00 0.00 0.00 0.00 0.00
 0.00069106 -0.00014732 0.00 0.00 0.00 0.00 0.00 0.00 0.00 0.00 0.00
 0.00195083 -0.00041681 0.00 0.00 0.00 0.00 0.00 0.00 0.00 0.00 0.00
 0.00533249 -0.00114166 0.00 0.00 0.00 0.00 0.00 0.00 0.00 0.00 0.00
 0.01412913 -0.00304846 0.00 0.00 0.00 0.00 0.00 0.00 0.00 0.00 0.00
 0.03494208 -0.00763834 0.00 0.00 0.00 0.00 0.00 0.00 0.00 0.00 0.00
 0.07899428 -0.01779085 0.00 0.00 0.00 0.00 0.00 0.00 0.00 0.00 0.00
 0.15733027 -0.03738140 0.00 0.00 0.00 0.00 0.00 0.00 0.00 0.00 0.00
 0.25888375 -0.06876992 0.00 0.00 0.00 0.00 0.00 0.00 0.00 0.00 0.00
 0.0         0.0        1.0  0.00 0.00 0.00 0.00 0.00 0.00 0.00 0.00
 0.0         0.0        0.00 1.0  0.00 0.00 0.00 0.00 0.00 0.00 0.00
 0.0         0.0        0.00 0.00 1.0  0.00 0.00 0.00 0.00 0.00 0.00
 0.0         0.0        0.00 0.00 0.00 1.0  0.00 0.00 0.00 0.00 0.00
 0.0         0.0        0.00 0.00 0.00 0.00 1.0  0.00 0.00 0.00 0.00
 0.0         0.0        0.00 0.00 0.00 0.00 0.00 1.0  0.00 0.00 0.00
 0.0         0.0        0.00 0.00 0.00 0.00 0.00 0.00 1.0  0.00 0.00
 0.0         0.0        0.00 0.00 0.00 0.00 0.00 0.00 0.00 1.0  0.00
 0.0         0.0        0.00 0.00 0.00 0.00 0.00 0.00 0.00 0.00 1.0

5999.8334 3242.6192 725.25468 183.93344 59.387978 22.387773 9.2826190 4.1319510 1.9672040 0.9910470 0.5202210 0.2816830 0.1557000 0.0861700 0.0457970 0.0102930  0.007016

0.00000038 0.00 0.00 0.00 0.00 0.00 0.00 0.00 0.00 0.00
0.00000148 0.00 0.00 0.00 0.00 0.00 0.00 0.00 0.00 0.00
0.00002616 0.00 0.00 0.00 0.00 0.00 0.00 0.00 0.00 0.00
0.00023297 0.00 0.00 0.00 0.00 0.00 0.00 0.00 0.00 0.00
0.00134518 0.00 0.00 0.00 0.00 0.00 0.00 0.00 0.00 0.00
0.00571684 0.00 0.00 0.00 0.00 0.00 0.00 0.00 0.00 0.00
0.01877828 0.00 0.00 0.00 0.00 0.00 0.00 0.00 0.00 0.00
0.05028713 0.00 0.00 0.00 0.00 0.00 0.00 0.00 0.00 0.00
0.00000000 1.0  0.00 0.00 0.00 0.00 0.00 0.00 0.00 0.00
0.00000000 0.00 1.0  0.00 0.00 0.00 0.00 0.00 0.00 0.00
0.00000000 0.00 0.00 1.0  0.00 0.00 0.00 0.00 0.00 0.00
0.00000000 0.00 0.00 0.00 1.0  0.00 0.00 0.00 0.00 0.00
0.00000000 0.00 0.00 0.00 0.00 1.0  0.00 0.00 0.00 0.00
0.00000000 0.00 0.00 0.00 0.00 0.00 1.0  0.00 0.00 0.00
0.00000000 0.00 0.00 0.00 0.00 0.00 0.00 1.0  0.00 0.00
0.00000000 0.00 0.00 0.00 0.00 0.00 0.00 0.00 1.0  0.00
0.0        0.00 0.00 0.00 0.00 0.00 0.00 0.00 0.00 1.0

10.111987 5.3534834 2.8342387 1.5005014 0.7943947 0.4205681 0.2226570 0.1178790 0.10386

1.0  0.00 0.00 0.00 0.00 0.00 0.00 0.00  0.00
0.00 1.0  0.00 0.00 0.00 0.00 0.00 0.00  0.00
0.00 0.00 1.0  0.00 0.00 0.00 0.00 0.00  0.00
0.00 0.00 0.00 1.0  0.00 0.00 0.00 0.00  0.00
0.00 0.00 0.00 0.00 1.0  0.00 0.00 0.00  0.00
0.00 0.00 0.00 0.00 0.00 1.0  0.00 0.00  0.00
0.00 0.00 0.00 0.00 0.00 0.00 1.0  0.00  0.00
0.00 0.00 0.00 0.00 0.00 0.00 0.00 1.0   0.0
0.00 0.00 0.00 0.00 0.00 0.00 0.00 0.0   1.0

5.2477955     3.0530678     1.7762169     1.0333692     0.6011946     0.3497636     0.2034858     0.15414

1.0  0.00 0.00 0.00 0.00 0.00 0.00 0.00
0.00 1.0  0.00 0.00 0.00 0.00 0.00 0.00
0.00 0.00 1.0  0.00 0.00 0.00 0.00 0.00
0.00 0.00 0.00 1.0  0.00 0.00 0.00 0.00
0.00 0.00 0.00 0.00 1.0  0.00 0.00 0.00
0.00 0.00 0.00 0.00 0.00 1.0  0.00 0.00
0.00 0.00 0.00 0.00 0.00 0.00 1.0  0.0
0.00 0.00 0.00 0.00 0.00 0.00 0.0  1.0

5.9651818 3.4034629 1.9418619 1.1079386 0.6321396 0.3606703  0.45046

1.0  0.00 0.00 0.00 0.00 0.00  0.00
0.00 1.0  0.00 0.00 0.00 0.00  0.00
0.00 0.00 1.0  0.00 0.00 0.00  0.00
0.00 0.00 0.00 1.0  0.00 0.00  0.00
0.00 0.00 0.00 0.00 1.0  0.00  0.00
0.00 0.00 0.00 0.00 0.00 1.0   0.0
0.00 0.00 0.00 0.00 0.00 0.0   1.0

5.8000486 3.2402961 1.8102467 1.0113252 0.5649941 0.56826

1.0  0.00 0.00 0.00 0.00 0.00
0.00 1.0  0.00 0.00 0.00 0.00
0.00 0.00 1.0  0.00 0.00 0.00
0.00 0.00 0.00 1.0  0.00 0.00
0.00 0.00 0.00 0.00 1.0  0.0
0.00 0.00 0.00 0.00 0.0  1.0

3.9592251     2.2689852     1.3003287     0.7452030     0.87987

1.0  0.00 0.00 0.00   0.00
0.00 1.0  0.00 0.00   0.00
0.00 0.00 1.0  0.00   0.00
0.00 0.00 0.00 1.0    0.0
0.00 0.00 0.00 0.0    1.0

C:aV7Zi-FELLER
EMSL BASIS SET LIBRARY

  7
    0    1    2    3    4    5    6
    9    8    7    6    5    4    3
   19   13    7    6    5    4    3

 0.9490288E+06 0.1420830E+06 0.3233247E+05 0.9158117E+04 0.2987909E+04 0.1078788E+04 0.4208308E+03 0.1746003E+03 0.7618292E+02 0.3463588E+02 0.1627076E+02 0.7855479E+01 0.3882172E+01 0.1928334E+01 0.8358060E+00 0.3862910E+00 0.1768600E+00 0.8025200E-01 0.0321008

0.14E-05      -0.30E-06      0.0000000  0.0000000  0.0000000  0.0000000 0.0000000 0.0000000 0.0000000
0.11E-04      -0.23E-05      0.0000000  0.0000000  0.0000000  0.0000000 0.0000000 0.0000000 0.0000000
0.578E-04     -0.123E-04     0.0000000  0.0000000  0.0000000  0.0000000 0.0000000 0.0000000 0.0000000
0.2444000E-03 -0.52E-04      0.0000000  0.0000000  0.0000000  0.0000000 0.0000000 0.0000000 0.0000000
0.891E-03     -0.19E-03      0.0000000  0.0000000  0.0000000  0.0000000 0.0000000 0.0000000 0.0000000
0.2904000E-02 -0.62E-03      0.0000000  0.0000000  0.0000000  0.0000000 0.0000000 0.0000000 0.0000000
0.8631000E-02 -0.1855000E-02 0.0000000  0.0000000  0.0000000  0.0000000 0.0000000 0.0000000 0.0000000
0.2352900E-01 -0.5092000E-02 0.0000000  0.0000000  0.0000000  0.0000000 0.0000000 0.0000000 0.0000000
0.5816100E-01 -0.1291600E-01 0.0000000  0.0000000  0.0000000  0.0000000 0.0000000 0.0000000 0.0000000
0.1266240E+00 -0.2923000E-01 0.0000000  0.0000000  0.0000000  0.0000000 0.0000000 0.0000000 0.0000000
0.2304650E+00 -0.5841400E-01 0.0000000  0.0000000  0.0000000  0.0000000 0.0000000 0.0000000 0.0000000
0.3192970E+00 -0.9665500E-01 0.0000000  0.0000000  0.0000000  0.0000000 0.0000000 0.0000000 0.0000000
0.0000000E+00 -0.0000000E+00 1.0000000  0.0000000  0.0000000  0.0000000 0.0000000 0.0000000 0.0000000
0.0000000E+00 -0.0000000E-01 0.0000000  1.0000000  0.0000000  0.0000000 0.0000000 0.0000000 0.0000000
0.0000000E-02  0.0000000E+00 0.0000000  0.0000000  1.0000000  0.0000000 0.0000000 0.0000000 0.0000000
0.00E-05       0.0000000E+00 0.0000000  0.0000000  0.0000000  1.0000000 0.0000000 0.0000000 0.0000000
0.000E-03      0.0000000E+00 0.0000000  0.0000000  0.0000000  0.0000000 1.0000000 0.0000000 0.0000000
-0.000E-04     0.0000000E+00 0.0000000  0.0000000  0.0000000  0.0000000 0.0000000 1.0000000 0.0000000
0.0            0.0           0.0000000  0.0000000  0.0000000  0.0000000 0.0000000 0.0000000 1.0000000

 0.7654553E+03 0.1808628E+03 0.5871441E+02 0.2241625E+02 0.9406214E+01 0.4187198E+01 0.1955876E+01 0.9453360E+00 0.4627630E+00 0.2267960E+00 0.1105920E+00 0.524E-01  0.019407

0.272E-04     0.0000000  0.0000000  0.0000000  0.0000000 0.0000000 0.0000000 0.0000000
0.241E-03     0.0000000  0.0000000  0.0000000  0.0000000 0.0000000 0.0000000 0.0000000
0.1357000E-02 0.0000000  0.0000000  0.0000000  0.0000000 0.0000000 0.0000000 0.0000000
0.562E-02     0.0000000  0.0000000  0.0000000  0.0000000 0.0000000 0.0000000 0.0000000
0.1826700E-01 0.0000000  0.0000000  0.0000000  0.0000000 0.0000000 0.0000000 0.0000000
0.5001900E-01 0.0000000  0.0000000  0.0000000  0.0000000 0.0000000 0.0000000 0.0000000
0.1164080E+00 1.0000000  0.0000000  0.0000000  0.0000000 0.0000000 0.0000000 0.0000000
0.0000000E+00 0.0000000  1.0000000  0.0000000  0.0000000 0.0000000 0.0000000 0.0000000
0.0000000E+00 0.0000000  0.0000000  1.0000000  0.0000000 0.0000000 0.0000000 0.0000000
0.0000000E+00 0.0000000  0.0000000  0.0000000  1.0000000 0.0000000 0.0000000 0.0000000
0.0000000E+00 0.0000000  0.0000000  0.0000000  0.0000000 1.0000000 0.0000000 0.0000000
0.0000000E-01 0.0000000  0.0000000  0.0000000  0.0000000 0.0000000 1.0000000 0.0000000
0.0           0.0000000  0.0000000  0.0000000  0.0000000 0.0000000 0.0000000 1.0000000

 5.80319 2.75811 1.31086 0.62302 0.29610 0.14073 0.05840

1.0000000  0.0000000  0.0000000 0.0000000 0.0000000 0.0000000 0.0000000
0.0000000  1.0000000  0.0000000 0.0000000 0.0000000 0.0000000 0.0000000
0.0000000  0.0000000  1.0000000 0.0000000 0.0000000 0.0000000 0.0000000
0.0000000  0.0000000  0.0000000 1.0000000 0.0000000 0.0000000 0.0000000
0.0000000  0.0000000  0.0000000 0.0000000 1.0000000 0.0000000 0.0000000
0.0000000  0.0000000  0.0000000 0.0000000 0.0000000 1.0000000 0.0000000
0.0000000  0.0000000  0.0000000 0.0000000 0.0000000 0.0000000 1.0000000

 3.31553 1.74776 0.92133 0.48567 0.25602  0.11020

1.0000000 0.0000000 0.0000000 0.0000000 0.0000000 0.0000000
0.0000000 1.0000000 0.0000000 0.0000000 0.0000000 0.0000000
0.0000000 0.0000000 1.0000000 0.0000000 0.0000000 0.0000000
0.0000000 0.0000000 0.0000000 1.0000000 0.0000000 0.0000000
0.0000000 0.0000000 0.0000000 0.0000000 1.0000000 0.0000000
0.0000000 0.0000000 0.0000000 0.0000000 0.0000000 1.0000000

 3.62722 1.83501 0.92833 0.4696 0.21720

1.0000000 0.0000000 0.0000000 0.0000000 0.0000000
0.0000000 1.0000000 0.0000000 0.0000000 0.0000000
0.0000000 0.0000000 1.0000000 0.0000000 0.0000000
0.0000000 0.0000000 0.0000000 1.0000000 0.0000000
0.0000000 0.0000000 0.0000000 0.0000000 1.0000000

 2.75639 1.36308 0.67407  0.34760

1.0000000 0.0000000 0.0000000 0.0
0.0000000 1.0000000 0.0000000 0.0
0.0000000 0.0000000 1.0000000 0.0
0.0000000 0.0000000 0.0000000 1.0

 2.37436 1.05532 0.58500

1.0000000 0.0 0.0
0.0000000 1.0 0.0
0.0000000 0.0 1.0

H:3-21G-EMSL
EMSL BASIS SET LIBRARY

  1
    0
    2
    3

     5.4471780     0.8245470     0.1831920

 0.1562850  0.0000000
 0.9046910  0.0000000
 0.0000000  1.0000000

HE:3-21G-EMSL
EMSL BASIS SET LIBRARY

  1
    0
    2
    3

    13.6267000     1.9993500     0.3829930

 0.1752300  0.0000000
 0.8934830  0.0000000
 0.0000000  1.0000000

LI:3-21G-EMSL
EMSL BASIS SET LIBRARY

  2
    0    1
    3    2
    6    3

    36.8382000     5.4817200     1.1132700     0.5402050     0.1022550
     0.0285650

 0.0696686  0.0000000  0.0000000
 0.3813460  0.0000000  0.0000000
 0.6817020  0.0000000  0.0000000
 0.0000000 -0.2631270  0.0000000
 0.0000000  1.1433900  0.0000000
 0.0000000  0.0000000  1.0000000

     0.5402050     0.1022550     0.0285650

 0.1615460  0.0000000
 0.9156630  0.0000000
 0.0000000  1.0000000

BE:3-21G-EMSL
EMSL BASIS SET LIBRARY

  2
    0    1
    3    2
    6    3

    71.8876000    10.7289000     2.2220500     1.2954800     0.2688810
     0.0773500

 0.0644263  0.0000000  0.0000000
 0.3660960  0.0000000  0.0000000
 0.6959340  0.0000000  0.0000000
 0.0000000 -0.4210640  0.0000000
 0.0000000  1.2240700  0.0000000
 0.0000000  0.0000000  1.0000000

     1.2954800     0.2688810     0.0773500

 0.2051320  0.0000000
 0.8825280  0.0000000
 0.0000000  1.0000000

B:3-21G-EMSL
EMSL BASIS SET LIBRARY

  2
    0    1
    3    2
    6    3

   116.4340000    17.4314000     3.6801600     2.2818700     0.4652480
     0.1243280

 0.0629605  0.0000000  0.0000000
 0.3633040  0.0000000  0.0000000
 0.6972550  0.0000000  0.0000000
 0.0000000 -0.3686620  0.0000000
 0.0000000  1.1994400  0.0000000
 0.0000000  0.0000000  1.0000000

     2.2818700     0.4652480     0.1243280

 0.2311520  0.0000000
 0.8667640  0.0000000
 0.0000000  1.0000000

C:3-21G-EMSL
EMSL BASIS SET LIBRARY

  2
[...]
 0.0000000  0.0000000  0.0000000  0.0000000  0.0000000 0.0000000  1.0000000  0.0000000
 0.0000000  0.0000000  0.0000000  0.0000000  0.0000000 0.0000000  0.0000000  1.0000000

      5.7331092 2.5824816 1.1632800 93.8953779408 28.6271762151 0.5816400

 1.0000000  0.0000000  0.0000000 0.0000000  0.0000000  0.0000000
 0.0000000  1.0000000  0.0000000 0.0000000  0.0000000  0.0000000
 0.0000000  0.0000000  1.0000000 0.0000000  0.0000000  0.0000000
 0.0000000  0.0000000  0.0000000 1.0000000  0.0000000  0.0000000
 0.0000000  0.0000000  0.0000000 0.0000000  1.0000000  0.0000000
 0.0000000  0.0000000  0.0000000 0.0000000  0.0000000  1.0000000

 4.8130000           2.0780000          74.9797942197    1.0390000

 1.0000000 0.0000000   0.0000000  0.0000000
 0.0000000 1.0000000   0.0000000  0.0000000
 0.0000000 0.0000000   1.0000000  0.0000000
 0.0000000 0.0000000   0.0000000  1.0000000

      3.1230000   1.2320000

 1.0000000        0.0
 0.0              1.0

O:aCV7Z-CSO-UNC1
From Csontos' email to Nike. CV functions are UHF-MP2 optimized in Psi3 on aV7Z of Feller & Peterson. Their UHF: -76.067461, uncontracted by Nike with one exponent removed to avoid linear dependencies. 30 and 28.8 are the closes exponents for S. 16.66 and 16.366 were extremely close for P, so one (from the CV) was taken out.

  8
    0  1   2    3    4    5 6 7
   25 18  12   10    8    6 4 2
   25 18  12   10    8    6 4 2


 1678789.0000000             251388.2000000              57213.7300000              16207.4400000              5288.2760000              1909.4780000              744.9231000              309.0755000              134.8645000              61.3312900              28.8379600              13.9450400              6.8990770 3.4315770 1.5398400 0.7097510 0.3230470 0.1442220 496.301272333         283.450755017         161.886207025         92.4574853342         52.8049100131         30.1582777362         0.0554700

 1.0 0.0 0.0 0.0 0.0 0.0 0.0 0.0 0.0 0.0 0.0 0.0 0.0 0.0 0.0 0.0 0.0 0.0 0.0 0.0 0.0 0.0 0.0 0.0 0.0
 0.0 1.0 0.0 0.0 0.0 0.0 0.0 0.0 0.0 0.0 0.0 0.0 0.0 0.0 0.0 0.0 0.0 0.0 0.0 0.0 0.0 0.0 0.0 0.0 0.0
 0.0 0.0 1.0 0.0 0.0 0.0 0.0 0.0 0.0 0.0 0.0 0.0 0.0 0.0 0.0 0.0 0.0 0.0 0.0 0.0 0.0 0.0 0.0 0.0 0.0
 0.0 0.0 0.0 1.0 0.0 0.0 0.0 0.0 0.0 0.0 0.0 0.0 0.0 0.0 0.0 0.0 0.0 0.0 0.0 0.0 0.0 0.0 0.0 0.0 0.0
 0.0 0.0 0.0 0.0 1.0 0.0 0.0 0.0 0.0 0.0 0.0 0.0 0.0 0.0 0.0 0.0 0.0 0.0 0.0 0.0 0.0 0.0 0.0 0.0 0.0
 0.0 0.0 0.0 0.0 0.0 1.0 0.0 0.0 0.0 0.0 0.0 0.0 0.0 0.0 0.0 0.0 0.0 0.0 0.0 0.0 0.0 0.0 0.0 0.0 0.0
 0.0 0.0 0.0 0.0 0.0 0.0 1.0 0.0 0.0 0.0 0.0 0.0 0.0 0.0 0.0 0.0 0.0 0.0 0.0 0.0 0.0 0.0 0.0 0.0 0.0
 0.0 0.0 0.0 0.0 0.0 0.0 0.0 1.0 0.0 0.0 0.0 0.0 0.0 0.0 0.0 0.0 0.0 0.0 0.0 0.0 0.0 0.0 0.0 0.0 0.0
 0.0 0.0 0.0 0.0 0.0 0.0 0.0 0.0 1.0 0.0 0.0 0.0 0.0 0.0 0.0 0.0 0.0 0.0 0.0 0.0 0.0 0.0 0.0 0.0 0.0
 0.0 0.0 0.0 0.0 0.0 0.0 0.0 0.0 0.0 1.0 0.0 0.0 0.0 0.0 0.0 0.0 0.0 0.0 0.0 0.0 0.0 0.0 0.0 0.0 0.0
 0.0 0.0 0.0 0.0 0.0 0.0 0.0 0.0 0.0 0.0 1.0 0.0 0.0 0.0 0.0 0.0 0.0 0.0 0.0 0.0 0.0 0.0 0.0 0.0 0.0
 0.0 0.0 0.0 0.0 0.0 0.0 0.0 0.0 0.0 0.0 0.0 1.0 0.0 0.0 0.0 0.0 0.0 0.0 0.0 0.0 0.0 0.0 0.0 0.0 0.0
 0.0 0.0 0.0 0.0 0.0 0.0 0.0 0.0 0.0 0.0 0.0 0.0 1.0 0.0 0.0 0.0 0.0 0.0 0.0 0.0 0.0 0.0 0.0 0.0 0.0
 0.0 0.0 0.0 0.0 0.0 0.0 0.0 0.0 0.0 0.0 0.0 0.0 0.0 1.0 0.0 0.0 0.0 0.0 0.0 0.0 0.0 0.0 0.0 0.0 0.0
 0.0 0.0 0.0 0.0 0.0 0.0 0.0 0.0 0.0 0.0 0.0 0.0 0.0 0.0 1.0 0.0 0.0 0.0 0.0 0.0 0.0 0.0 0.0 0.0 0.0
 0.0 0.0 0.0 0.0 0.0 0.0 0.0 0.0 0.0 0.0 0.0 0.0 0.0 0.0 0.0 1.0 0.0 0.0 0.0 0.0 0.0 0.0 0.0 0.0 0.0
 0.0 0.0 0.0 0.0 0.0 0.0 0.0 0.0 0.0 0.0 0.0 0.0 0.0 0.0 0.0 0.0 1.0 0.0 0.0 0.0 0.0 0.0 0.0 0.0 0.0
 0.0 0.0 0.0 0.0 0.0 0.0 0.0 0.0 0.0 0.0 0.0 0.0 0.0 0.0 0.0 0.0 0.0 1.0 0.0 0.0 0.0 0.0 0.0 0.0 0.0
 0.0 0.0 0.0 0.0 0.0 0.0 0.0 0.0 0.0 0.0 0.0 0.0 0.0 0.0 0.0 0.0 0.0 0.0 1.0 0.0 0.0 0.0 0.0 0.0 0.0
 0.0 0.0 0.0 0.0 0.0 0.0 0.0 0.0 0.0 0.0 0.0 0.0 0.0 0.0 0.0 0.0 0.0 0.0 0.0 1.0 0.0 0.0 0.0 0.0 0.0
 0.0 0.0 0.0 0.0 0.0 0.0 0.0 0.0 0.0 0.0 0.0 0.0 0.0 0.0 0.0 0.0 0.0 0.0 0.0 0.0 1.0 0.0 0.0 0.0 0.0
 0.0 0.0 0.0 0.0 0.0 0.0 0.0 0.0 0.0 0.0 0.0 0.0 0.0 0.0 0.0 0.0 0.0 0.0 0.0 0.0 0.0 1.0 0.0 0.0 0.0
 0.0 0.0 0.0 0.0 0.0 0.0 0.0 0.0 0.0 0.0 0.0 0.0 0.0 0.0 0.0 0.0 0.0 0.0 0.0 0.0 0.0 0.0 1.0 0.0 0.0
 0.0 0.0 0.0 0.0 0.0 0.0 0.0 0.0 0.0 0.0 0.0 0.0 0.0 0.0 0.0 0.0 0.0 0.0 0.0 0.0 0.0 0.0 0.0 1.0 0.0
 0.0 0.0 0.0 0.0 0.0 0.0 0.0 0.0 0.0 0.0 0.0 0.0 0.0 0.0 0.0 0.0 0.0 0.0 0.0 0.0 0.0 0.0 0.0 0.0 1.0

   1349.0590000              319.4569000              103.7804000              39.6282100              16.6613700              7.4641660              3.5093250 1.6956800 0.8227420 0.3957330 0.1876440 0.0858410 506.478405197     254.939973736     128.326083682     64.5939650495     32.5138911832      0.0286137

1.0 0.0 0.0 0.0 0.0 0.0 0.0 0.0 0.0 0.0 0.0 0.0 0.0 0.0 0.0 0.0 0.0 0.0
0.0 1.0 0.0 0.0 0.0 0.0 0.0 0.0 0.0 0.0 0.0 0.0 0.0 0.0 0.0 0.0 0.0 0.0
0.0 0.0 1.0 0.0 0.0 0.0 0.0 0.0 0.0 0.0 0.0 0.0 0.0 0.0 0.0 0.0 0.0 0.0
0.0 0.0 0.0 1.0 0.0 0.0 0.0 0.0 0.0 0.0 0.0 0.0 0.0 0.0 0.0 0.0 0.0 0.0
0.0 0.0 0.0 0.0 1.0 0.0 0.0 0.0 0.0 0.0 0.0 0.0 0.0 0.0 0.0 0.0 0.0 0.0
0.0 0.0 0.0 0.0 0.0 1.0 0.0 0.0 0.0 0.0 0.0 0.0 0.0 0.0 0.0 0.0 0.0 0.0
0.0 0.0 0.0 0.0 0.0 0.0 1.0 0.0 0.0 0.0 0.0 0.0 0.0 0.0 0.0 0.0 0.0 0.0
0.0 0.0 0.0 0.0 0.0 0.0 0.0 1.0 0.0 0.0 0.0 0.0 0.0 0.0 0.0 0.0 0.0 0.0
0.0 0.0 0.0 0.0 0.0 0.0 0.0 0.0 1.0 0.0 0.0 0.0 0.0 0.0 0.0 0.0 0.0 0.0
0.0 0.0 0.0 0.0 0.0 0.0 0.0 0.0 0.0 1.0 0.0 0.0 0.0 0.0 0.0 0.0 0.0 0.0
0.0 0.0 0.0 0.0 0.0 0.0 0.0 0.0 0.0 0.0 1.0 0.0 0.0 0.0 0.0 0.0 0.0 0.0
0.0 0.0 0.0 0.0 0.0 0.0 0.0 0.0 0.0 0.0 0.0 1.0 0.0 0.0 0.0 0.0 0.0 0.0
0.0 0.0 0.0 0.0 0.0 0.0 0.0 0.0 0.0 0.0 0.0 0.0 1.0 0.0 0.0 0.0 0.0 0.0
0.0 0.0 0.0 0.0 0.0 0.0 0.0 0.0 0.0 0.0 0.0 0.0 0.0 1.0 0.0 0.0 0.0 0.0
0.0 0.0 0.0 0.0 0.0 0.0 0.0 0.0 0.0 0.0 0.0 0.0 0.0 0.0 1.0 0.0 0.0 0.0
0.0 0.0 0.0 0.0 0.0 0.0 0.0 0.0 0.0 0.0 0.0 0.0 0.0 0.0 0.0 1.0 0.0 0.0
0.0 0.0 0.0 0.0 0.0 0.0 0.0 0.0 0.0 0.0 0.0 0.0 0.0 0.0 0.0 0.0 1.0 0.0
0.0 0.0 0.0 0.0 0.0 0.0 0.0 0.0 0.0 0.0 0.0 0.0 0.0 0.0 0.0 0.0 0.0 1.0

 10.0642930 4.8432594 2.3307312 1.1216223 0.5397605 0.2597500 406.941661879  198.934652803  97.2498021042  47.5408576438  23.2404909481  0.1039000

 1.0000000  0.0000000  0.0000000  0.0000000 0.0000000  0.0000000  0.0000000  0.0000000  0.0000000 0.0000000   0.0000000  0.0000000
 0.0000000  1.0000000  0.0000000  0.0000000 0.0000000  0.0000000  0.0000000  0.0000000  0.0000000 0.0000000   0.0000000  0.0000000
 0.0000000  0.0000000  1.0000000  0.0000000 0.0000000  0.0000000  0.0000000  0.0000000  0.0000000 0.0000000   0.0000000  0.0000000
 0.0000000  0.0000000  0.0000000  1.0000000 0.0000000  0.0000000  0.0000000  0.0000000  0.0000000 0.0000000   0.0000000  0.0000000
 0.0000000  0.0000000  0.0000000  0.0000000 1.0000000  0.0000000  0.0000000  0.0000000  0.0000000 0.0000000   0.0000000  0.0000000
 0.0000000  0.0000000  0.0000000  0.0000000 0.0000000  1.0000000  0.0000000  0.0000000  0.0000000 0.0000000   0.0000000  0.0000000
 0.0000000  0.0000000  0.0000000  0.0000000 0.0000000  0.0000000  1.0000000  0.0000000  0.0000000 0.0000000   0.0000000  0.0000000
 0.0000000  0.0000000  0.0000000  0.0000000 0.0000000  0.0000000  0.0000000  1.0000000  0.0000000 0.0000000   0.0000000  0.0000000
 0.0000000  0.0000000  0.0000000  0.0000000 0.0000000  0.0000000  0.0000000  0.0000000  1.0000000 0.0000000   0.0000000  0.0000000
 0.0000000  0.0000000  0.0000000  0.0000000 0.0000000  0.0000000  0.0000000  0.0000000  0.0000000 1.0000000   0.0000000  0.0000000
 0.0000000  0.0000000  0.0000000  0.0000000 0.0000000  0.0000000  0.0000000  0.0000000  0.0000000 0.0000000   1.0000000  0.0000000
 0.0000000  0.0000000  0.0000000  0.0000000 0.0000000  0.0000000  0.0000000  0.0000000  0.0000000 0.0000000   0.0000000  1.0000000

      6.9117087          3.4199449          1.6922043          0.8373104          0.4143050          235.516822478      101.34179399       43.6069029001      18.7638476256      0.1726270

 1.0000000  0.0000000 0.0000000  0.0000000  0.0000000  0.0000000  0.0000000 0.0000000  0.0000000  0.0000000
 0.0000000  1.0000000 0.0000000  0.0000000  0.0000000  0.0000000  0.0000000 0.0000000  0.0000000  0.0000000
 0.0000000  0.0000000 1.0000000  0.0000000  0.0000000  0.0000000  0.0000000 0.0000000  0.0000000  0.0000000
 0.0000000  0.0000000 0.0000000  1.0000000  0.0000000  0.0000000  0.0000000 0.0000000  0.0000000  0.0000000
 0.0000000  0.0000000 0.0000000  0.0000000  1.0000000  0.0000000  0.0000000 0.0000000  0.0000000  0.0000000
 0.0000000  0.0000000 0.0000000  0.0000000  0.0000000  1.0000000  0.0000000 0.0000000  0.0000000  0.0000000
 0.0000000  0.0000000 0.0000000  0.0000000  0.0000000  0.0000000  1.0000000 0.0000000  0.0000000  0.0000000
 0.0000000  0.0000000 0.0000000  0.0000000  0.0000000  0.0000000  0.0000000 1.0000000  0.0000000  0.0000000
 0.0000000  0.0000000 0.0000000  0.0000000  0.0000000  0.0000000  0.0000000 0.0000000  1.0000000  0.0000000
 0.0000000  0.0000000 0.0000000  0.0000000  0.0000000  0.0000000  0.0000000 0.0000000  0.0000000  1.0000000

 7.2379949      3.4157598      1.6119678      0.7607210      158.324745434  61.0002294543  23.5025041934   0.3457820

 1.0000000  0.0000000  0.0000000  0.0000000  0.0000000 0.0000000  0.0000000  0.0000000
 0.0000000  1.0000000  0.0000000  0.0000000  0.0000000 0.0000000  0.0000000  0.0000000
 0.0000000  0.0000000  1.0000000  0.0000000  0.0000000 0.0000000  0.0000000  0.0000000
 0.0000000  0.0000000  0.0000000  1.0000000  0.0000000 0.0000000  0.0000000  0.0000000
 0.0000000  0.0000000  0.0000000  0.0000000  1.0000000 0.0000000  0.0000000  0.0000000
 0.0000000  0.0000000  0.0000000  0.0000000  0.0000000 1.0000000  0.0000000  0.0000000
 0.0000000  0.0000000  0.0000000  0.0000000  0.0000000 0.0000000  1.0000000  0.0000000
 0.0000000  0.0000000  0.0000000  0.0000000  0.0000000 0.0000000  0.0000000  1.0000000

      5.7331092 2.5824816 1.1632800 93.8953779408 28.6271762151 0.5816400

 1.0000000  0.0000000  0.0000000 0.0000000  0.0000000  0.0000000
 0.0000000  1.0000000  0.0000000 0.0000000  0.0000000  0.0000000
 0.0000000  0.0000000  1.0000000 0.0000000  0.0000000  0.0000000
 0.0000000  0.0000000  0.0000000 1.0000000  0.0000000  0.0000000
 0.0000000  0.0000000  0.0000000 0.0000000  1.0000000  0.0000000
 0.0000000  0.0000000  0.0000000 0.0000000  0.0000000  1.0000000

 4.8130000           2.0780000          74.9797942197    1.0390000

 1.0000000 0.0000000   0.0000000  0.0000000
 0.0000000 1.0000000   0.0000000  0.0000000
 0.0000000 0.0000000   1.0000000  0.0000000
 0.0000000 0.0000000   0.0000000  1.0000000

      3.1230000   1.2320000

 1.0000000        0.0
 0.0              1.0

O:aCV7Z-CSO-UNC2
From Csontos' email to Nike. CV functions are UHF-MP2 optimized in Psi3 on aV7Z of Feller & Peterson. Their UHF: -76.067461, uncontracted by Nike, and CV exponent 30.2  and 161.886207025 are removed to avoid linear dependeny.

  8
    0  1   2    3    4    5 6 7
   23 19  12   10    8    6 4 2
   23 19  12   10    8    6 4 2


 1678789.0000000             251388.2000000              57213.7300000              16207.4400000              5288.2760000              1909.4780000              744.9231000              309.0755000              134.8645000              61.3312900              28.8379600              13.9450400              6.8990770 3.4315770 1.5398400 0.7097510 0.3230470 0.1442220 496.301272333         283.450755017                  92.4574853342         52.8049100131        0.0554700

 1.0 0.0 0.0 0.0 0.0 0.0 0.0 0.0 0.0 0.0 0.0 0.0 0.0 0.0 0.0 0.0 0.0 0.0 0.0 0.0 0.0 0.0 0.0
 0.0 1.0 0.0 0.0 0.0 0.0 0.0 0.0 0.0 0.0 0.0 0.0 0.0 0.0 0.0 0.0 0.0 0.0 0.0 0.0 0.0 0.0 0.0
 0.0 0.0 1.0 0.0 0.0 0.0 0.0 0.0 0.0 0.0 0.0 0.0 0.0 0.0 0.0 0.0 0.0 0.0 0.0 0.0 0.0 0.0 0.0
 0.0 0.0 0.0 1.0 0.0 0.0 0.0 0.0 0.0 0.0 0.0 0.0 0.0 0.0 0.0 0.0 0.0 0.0 0.0 0.0 0.0 0.0 0.0
 0.0 0.0 0.0 0.0 1.0 0.0 0.0 0.0 0.0 0.0 0.0 0.0 0.0 0.0 0.0 0.0 0.0 0.0 0.0 0.0 0.0 0.0 0.0
 0.0 0.0 0.0 0.0 0.0 1.0 0.0 0.0 0.0 0.0 0.0 0.0 0.0 0.0 0.0 0.0 0.0 0.0 0.0 0.0 0.0 0.0 0.0
 0.0 0.0 0.0 0.0 0.0 0.0 1.0 0.0 0.0 0.0 0.0 0.0 0.0 0.0 0.0 0.0 0.0 0.0 0.0 0.0 0.0 0.0 0.0
 0.0 0.0 0.0 0.0 0.0 0.0 0.0 1.0 0.0 0.0 0.0 0.0 0.0 0.0 0.0 0.0 0.0 0.0 0.0 0.0 0.0 0.0 0.0
 0.0 0.0 0.0 0.0 0.0 0.0 0.0 0.0 1.0 0.0 0.0 0.0 0.0 0.0 0.0 0.0 0.0 0.0 0.0 0.0 0.0 0.0 0.0
 0.0 0.0 0.0 0.0 0.0 0.0 0.0 0.0 0.0 1.0 0.0 0.0 0.0 0.0 0.0 0.0 0.0 0.0 0.0 0.0 0.0 0.0 0.0
 0.0 0.0 0.0 0.0 0.0 0.0 0.0 0.0 0.0 0.0 1.0 0.0 0.0 0.0 0.0 0.0 0.0 0.0 0.0 0.0 0.0 0.0 0.0
 0.0 0.0 0.0 0.0 0.0 0.0 0.0 0.0 0.0 0.0 0.0 1.0 0.0 0.0 0.0 0.0 0.0 0.0 0.0 0.0 0.0 0.0 0.0
 0.0 0.0 0.0 0.0 0.0 0.0 0.0 0.0 0.0 0.0 0.0 0.0 1.0 0.0 0.0 0.0 0.0 0.0 0.0 0.0 0.0 0.0 0.0
 0.0 0.0 0.0 0.0 0.0 0.0 0.0 0.0 0.0 0.0 0.0 0.0 0.0 1.0 0.0 0.0 0.0 0.0 0.0 0.0 0.0 0.0 0.0
 0.0 0.0 0.0 0.0 0.0 0.0 0.0 0.0 0.0 0.0 0.0 0.0 0.0 0.0 1.0 0.0 0.0 0.0 0.0 0.0 0.0 0.0 0.0
 0.0 0.0 0.0 0.0 0.0 0.0 0.0 0.0 0.0 0.0 0.0 0.0 0.0 0.0 0.0 1.0 0.0 0.0 0.0 0.0 0.0 0.0 0.0
 0.0 0.0 0.0 0.0 0.0 0.0 0.0 0.0 0.0 0.0 0.0 0.0 0.0 0.0 0.0 0.0 1.0 0.0 0.0 0.0 0.0 0.0 0.0
 0.0 0.0 0.0 0.0 0.0 0.0 0.0 0.0 0.0 0.0 0.0 0.0 0.0 0.0 0.0 0.0 0.0 1.0 0.0 0.0 0.0 0.0 0.0
 0.0 0.0 0.0 0.0 0.0 0.0 0.0 0.0 0.0 0.0 0.0 0.0 0.0 0.0 0.0 0.0 0.0 0.0 1.0 0.0 0.0 0.0 0.0
 0.0 0.0 0.0 0.0 0.0 0.0 0.0 0.0 0.0 0.0 0.0 0.0 0.0 0.0 0.0 0.0 0.0 0.0 0.0 1.0 0.0 0.0 0.0
 0.0 0.0 0.0 0.0 0.0 0.0 0.0 0.0 0.0 0.0 0.0 0.0 0.0 0.0 0.0 0.0 0.0 0.0 0.0 0.0 1.0 0.0 0.0
 0.0 0.0 0.0 0.0 0.0 0.0 0.0 0.0 0.0 0.0 0.0 0.0 0.0 0.0 0.0 0.0 0.0 0.0 0.0 0.0 0.0 1.0 0.0
 0.0 0.0 0.0 0.0 0.0 0.0 0.0 0.0 0.0 0.0 0.0 0.0 0.0 0.0 0.0 0.0 0.0 0.0 0.0 0.0 0.0 0.0 1.0

   1349.0590000              319.4569000              103.7804000              39.6282100              16.6613700              7.4641660              3.5093250 1.6956800 0.8227420 0.3957330 0.1876440 0.0858410 506.478405197     254.939973736     128.326083682     64.5939650495     32.5138911832     16.3661283073     0.0286137

1.0 0.0 0.0 0.0 0.0 0.0 0.0 0.0 0.0 0.0 0.0 0.0 0.0 0.0 0.0 0.0 0.0 0.0 0.0
0.0 1.0 0.0 0.0 0.0 0.0 0.0 0.0 0.0 0.0 0.0 0.0 0.0 0.0 0.0 0.0 0.0 0.0 0.0
0.0 0.0 1.0 0.0 0.0 0.0 0.0 0.0 0.0 0.0 0.0 0.0 0.0 0.0 0.0 0.0 0.0 0.0 0.0
0.0 0.0 0.0 1.0 0.0 0.0 0.0 0.0 0.0 0.0 0.0 0.0 0.0 0.0 0.0 0.0 0.0 0.0 0.0
0.0 0.0 0.0 0.0 1.0 0.0 0.0 0.0 0.0 0.0 0.0 0.0 0.0 0.0 0.0 0.0 0.0 0.0 0.0
0.0 0.0 0.0 0.0 0.0 1.0 0.0 0.0 0.0 0.0 0.0 0.0 0.0 0.0 0.0 0.0 0.0 0.0 0.0
0.0 0.0 0.0 0.0 0.0 0.0 1.0 0.0 0.0 0.0 0.0 0.0 0.0 0.0 0.0 0.0 0.0 0.0 0.0
0.0 0.0 0.0 0.0 0.0 0.0 0.0 1.0 0.0 0.0 0.0 0.0 0.0 0.0 0.0 0.0 0.0 0.0 0.0
0.0 0.0 0.0 0.0 0.0 0.0 0.0 0.0 1.0 0.0 0.0 0.0 0.0 0.0 0.0 0.0 0.0 0.0 0.0
0.0 0.0 0.0 0.0 0.0 0.0 0.0 0.0 0.0 1.0 0.0 0.0 0.0 0.0 0.0 0.0 0.0 0.0 0.0
0.0 0.0 0.0 0.0 0.0 0.0 0.0 0.0 0.0 0.0 1.0 0.0 0.0 0.0 0.0 0.0 0.0 0.0 0.0
0.0 0.0 0.0 0.0 0.0 0.0 0.0 0.0 0.0 0.0 0.0 1.0 0.0 0.0 0.0 0.0 0.0 0.0 0.0
0.0 0.0 0.0 0.0 0.0 0.0 0.0 0.0 0.0 0.0 0.0 0.0 1.0 0.0 0.0 0.0 0.0 0.0 0.0
0.0 0.0 0.0 0.0 0.0 0.0 0.0 0.0 0.0 0.0 0.0 0.0 0.0 1.0 0.0 0.0 0.0 0.0 0.0
0.0 0.0 0.0 0.0 0.0 0.0 0.0 0.0 0.0 0.0 0.0 0.0 0.0 0.0 1.0 0.0 0.0 0.0 0.0
0.0 0.0 0.0 0.0 0.0 0.0 0.0 0.0 0.0 0.0 0.0 0.0 0.0 0.0 0.0 1.0 0.0 0.0 0.0
0.0 0.0 0.0 0.0 0.0 0.0 0.0 0.0 0.0 0.0 0.0 0.0 0.0 0.0 0.0 0.0 1.0 0.0 0.0
0.0 0.0 0.0 0.0 0.0 0.0 0.0 0.0 0.0 0.0 0.0 0.0 0.0 0.0 0.0 0.0 0.0 1.0 0.0
0.0 0.0 0.0 0.0 0.0 0.0 0.0 0.0 0.0 0.0 0.0 0.0 0.0 0.0 0.0 0.0 0.0 0.0 1.0

 10.0642930 4.8432594 2.3307312 1.1216223 0.5397605 0.2597500 406.941661879  198.934652803  97.2498021042  47.5408576438  23.2404909481  0.1039000

 1.0000000  0.0000000  0.0000000  0.0000000 0.0000000  0.0000000  0.0000000  0.0000000  0.0000000 0.0000000   0.0000000  0.0000000
 0.0000000  1.0000000  0.0000000  0.0000000 0.0000000  0.0000000  0.0000000  0.0000000  0.0000000 0.0000000   0.0000000  0.0000000
 0.0000000  0.0000000  1.0000000  0.0000000 0.0000000  0.0000000  0.0000000  0.0000000  0.0000000 0.0000000   0.0000000  0.0000000
 0.0000000  0.0000000  0.0000000  1.0000000 0.0000000  0.0000000  0.0000000  0.0000000  0.0000000 0.0000000   0.0000000  0.0000000
 0.0000000  0.0000000  0.0000000  0.0000000 1.0000000  0.0000000  0.0000000  0.0000000  0.0000000 0.0000000   0.0000000  0.0000000
 0.0000000  0.0000000  0.0000000  0.0000000 0.0000000  1.0000000  0.0000000  0.0000000  0.0000000 0.0000000   0.0000000  0.0000000
 0.0000000  0.0000000  0.0000000  0.0000000 0.0000000  0.0000000  1.0000000  0.0000000  0.0000000 0.0000000   0.0000000  0.0000000
 0.0000000  0.0000000  0.0000000  0.0000000 0.0000000  0.0000000  0.0000000  1.0000000  0.0000000 0.0000000   0.0000000  0.0000000
 0.0000000  0.0000000  0.0000000  0.0000000 0.0000000  0.0000000  0.0000000  0.0000000  1.0000000 0.0000000   0.0000000  0.0000000
 0.0000000  0.0000000  0.0000000  0.0000000 0.0000000  0.0000000  0.0000000  0.0000000  0.0000000 1.0000000   0.0000000  0.0000000
 0.0000000  0.0000000  0.0000000  0.0000000 0.0000000  0.0000000  0.0000000  0.0000000  0.0000000 0.0000000   1.0000000  0.0000000
 0.0000000  0.0000000  0.0000000  0.0000000 0.0000000  0.0000000  0.0000000  0.0000000  0.0000000 0.0000000   0.0000000  1.0000000

      6.9117087          3.4199449          1.6922043          0.8373104          0.4143050          235.516822478      101.34179399       43.6069029001      18.7638476256      0.1726270

 1.0000000  0.0000000 0.0000000  0.0000000  0.0000000  0.0000000  0.0000000 0.0000000  0.0000000  0.0000000
 0.0000000  1.0000000 0.0000000  0.0000000  0.0000000  0.0000000  0.0000000 0.0000000  0.0000000  0.0000000
 0.0000000  0.0000000 1.0000000  0.0000000  0.0000000  0.0000000  0.0000000 0.0000000  0.0000000  0.0000000
 0.0000000  0.0000000 0.0000000  1.0000000  0.0000000  0.0000000  0.0000000 0.0000000  0.0000000  0.0000000
 0.0000000  0.0000000 0.0000000  0.0000000  1.0000000  0.0000000  0.0000000 0.0000000  0.0000000  0.0000000
 0.0000000  0.0000000 0.0000000  0.0000000  0.0000000  1.0000000  0.0000000 0.0000000  0.0000000  0.0000000
 0.0000000  0.0000000 0.0000000  0.0000000  0.0000000  0.0000000  1.0000000 0.0000000  0.0000000  0.0000000
 0.0000000  0.0000000 0.0000000  0.0000000  0.0000000  0.0000000  0.0000000 1.0000000  0.0000000  0.0000000
 0.0000000  0.0000000 0.0000000  0.0000000  0.0000000  0.0000000  0.0000000 0.0000000  1.0000000  0.0000000
 0.0000000  0.0000000 0.0000000  0.0000000  0.0000000  0.0000000  0.0000000 0.0000000  0.0000000  1.0000000

 7.2379949      3.4157598      1.6119678      0.7607210      158.324745434  61.0002294543  23.5025041934   0.3457820

 1.0000000  0.0000000  0.0000000  0.0000000  0.0000000 0.0000000  0.0000000  0.0000000
 0.0000000  1.0000000  0.0000000  0.0000000  0.0000000 0.0000000  0.0000000  0.0000000
 0.0000000  0.0000000  1.0000000  0.0000000  0.0000000 0.0000000  0.0000000  0.0000000
 0.0000000  0.0000000  0.0000000  1.0000000  0.0000000 0.0000000  0.0000000  0.0000000
 0.0000000  0.0000000  0.0000000  0.0000000  1.0000000 0.0000000  0.0000000  0.0000000
 0.0000000  0.0000000  0.0000000  0.0000000  0.0000000 1.0000000  0.0000000  0.0000000
 0.0000000  0.0000000  0.0000000  0.0000000  0.0000000 0.0000000  1.0000000  0.0000000
 0.0000000  0.0000000  0.0000000  0.0000000  0.0000000 0.0000000  0.0000000  1.0000000

      5.7331092 2.5824816 1.1632800 93.8953779408 28.6271762151 0.5816400

 1.0000000  0.0000000  0.0000000 0.0000000  0.0000000  0.0000000
 0.0000000  1.0000000  0.0000000 0.0000000  0.0000000  0.0000000
 0.0000000  0.0000000  1.0000000 0.0000000  0.0000000  0.0000000
 0.0000000  0.0000000  0.0000000 1.0000000  0.0000000  0.0000000
 0.0000000  0.0000000  0.0000000 0.0000000  1.0000000  0.0000000
 0.0000000  0.0000000  0.0000000 0.0000000  0.0000000  1.0000000

 4.8130000           2.0780000          74.9797942197    1.0390000

 1.0000000 0.0000000   0.0000000  0.0000000
 0.0000000 1.0000000   0.0000000  0.0000000
 0.0000000 0.0000000   1.0000000  0.0000000
 0.0000000 0.0000000   0.0000000  1.0000000

      3.1230000   1.2320000

 1.0000000        0.0
 0.0              1.0
