************************************************************************
* This file is part of OpenMolcas.                                     *
*                                                                      *
* OpenMolcas is free software; you can redistribute it and/or modify   *
* it under the terms of the GNU Lesser General Public License, v. 2.1. *
* OpenMolcas is distributed in the hope that it will be useful, but it *
* is provided "as is" and without any express or implied warranties.   *
* For more details see the full text of the license in the file        *
* LICENSE or in <http://www.gnu.org/licenses/>.                        *
************************************************************************

#Hamiltonian NRH
#Nucleus UNK
#Contraction CCC
#AllElectron AE_

************************************************************************
* This file has been generated by Nike Dattani from the AI_ENERGIES    *
* https://github.com/HPQC-LABS/AI_ENERGIES/blob/master/GENBAS database *
************************************************************************

/C.aug-cc-pV7Z.DattaniFeller.19s13p7d6f5g4h3i2k.9s8p7d6f5g4h3i2k.
https://github.com/HPQC-LABS/AI_ENERGIES/blob/master/GENBAS
CARBON (19s,13p,7d,6f,5g,4h,3i,2k) -> [9s,8p,7d,6f,5g,4h,3i,2k] 
     6.0   7
* s-type functions
    19    9
          0.9490288E+06 
	  0.1420830E+06 
	  0.3233247E+05 
	  0.9158117E+04 
	  0.2987909E+04 
	  0.1078788E+04 
	  0.4208308E+03 
	  0.1746003E+03 
	  0.7618292E+02 
	  0.3463588E+02 
	  0.1627076E+02 
	  0.7855479E+01 
	  0.3882172E+01 
	  0.1928334E+01 
	  0.8358060E+00 
	  0.3862910E+00 
	  0.1768600E+00 
	  0.8025200E-01 
	  0.0321008
0.14E-05      -0.30E-06      0.0000000  0.0000000  0.0000000  0.0000000 0.0000000 0.0000000 0.0000000
0.11E-04      -0.23E-05      0.0000000  0.0000000  0.0000000  0.0000000 0.0000000 0.0000000 0.0000000
0.578E-04     -0.123E-04     0.0000000  0.0000000  0.0000000  0.0000000 0.0000000 0.0000000 0.0000000
0.2444000E-03 -0.52E-04      0.0000000  0.0000000  0.0000000  0.0000000 0.0000000 0.0000000 0.0000000
0.891E-03     -0.19E-03      0.0000000  0.0000000  0.0000000  0.0000000 0.0000000 0.0000000 0.0000000
0.2904000E-02 -0.62E-03      0.0000000  0.0000000  0.0000000  0.0000000 0.0000000 0.0000000 0.0000000
0.8631000E-02 -0.1855000E-02 0.0000000  0.0000000  0.0000000  0.0000000 0.0000000 0.0000000 0.0000000
0.2352900E-01 -0.5092000E-02 0.0000000  0.0000000  0.0000000  0.0000000 0.0000000 0.0000000 0.0000000
0.5816100E-01 -0.1291600E-01 0.0000000  0.0000000  0.0000000  0.0000000 0.0000000 0.0000000 0.0000000
0.1266240E+00 -0.2923000E-01 0.0000000  0.0000000  0.0000000  0.0000000 0.0000000 0.0000000 0.0000000
0.2304650E+00 -0.5841400E-01 0.0000000  0.0000000  0.0000000  0.0000000 0.0000000 0.0000000 0.0000000
0.3192970E+00 -0.9665500E-01 0.0000000  0.0000000  0.0000000  0.0000000 0.0000000 0.0000000 0.0000000
0.0000000E+00 -0.0000000E+00 1.0000000  0.0000000  0.0000000  0.0000000 0.0000000 0.0000000 0.0000000
0.0000000E+00 -0.0000000E-01 0.0000000  1.0000000  0.0000000  0.0000000 0.0000000 0.0000000 0.0000000
0.0000000E-02  0.0000000E+00 0.0000000  0.0000000  1.0000000  0.0000000 0.0000000 0.0000000 0.0000000
0.00E-05       0.0000000E+00 0.0000000  0.0000000  0.0000000  1.0000000 0.0000000 0.0000000 0.0000000
0.000E-03      0.0000000E+00 0.0000000  0.0000000  0.0000000  0.0000000 1.0000000 0.0000000 0.0000000
-0.000E-04     0.0000000E+00 0.0000000  0.0000000  0.0000000  0.0000000 0.0000000 1.0000000 0.0000000
0.0            0.0           0.0000000  0.0000000  0.0000000  0.0000000 0.0000000 0.0000000 1.0000000
* p-type functions
    13    8
          0.7654553E+03 
	  0.1808628E+03 
	  0.5871441E+02 
	  0.2241625E+02 
	  0.9406214E+01 
	  0.4187198E+01 
	  0.1955876E+01 
	  0.9453360E+00 
	  0.4627630E+00 
	  0.2267960E+00 
	  0.1105920E+00 
	  0.524E-01  
	  0.019407
0.272E-04     0.0000000  0.0000000  0.0000000  0.0000000 0.0000000 0.0000000 0.0000000
0.241E-03     0.0000000  0.0000000  0.0000000  0.0000000 0.0000000 0.0000000 0.0000000
0.1357000E-02 0.0000000  0.0000000  0.0000000  0.0000000 0.0000000 0.0000000 0.0000000
0.562E-02     0.0000000  0.0000000  0.0000000  0.0000000 0.0000000 0.0000000 0.0000000
0.1826700E-01 0.0000000  0.0000000  0.0000000  0.0000000 0.0000000 0.0000000 0.0000000
0.5001900E-01 0.0000000  0.0000000  0.0000000  0.0000000 0.0000000 0.0000000 0.0000000
0.1164080E+00 1.0000000  0.0000000  0.0000000  0.0000000 0.0000000 0.0000000 0.0000000
0.0000000E+00 0.0000000  1.0000000  0.0000000  0.0000000 0.0000000 0.0000000 0.0000000
0.0000000E+00 0.0000000  0.0000000  1.0000000  0.0000000 0.0000000 0.0000000 0.0000000
0.0000000E+00 0.0000000  0.0000000  0.0000000  1.0000000 0.0000000 0.0000000 0.0000000
0.0000000E+00 0.0000000  0.0000000  0.0000000  0.0000000 1.0000000 0.0000000 0.0000000
0.0000000E-01 0.0000000  0.0000000  0.0000000  0.0000000 0.0000000 1.0000000 0.0000000
0.0           0.0000000  0.0000000  0.0000000  0.0000000 0.0000000 0.0000000 1.0000000
* d-type functions
    7     7
          5.80319 
	  2.75811 
	  1.31086 
	  0.62302 
	  0.29610 
	  0.14073 
	  0.05840
1.0000000  0.0000000  0.0000000 0.0000000 0.0000000 0.0000000 0.0000000
0.0000000  1.0000000  0.0000000 0.0000000 0.0000000 0.0000000 0.0000000
0.0000000  0.0000000  1.0000000 0.0000000 0.0000000 0.0000000 0.0000000
0.0000000  0.0000000  0.0000000 1.0000000 0.0000000 0.0000000 0.0000000
0.0000000  0.0000000  0.0000000 0.0000000 1.0000000 0.0000000 0.0000000
0.0000000  0.0000000  0.0000000 0.0000000 0.0000000 1.0000000 0.0000000
0.0000000  0.0000000  0.0000000 0.0000000 0.0000000 0.0000000 1.0000000
* f-type functions
    6     6
          3.31553 
	  1.74776 
	  0.92133 
	  0.48567 
	  0.25602  
	  0.11020
1.0000000 0.0000000 0.0000000 0.0000000 0.0000000 0.0000000
0.0000000 1.0000000 0.0000000 0.0000000 0.0000000 0.0000000
0.0000000 0.0000000 1.0000000 0.0000000 0.0000000 0.0000000
0.0000000 0.0000000 0.0000000 1.0000000 0.0000000 0.0000000
0.0000000 0.0000000 0.0000000 0.0000000 1.0000000 0.0000000
0.0000000 0.0000000 0.0000000 0.0000000 0.0000000 1.0000000
* g-type functions
    5     5
          3.62722 
	  1.83501 
	  0.92833 
	  0.4696 
	  0.21720
1.0000000 0.0000000 0.0000000 0.0000000 0.0000000
0.0000000 1.0000000 0.0000000 0.0000000 0.0000000
0.0000000 0.0000000 1.0000000 0.0000000 0.0000000
0.0000000 0.0000000 0.0000000 1.0000000 0.0000000
0.0000000 0.0000000 0.0000000 0.0000000 1.0000000
* h-type functions
    4     4
          2.75639 
	  1.36308 
	  0.67407  
	  0.34760
1.0000000 0.0000000 0.0000000 0.0
0.0000000 1.0000000 0.0000000 0.0
0.0000000 0.0000000 1.0000000 0.0
0.0000000 0.0000000 0.0000000 1.0
* i-type functions
    3     3
          2.37436 
	  1.05532 
	  0.58500
1.0000000 0.0 0.0
0.0000000 1.0 0.0
0.0000000 0.0 1.0
* k-type functions
    2     2
          1.956 
	  0.9780
1.0000000 0.0
0.0000000 1.0

/H.aug-cc-pV8Z.DattaniFeller.16s8p7d6f5g4h3i2k.9s8p7d6f5g4h3i2k.
https://github.com/HPQC-LABS/AI_ENERGIES/blob/master/GENBAS
HYDROGEN (16s,8p,7d,6f,5g,4h,3i,2k) -> [9s,8p,7d,6f,5g,4h,3i,2k]
     1.0   7
* s-type functions
    16    9
          13940.800000         
	  3471.4300000         
	  1903.1800000         
	  623.28600000         
	  290.36000000         
	  126.58500000         
	  44.695500000         
	  16.003800000         
	  6.0805600000         
	  2.4762200000         
	  1.0757100000         
	  0.48968200000         
	  0.22978600000         
	  0.10996550000         
	  0.52323000000E-01     
	  0.01425
0.30100000000E-05 0.0 0.0 0.0 0.0 0.0 0.0 0.0 0.0
0.54400000000E-05 0.0 0.0 0.0 0.0 0.0 0.0 0.0 0.0
0.17850000000E-04 0.0 0.0 0.0 0.0 0.0 0.0 0.0 0.0
0.71950000000E-04 0.0 0.0 0.0 0.0 0.0 0.0 0.0 0.0
0.12055000000E-03 0.0 0.0 0.0 0.0 0.0 0.0 0.0 0.0
0.52527000000E-03 0.0 0.0 0.0 0.0 0.0 0.0 0.0 0.0
0.20138400000E-02 0.0 0.0 0.0 0.0 0.0 0.0 0.0 0.0
0.68708600000E-02 0.0 0.0 0.0 0.0 0.0 0.0 0.0 0.0
 0.0000000000     1.0 0.0 0.0 0.0 0.0 0.0 0.0 0.0
 0.0000000000     0.0 1.0 0.0 0.0 0.0 0.0 0.0 0.0
 0.0000000000     0.0 0.0 1.0 0.0 0.0 0.0 0.0 0.0
 0.0000000000     0.0 0.0 0.0 1.0 0.0 0.0 0.0 0.0
 0.0000000000     0.0 0.0 0.0 0.0 1.0 0.0 0.0 0.0
 0.0000000000     0.0 0.0 0.0 0.0 0.0 1.0 0.0 0.0
 0.0000000000     0.0 0.0 0.0 0.0 0.0 0.0 1.0 0.0
 0.0              0.0 0.0 0.0 0.0 0.0 0.0 0.0 1.0
* p-type functions
    8   8
          15.014058000        
	  6.9219134000        
	  3.1912017000        
	  1.4712360000        
	  0.67828220000        
	  0.31270770000        
	  0.14416730000       
	  0.04958
1.0 0.0 0.0 0.0 0.0 0.0 0.0 0.0
0.0 1.0 0.0 0.0 0.0 0.0 0.0 0.0
0.0 0.0 1.0 0.0 0.0 0.0 0.0 0.0
0.0 0.0 0.0 1.0 0.0 0.0 0.0 0.0
0.0 0.0 0.0 0.0 1.0 0.0 0.0 0.0
0.0 0.0 0.0 0.0 0.0 1.0 0.0 0.0
0.0 0.0 0.0 0.0 0.0 0.0 1.0 0.0
0.0 0.0 0.0 0.0 0.0 0.0 0.0 1.0
* d-type functions
     7    7
          8.1119260000          
	  4.1827460000          
	  2.1567460000          
	  1.1120820000          
	  0.57342200000          
	  0.29567300000          
	  0.10228
1.0 0.0 0.0 0.0 0.0 0.0 0.0
0.0 1.0 0.0 0.0 0.0 0.0 0.0
0.0 0.0 1.0 0.0 0.0 0.0 0.0
0.0 0.0 0.0 1.0 0.0 0.0 0.0
0.0 0.0 0.0 0.0 1.0 0.0 0.0
0.0 0.0 0.0 0.0 0.0 1.0 0.0
0.0 0.0 0.0 0.0 0.0 0.0 1.0
* f-type functions
     6    6
          10.413104000     
	  5.1603084000     
	  2.5572377000     
	  1.2672624000     
	  0.62800340000      
	  0.21013
1.0 0.0 0.0 0.0 0.0 0.0
0.0 1.0 0.0 0.0 0.0 0.0
0.0 0.0 1.0 0.0 0.0 0.0
0.0 0.0 0.0 1.0 0.0 0.0
0.0 0.0 0.0 0.0 1.0 0.0
0.0 0.0 0.0 0.0 0.0 1.0
* g-type functions
     5    5  
          5.8146209000              
	  2.8838692000              
	  1.4303084000              
	  0.70938800000              
	  0.27080
1.0 0.0 0.0 0.0 0.0
0.0 1.0 0.0 0.0 0.0
0.0 0.0 1.0 0.0 0.0
0.0 0.0 0.0 1.0 0.0
0.0 0.0 0.0 0.0 1.0
* h-type functions
    4     4
          6.8350832000 
	  3.3405127000 
	  1.6326100000 
	  0.82486
1.0 0.0 0.0 0.0
0.0 1.0 0.0 0.0
0.0 0.0 1.0 0.0
0.0 0.0 0.0 1.0
* i-type functions
    3     3
          4.4863986000   
	  1.8487255000  
	  0.64559
1.0 0.0 0.0
0.0 1.0 0.0
0.0 0.0 1.0
* k-type functions
    2     2
          4.2663734000      
	  1.02535
1.0 0.0
0.0 1.0


/H.aug-cc-pV9Z.DattaniFeller.18s9p8d7f6g5h4i3k2l.11s9p8d7f6g5h4i3k2l.
https://github.com/HPQC-LABS/AI_ENERGIES/blob/master/GENBAS
HYDROGEN (18s,9p,8d,7f,6g,5h,4i,3k,2l) -> [11s,9p,8d,7f,6g,5h,4i,3k,2l]
       1.0 8
* s-type functions
    18     11
            284997.23           
	    13941.053           
	    3471.4437           
	    1903.1627           
	    623.29320           
	    290.36042           
	    126.58232           
	    44.692572           
	    16.002336           
	    6.0810380           
	    2.4762650           
	    1.0766620           
	    0.4884070           
	    0.2293090           
	    0.1114810           
	    0.0550120           
	    0.0199860           
	    0.00661
 0.00000013 0.0 0.0 0.0 0.0 0.0 0.0 0.0 0.0 0.0 0.0
 0.00000289 0.0 0.0 0.0 0.0 0.0 0.0 0.0 0.0 0.0 0.0
 0.00000572 0.0 0.0 0.0 0.0 0.0 0.0 0.0 0.0 0.0 0.0
 0.00001753 0.0 0.0 0.0 0.0 0.0 0.0 0.0 0.0 0.0 0.0
 0.00007214 0.0 0.0 0.0 0.0 0.0 0.0 0.0 0.0 0.0 0.0
 0.00012056 0.0 0.0 0.0 0.0 0.0 0.0 0.0 0.0 0.0 0.0
 0.00052484 0.0 0.0 0.0 0.0 0.0 0.0 0.0 0.0 0.0 0.0
 0.00201573 0.0 0.0 0.0 0.0 0.0 0.0 0.0 0.0 0.0 0.0
 0.00686535 1.0 0.0 0.0 0.0 0.0 0.0 0.0 0.0 0.0 0.0
 0.00000000 0.0 1.0 0.0 0.0 0.0 0.0 0.0 0.0 0.0 0.0
 0.00000000 0.0 0.0 1.0 0.0 0.0 0.0 0.0 0.0 0.0 0.0
 0.00000000 0.0 0.0 0.0 1.0 0.0 0.0 0.0 0.0 0.0 0.0
 0.00000000 0.0 0.0 0.0 0.0 1.0 0.0 0.0 0.0 0.0 0.0
 0.00000000 0.0 0.0 0.0 0.0 0.0 1.0 0.0 0.0 0.0 0.0
 0.00000000 0.0 0.0 0.0 0.0 0.0 0.0 1.0 0.0 0.0 0.0
 0.00000000 0.0 0.0 0.0 0.0 0.0 0.0 0.0 1.0 0.0 0.0
 0.00000000 0.0 0.0 0.0 0.0 0.0 0.0 0.0 0.0 1.0 0.0
 0.0000000  0.0 0.0 0.0 0.0 0.0 0.0 0.0 0.0 0.0 1.0
* p-type functions
    9     9
          21.701825            
	  10.296109            
	  4.8848364            
	  2.3175382            
	  1.0995216            
	  0.5216517            
	  0.2474899            
	  0.1174179            
	  0.04174
1.0 0.0 0.0 0.0 0.0 0.0 0.0 0.0 0.0
0.0 1.0 0.0 0.0 0.0 0.0 0.0 0.0 0.0
0.0 0.0 1.0 0.0 0.0 0.0 0.0 0.0 0.0
0.0 0.0 0.0 1.0 0.0 0.0 0.0 0.0 0.0
0.0 0.0 0.0 0.0 1.0 0.0 0.0 0.0 0.0
0.0 0.0 0.0 0.0 0.0 1.0 0.0 0.0 0.0
0.0 0.0 0.0 0.0 0.0 0.0 1.0 0.0 0.0
0.0 0.0 0.0 0.0 0.0 0.0 0.0 1.0 0.0
0.0 0.0 0.0 0.0 0.0 0.0 0.0 0.0 1.0
* d-type functions
    8     8
          18.015632          
	  9.1122145          
	  4.6089116          
	  2.3311639          
	  1.1790908          
	  0.5963781          
	  0.3016450          
	  0.10386
1.0 0.0 0.0 0.0 0.0 0.0 0.0 0.0
0.0 1.0 0.0 0.0 0.0 0.0 0.0 0.0
0.0 0.0 1.0 0.0 0.0 0.0 0.0 0.0
0.0 0.0 0.0 1.0 0.0 0.0 0.0 0.0
0.0 0.0 0.0 0.0 1.0 0.0 0.0 0.0
0.0 0.0 0.0 0.0 0.0 1.0 0.0 0.0
0.0 0.0 0.0 0.0 0.0 0.0 1.0 0.0
0.0 0.0 0.0 0.0 0.0 0.0 0.0 1.0
* f-type functions
    7     7
          15.107851         
	  7.8761055         
	  4.1060133         
	  2.1405688         
	  1.1159327         
	  0.5817640         
	  0.19957
1.0 0.0 0.0 0.0 0.0 0.0 0.0
0.0 1.0 0.0 0.0 0.0 0.0 0.0
0.0 0.0 1.0 0.0 0.0 0.0 0.0
0.0 0.0 0.0 1.0 0.0 0.0 0.0
0.0 0.0 0.0 0.0 1.0 0.0 0.0
0.0 0.0 0.0 0.0 0.0 1.0 0.0
0.0 0.0 0.0 0.0 0.0 0.0 1.0
* g-type functions
    6     6
          8.3774603    
	  4.6929685    
	  2.6289535    
	  1.4727131    
	  0.8249990    
	  0.28657
1.0 0.0 0.0 0.0 0.0 0.0
0.0 1.0 0.0 0.0 0.0 0.0
0.0 0.0 1.0 0.0 0.0 0.0
0.0 0.0 0.0 1.0 0.0 0.0
0.0 0.0 0.0 0.0 1.0 0.0
0.0 0.0 0.0 0.0 0.0 1.0
* h-type functions
    5     5
          7.1115284      
	  4.0718537      
	  2.3314247      
	  1.3349058      
	  0.45046
1.0 0.0 0.0 0.0 0.0
0.0 1.0 0.0 0.0 0.0
0.0 0.0 1.0 0.0 0.0
0.0 0.0 0.0 1.0 0.0
0.0 0.0 0.0 0.0 1.0
* i-type functions
    4     4
          6.0325318   
	  3.0007400   
	  1.4926470   
	  0.56826
1.0 0.0 0.0 0.0
0.0 1.0 0.0 0.0
0.0 0.0 1.0 0.0
0.0 0.0 0.0 1.0
* k-type functions
    3     3
          5.87400            
	  2.94400            
	  0.87987
1.0 0.0 0.0
0.0 1.0 0.0
0.0 0.0 1.0
* l-type functions
    2     2
          3.593434     
	  1.10825
1.0 0.0
0.0 1.0

/H.aug-cc-pV10Z.DattaniFeller.20s10p9d8f7g6h5i4k3l2m.11s10p9d8f7g6h5i4k3l2m.
https://github.com/HPQC-LABS/AI_ENERGIES/blob/master/GENBAS
HYDROGEN (20s,10p,9d,8f,7g,6h,5i,4k,3l,2m) -> [11s,10p,9d,8f,7g,6h,5i,4k,3l,2m]
       1.0 9
* s-type functions
    20     11
            4274959.8 
	    284894.34 
	    13950.281 
	    3471.9458 
	    1902.5267 
	    623.56338 
	    290.36861 
	    126.50425 
	    44.545793 
	    15.983776 
	    6.0889730 
	    2.4835050 
	    1.0775260 
	    0.4941250 
	    0.2381570 
	    0.1191970 
	    0.0601250 
	    0.0220600 
	    0.0117060 
	    0.007788
 0.20850302E-08 0.0  0.0  0.0  0.0  0.0  0.0  0.0  0.0  0.0 0.0
 0.000000128    0.0  0.0  0.0  0.0  0.0  0.0  0.0  0.0  0.0 0.0
 0.000002888    0.0  0.0  0.0  0.0  0.0  0.0  0.0  0.0  0.0 0.0
 0.000005798    0.0  0.0  0.0  0.0  0.0  0.0  0.0  0.0  0.0 0.0
 0.000017364    0.0  0.0  0.0  0.0  0.0  0.0  0.0  0.0  0.0 0.0
 0.000072599    0.0  0.0  0.0  0.0  0.0  0.0  0.0  0.0  0.0 0.0
 0.000119279    0.0  0.0  0.0  0.0  0.0  0.0  0.0  0.0  0.0 0.0
 0.000528924    0.0  0.0  0.0  0.0  0.0  0.0  0.0  0.0  0.0 0.0
 0.002020328    0.0  0.0  0.0  0.0  0.0  0.0  0.0  0.0  0.0 0.0
 0.006865600    0.0  0.0  0.0  0.0  0.0  0.0  0.0  0.0  0.0 0.0
 0.020853603    1.0  0.0  0.0  0.0  0.0  0.0  0.0  0.0  0.0 0.0
 0.055989638    0.0  1.0  0.0  0.0  0.0  0.0  0.0  0.0  0.0 0.0
 0.130092115    0.0  0.0  1.0  0.0  0.0  0.0  0.0  0.0  0.0 0.0
 0.244889966    0.0  0.0  0.0  1.0  0.0  0.0  0.0  0.0  0.0 0.0
 0.332689709    0.0  0.0  0.0  0.0  1.0  0.0  0.0  0.0  0.0 0.0
 0.266403372    0.0  0.0  0.0  0.0  0.0  1.0  0.0  0.0  0.0 0.0
 0.082526348    0.0  0.0  0.0  0.0  0.0  0.0  1.0  0.0  0.0 0.0
 0.002206396    0.0  0.0  0.0  0.0  0.0  0.0  0.0  1.0  0.0 0.0
-0.000286369    0.0  0.0  0.0  0.0  0.0  0.0  0.0  0.0  1.0 0.0
 0.0            0.0  0.0  0.0  0.0  0.0  0.0  0.0  0.0  0.0 1.0
* p-type functions
    10     10
            30.150122 
	    15.390349 
	    7.8561158 
	    4.0102115 
	    2.0470417 
	    1.0449273 
	    0.5333908 
	    0.2722732 
	    0.1389838 
	    0.049224
 1.0  0.0  0.0  0.0  0.0  0.0  0.0  0.0  0.0 0.0
 0.0  1.0  0.0  0.0  0.0  0.0  0.0  0.0  0.0 0.0
 0.0  0.0  1.0  0.0  0.0  0.0  0.0  0.0  0.0 0.0
 0.0  0.0  0.0  1.0  0.0  0.0  0.0  0.0  0.0 0.0
 0.0  0.0  0.0  0.0  1.0  0.0  0.0  0.0  0.0 0.0
 0.0  0.0  0.0  0.0  0.0  1.0  0.0  0.0  0.0 0.0
 0.0  0.0  0.0  0.0  0.0  0.0  1.0  0.0  0.0 0.0
 0.0  0.0  0.0  0.0  0.0  0.0  0.0  1.0  0.0 0.0
 0.0  0.0  0.0  0.0  0.0  0.0  0.0  0.0  1.0 0.0
 0.0  0.0  0.0  0.0  0.0  0.0  0.0  0.0  0.0 1.0
* d-type functions
     9      9
            34.729594 
	    17.575838 
	    8.8947218 
	    4.5014113 
	    2.2780593 
	    1.1528727 
	    0.5834420 
	    0.2952664 
	    0.106439
 1.0  0.0  0.0  0.0  0.0  0.0  0.0  0.0 0.0
 0.0  1.0  0.0  0.0  0.0  0.0  0.0  0.0 0.0
 0.0  0.0  1.0  0.0  0.0  0.0  0.0  0.0 0.0
 0.0  0.0  0.0  1.0  0.0  0.0  0.0  0.0 0.0
 0.0  0.0  0.0  0.0  1.0  0.0  0.0  0.0 0.0
 0.0  0.0  0.0  0.0  0.0  1.0  0.0  0.0 0.0
 0.0  0.0  0.0  0.0  0.0  0.0  1.0  0.0 0.0
 0.0  0.0  0.0  0.0  0.0  0.0  0.0  1.0 0.0
 0.0  0.0  0.0  0.0  0.0  0.0  0.0  0.0 1.0
* f-type functions
     8      8
            16.883840 
	    9.0325589 
	    4.8322610 
	    2.5851751 
	    1.3830235 
	    0.7398934 
	    0.3958300 
	    0.154360
 1.0  0.0  0.0  0.0  0.0  0.0  0.0  0.0
 0.0  1.0  0.0  0.0  0.0  0.0  0.0  0.0
 0.0  0.0  1.0  0.0  0.0  0.0  0.0  0.0
 0.0  0.0  0.0  1.0  0.0  0.0  0.0  0.0
 0.0  0.0  0.0  0.0  1.0  0.0  0.0  0.0
 0.0  0.0  0.0  0.0  0.0  1.0  0.0  0.0
 0.0  0.0  0.0  0.0  0.0  0.0  1.0  0.0
 0.0  0.0  0.0  0.0  0.0  0.0  0.0  1.0
* g-type functions
     7      7
            9.1827775 
	    5.3126124 
	    3.0735636 
	    1.7781823 
	    1.0287512 
	    0.5951747 
	    0.231933
  1.0  0.0  0.0  0.0  0.0  0.0  0.0
  0.0  1.0  0.0  0.0  0.0  0.0  0.0
  0.0  0.0  1.0  0.0  0.0  0.0  0.0
  0.0  0.0  0.0  1.0  0.0  0.0  0.0
  0.0  0.0  0.0  0.0  1.0  0.0  0.0
  0.0  0.0  0.0  0.0  0.0  1.0  0.0
  0.0  0.0  0.0  0.0  0.0  0.0  1.0
* h-type functions
     6      6
            9.6155582 
	    5.6307069 
	    3.2972460 
	    1.9308110 
	    1.1306500 
	    0.400903
 1.0  0.0  0.0  0.0  0.0   0.0
 0.0  1.0  0.0  0.0  0.0   0.0
 0.0  0.0  1.0  0.0  0.0   0.0
 0.0  0.0  0.0  1.0  0.0   0.0
 0.0  0.0  0.0  0.0  1.0   0.0
 0.0  0.0  0.0  0.0  0.0   1.0
* i-type functions
     5      5
            6.8540732 
	    3.6114556 
	    1.9028994 
	    1.0026500 
	    0.435016
 1.0  0.0  0.0  0.0  0.0
 0.0  1.0  0.0  0.0  0.0
 0.0  0.0  1.0  0.0  0.0
 0.0  0.0  0.0  1.0  0.0
 0.0  0.0  0.0  0.0  1.0
* k-type functions
     4      4
            7.3870330 
	    3.7343330 
	    1.8878000 
	    0.715718
 1.0  0.0  0.0   0.0
 0.0  1.0  0.0   0.0
 0.0  0.0  1.0   0.0
 0.0  0.0  0.0   1.0
* l-type functions
     3      3
            4.5331500  
	    2.2155200 
	    1.036700
1.0  0.0  0.0
0.0  1.0  0.0
0.0  0.0  1.0
* m-type functions
     2      2
            4.7209680 
	    1.343309
1.0 0.0
0.0 1.0

