 --invoking executable--
/project1/nike/cfour_v2.00beta_May2019xnmol_noLABBASIS/bin/xjoda


   *************************************************************************
         <<<     CCCCCC     CCCCCC   |||     CCCCCC     CCCCCC   >>>
       <<<      CCC        CCC       |||    CCC        CCC         >>>
      <<<      CCC        CCC        |||   CCC        CCC            >>>
    <<<        CCC        CCC        |||   CCC        CCC              >>>
      <<<      CCC        CCC        |||   CCC        CCC            >>>
       <<<      CCC        CCC       |||    CCC        CCC         >>>
         <<<     CCCCCC     CCCCCC   |||     CCCCCC     CCCCCC   >>>
   *************************************************************************

     ****************************************************************
     * CFOUR Coupled-Cluster techniques for Computational Chemistry *
     ****************************************************************
 

   Department of Chemistry                Institut fuer Physikalische Chemie
   University of Texas at Austin          Universitaet Mainz
   Austin, TX  78712, USA                 D-55099 Mainz, Germany
 
                       Version 2.00beta
 
                     req762                                            
                     Mon Mar  9 16:25:09 EDT 2020                      
                     integer*8 version is running
 
********************************************************************************
*                          Input from ZMAT file                                *
********************************************************************************
TITLE                                                                           
O  0.9858 0.0000  2.0307                                                        
H -1.0241 0.0000  1.7361                                                        
C  0.0000 0.0000  1.3430                                                        
O  0.0000 0.0000  0.0000                                                        
H  0.9329 0.0000 -0.2728                                                        
                                                                                
*ACES2(CALC=CCSD(T)                                                             
#UNITS=BOHR                                                                     
#GEOM=2.6729874*10/5.29177210903_Pentasilane_def2-QZVP_pbe                      
COORD=CARTESIAN                                                                 
#COORD=INTERNAL                                                                 
PRINT=4                                                                         
JODA_PRINT=4                                                                    
INPUT_MRCC=OFF                                                                  
#CC_PROG=MRCC                                                                   
#FROZEN_CORE=ON                                                                 
DROPMO=1>3                                                                      
CONTRACTION=GENERAL                                                             
#CONTRACTION=SEGMENTED                                                          
RELATIVISTIC=OFF                                                                
#EXCITE=EOMEE                                                                   
#ESTATE_CONV=5                                                                  
#ESTATE_SYM=2/2/2/2/2/2/2/2                                                     
XFORM_TOL=18                                                                    
SAVE_INTS=ON                                                                    
SCF_EXPORDER=6                                                                  
SCF_EXPSTART=5                                                                  
#SCF_DAMPING=1000                                                               
SCF_EXTRAPOLATION=ON                                                            
SCF_CONV=13                                                                     
SCF_MAXCYC=99999                                                                
CC_CONV=9                                                                       
CC_MAXCYC=999                                                                   
T3_EXTRAPOL=ON                                                                  
REFERENCE=ROHF                                                                  
#SYMMETRY=OFF                                                                   
#HFSTABILITY=FOLLOW                                                             
CHARGE=+1                                                                       
MULT=2                                                                          
ABCDTYPE=STANDARD                                                               
#OCCUPATION=3-2-2-0-1-0-0-0/3-1-1-0-1-0-0-0                                     
MEM=2                                                                           
MEM_UNIT=GB                                                                     
BASIS=SPECIAL)                                                                  
                                                                                
O:def2-TZVPP                                                                    
H:def2-TZVPP                                                                    
C:def2-TZVPP                                                                    
O:def2-TZVPP                                                                    
H:def2-TZVPP                                                                    
                                                                                
********************************************************************************
  @GTFLGS-W, Keyword #UNITS not known and is ignored.
  @GTFLGS-W, Keyword #GEOM not known and is ignored.
  @GTFLGS-W, Keyword #COORD not known and is ignored.
  @GTFLGS-W, Keyword #CC_PROG not known and is ignored.
  @GTFLGS-W, Keyword #FROZEN_CORE not known and is ignored.
  @GTFLGS-W, Keyword #CONTRACTION not known and is ignored.
  @GTFLGS-W, Keyword #EXCITE not known and is ignored.
  @GTFLGS-W, Keyword #ESTATE_CONV not known and is ignored.
  @GTFLGS-W, Keyword #ESTATE_SYM not known and is ignored.
  @GTFLGS-W, Keyword #SCF_DAMPING not known and is ignored.
  @GTFLGS-W, Keyword #SYMMETRY not known and is ignored.
  @GTFLGS-W, Keyword #HFSTABILITY not known and is ignored.
  @GTFLGS-W, Keyword #OCCUPATION not known and is ignored.
    -------------------------------------------------------------------
                    CFOUR Control Parameters 
    -------------------------------------------------------------------
        External           Internal           Value            Units
          Name               Name
    -------------------------------------------------------------------
       ABCDTYPE             IABCDT         STANDARD     [  0]   ***   
       ANHARMONIC           IANHAR         OFF          [  0]   ***   
       ANH_ALGORIT          IANALG         STANDARD     [  0]   ***   
       ANH_DERIVAT          IANDER         SECOND       [  1]   ***   
       ANH_STEPSIZ          ICUBST             50000          x 10-6  
       ANH_SYMMETR          IANHSM         ABELIAN      [  0]   ***   
       AO_LADDERS           IAOLAD         SINGLEPASS   [  1]   ***   
       BASIS                IBASIS         SPECIAL      [  0]   ***   
       BREIT                IBREIT         OFF          [  0]   ***   
       BRUCK_CONV           IBRTOL          10D-  4             ***   
       BRUECKNER            IBRKNR             OFF      [  0]   ***   
       BUFFERSIZE           IBUFFS            600               ***   
       CACHE_RECS           ICHREC             10               ***   
       CALCLEVEL            ICLLVL           CCSD(T)    [ 22]   ***   
       CCORBOPT             ICCORB             OFF      [  0] x 0.01  
       CC_CONV              ICCCNV          10D-  9             ***   
       CC_EXPORDER          ICCEOR              5               ***   
       CC_EXTRAPOL          ICCEXT             DIIS     [  1]   ***   
       CC_MAXCYC            ICCCYC            999              cycles 
       CC_PROGRAM           ICCPRO         VCC          [  0]   ***   
       CHARGE               ICHRGE              1               ***   
       CHOLESKY             ICHOLE         OFF          [  0]   ***   
       CIS_CONV             ICISTL              5               ***   
       COMM_SIZE            IPSIZE            ***               ***   
       CONSTANT             ICONST         OLD          [  1]   ***   
       CONTINUUM            ICONTU         NONE         [  0]   ***   
       CONTRACTION          ICNTYP          GENERAL     [  1]   ***   
       COORDINATES          ICOORD         CARTESIAN    [  1]   ***   
       CPHF_CONVER          ICPHFT          10D- 16             ***   
       CPHF_MAXCYC          ICPHFC             64              cycles 
       CUBIC                ICUBIC         OFF          [  0]   ***   
       CURVILINEAR          ICURVY            OFF       [  0]   ***   
       DBOC                 IDBOC          OFF          [  0]   ***   
       DCT                  IDCT           OFF          [  0]   ***   
       DERIV_LEV            IDRLVL            ZERO      [  0]   ***   
       DIAG_MRCC            IEOMST          10D-  0             ***   
       DIFF_TYPE            IDIFTY         RELAXED      [  0]   ***   
       DIRECT               IDIRCT         OFF          [  0]   ***   
       DROPMO               IDRPMO A   1,  2,  3,
                                   B   1,  2,  3,
       ECP                  IECP           OFF          [  0]   ***   
       EIGENVECTOR          IVEC                1               ***   
       EL_ANHARM            IELANH         OFF          [  0]   ***   
       EOMFOLLOW            IEOMSR         ENERGY       [  0]   ***   
       EOM_MRCC             IMRCCE         NEW          [  1]   ***   
       EOM_NONIT            EOMNON         OFF          [  0]   ***   
       EOM_NSING            IEOMSI          10D-  0             ***   
       EOM_NSTATES          IMRCCD         DAVIDSON     [  0]   ***   
       EOM_NTRIP            IEOMTR          10D-  0             ***   
       EOM_ORDER            IEXORD         ENERGY       [  0]   ***   
       ESTATE_CONV          IEXTOL          10D-  5             ***   
       ESTATE_DIAG          IEXDIG         ITERATIVE    [  0]   ***   
       ESTATE_LOCK          IESLOC         ON           [  1]   ***   
       ESTATE_MAXC          IEXMXC             20               ***   
       ESTATE_PROP          IEXPRP         OFF          [  0]   ***   
       EVAL_HESS            IRECAL              0            # of cyc.
       EXCITATION           IEXCIT              0               ***   
       EXCITE               IEXCIT         NONE         [  0]   ***   
       FCGRADNEW            IFCGNW         OFF          [  0]   ***   
       FC_FIELD             IFINFC              0             x 10-6  
       FD_CALTYPE           IFDCAL         GRADONLY     [  0]   ***   
       FD_PROJECT           IFDPRJ         OFF          [  1]   ***   
       FD_STEPSIZE          IDISFD              0            10-4 bohr
       FD_USEGROUP          IFDGRP         FULL         [  0]   ***   
       FILE_RECSIZ          IFLREC              4096           words  
       FINITE_PERT          IFIPER              0             x 10-6  
       FIXGEOM              IFIXGM         OFF          [  0]   ***   
       FOCK                 IFOCK          AO           [  1]   ***   
       FREQ_ALGORI          IVIALG         STANDARD     [  0]   ***   
       FROZEN_CORE          IFROCO         OFF          [  0]   ***   
       FROZEN_VIRT          IFROVI         OFF          [  0]   ***   
       GAMMA_ABCD           IGABCD         STORE        [  0]   ***   
       GAMMA_ABCI           IGABCI         STORE        [  0]   ***   
       GENBAS_1             IGNBS1              0               ***   
       GENBAS_2             IGNBS2              0               ***   
       GENBAS_3             IGNBS3              0               ***   
       GENBAS_4             IGNBS4              0               ***   
       GEO_CONV             ICONTL              5              H/bohr 
       GEO_MAXCYC           IOPTCY             50               ***   
       GEO_MAXSTEP          IMXSTP            300            millibohr
       GEO_METHOD           INR            SINGLE_POINT [  5]   ***   
       GIAO                 IGIAO          OFF          [  1]   ***   
       GIMIC                IGIMIC         OFF          [  0]   ***   
       GRID                 IGRID          OFF          [  0]   ***   
       GRID_ALGO            IGALGO         SERIAL       [  0]   ***   
       GUESS                IGUESS            MOREAD    [  0]   ***   
       HBAR                 IHBAR              OFF      [  0]   ***   
       HESS_TYPE            IHESTP         SCF          [  0]   ***   
       HF2_FILE             IHF2Fl         USE          [  1]   ***   
       HFSTABILITY          ISTABL         OFF          [  0]   ***   
       INCORE               INCORE             OFF      [  0]   ***   
       INPUT_MRCC           IMRCC          OFF          [  0]   ***   
       INTEGRALS            INTTYP             VMOL     [  1]   ***   
       JODA_PRINT           IJPRNT              4               ***   
       LINDEP_TOL           ILINDP              8               ***   
       LINEQ_CONV           IZTACN          10D-  7           cycles  
       LINEQ_EXPOR          ILMAXD              5               ***   
       LINEQ_MAXCY          ILMAXC             50               ***   
       LINEQ_TYPE           ILTYPE         DIIS         [  1]   ***   
       LOCK_ORBOCC          ILOCOC             OFF      [  0]   ***   
       MEMORY_SIZE          IMEMSZ         250000000           words  
       MEM_UNIT             IMEMU          GB           [  3]   ***   
       MRCC                 IMRCCC         OFF          [  0]   ***   
       MULTIPLICTY          IMULTP              2               ***   
       NEGEVAL              IDIE             ABORT      [  0]   ***   
       NEWNORM              INEWNO         OFF          [  0]   ***   
       NON-HF               INONHF              ON      [  1]   ***   
       NTOP_TAMP            ITOPT2             15               ***   
       NUC_MODEL            INUCMO         POINT        [  0]   ***   
       OCCUPATION           IOCCU   ESTIMATED BY SCF 
       OPEN-SHELL           IOPEN          SPIN-ORBITAL [  0]   ***   
       ORBITALS             IORBTP         SEMICANONICAL[  1]   ***   
       PARALLEL             IPARAL         ON           [  1]   ***   
       PARA_INT             IPINTS         ON           [  1]   ***   
       PARA_PRINT           IPPRIN              0               ***   
       PERT_ORB             IPTORB         STANDARD     [  0]   ***   
       POINTS               IGRDFD              0               ***   
       PRINT                IPRNT               4               ***   
       PROPS                IPROPS             OFF      [  0]   ***   
       PROP_INTEGR          IINTYP         INTERNAL     [  0]   ***   
       PSI                  IPSI           OFF          [  0]   ***   
       QUARTIC              IQUART         OFF          [  0]   ***   
       RAMAN_INT            IRAMIN         OFF          [  0]   ***   
       RAMAN_ORB            IRAMRE         UNRELAXED    [  0]   ***   
       RDO                  IRDOFM             OFF      [  0]   ***   
       REFERENCE            IREFNC             ROHF     [  2]   ***   
       RELATIVIST           IRELAT         OFF          [  0]   ***   
       RELAX_DENS           IRDENS             OFF      [  0]   ***   
       RESET_FLAGS          IRESET             OFF      [  0]   ***   
       RESTART_CC           ICCRES         OFF          [  0]   ***   
       ROT_EVEC             ROTVEC              0               ***   
       SAVE_INTS            ISVINT              ON      [  1]   ***   
       SCALE_ON             ISTCRT              0               ***   
       SCF_CONV             ISCFCV          10D- 13             ***   
       SCF_DAMPING          IDAMP               0             x 10-3  
       SCF_EXPORDE          IRPPOR              6               ***   
       SCF_EXPSTAR          IRPPLS              5               ***   
       SCF_EXTRAPO          IRPP                ON      [  1]   ***   
       SCF_MAXCYC           ISCFCY            ***              cycles 
       SCF_NOSTOP           ISCFST         OFF          [  0]   ***   
       SCF_PRINT            ISCFPR              0               ***   
       SD_FIELD             IFINSD              0             x 10-6  
       SEQUENCE             ISEQUE         OFF          [  0]   ***   
       SOPERT               IPERSO         OFF          [  0]   ***   
       SPHERICAL            IDFGHI             ON       [  1]   ***   
       SPINORBIT            ISOCAL         OFF          [  0]   ***   
       SPINROTATIO          ISRCON         OFF          [  0]   ***   
       SPIN_FLIP            ISPFLP         OFF          [  0]   ***   
       SPIN_ORBIT           ISPORB         OFF          [  0]   ***   
       SPIN_SCAL            ISCSMP         OFF          [  0]   ***   
       SUBGROUP             ISUBGP         DEFAULT      [  0]   ***   
       SUBGRPAXIS           ISBXYZ         X            [  0]   ***   
       SYMMETRY             ISYM             ON         [  0]   ***   
       SYM_CHECK            ISYMCK         OVERRIDE     [  1]   ***   
       T3_EXTRAPOL          IT3EXT         ON           [  1]   ***   
       TAMP_SUM             IEVERY              5               ***   
       TESTSUITE            ITESTS         OFF          [  0]   ***   
       THERMOCH             ITHERM         OFF          [  0]   ***   
       TOL_CHOLESK          ITOLCH          10D-  4             ***   
       TRANGRAD             IRESRM         OFF          [  0]   ***   
       TRANS_INV            ITRAIN         USE          [  0]   ***   
       TREAT_PERT           ITREAT         SIMULTANEOUS [  0]   ***   
       UIJ_THRESHO          IUIJTH              1               ***   
       UNITS                IUNITS         ANGSTROM     [  0]   ***   
       UNOS                 IUNOS          OFF          [  0]   ***   
       UPDATE_HESS          IHUPDT         ON           [  1]   ***   
       VIBPHASE             ISETPH         STANDARD     [  0]   ***   
       VIBRATION            IVIB              NO        [  0]   ***   
       VIB_ALGORIT          IGEALG         STANDARD     [  0]   ***   
       VNATORB              IVNORB         OFF          [  0]   ***   
       VTRAN                IVTRAN         FULL/PARTIAL [  0]   ***   
       XFIELD               IXEFLD              0             x 10-6  
       XFORM_TOL            IXFTOL          10D- 18             ***   
       YFIELD               IYEFLD              0             x 10-6  
       ZFIELD               IZEFLD              0             x 10-6  
    -------------------------------------------------------------------
  @GETXYZ-I,     5 atoms read from ZMAT.
  1  O          8    15.99491
  2  H          1     1.00783
  3  C          6    12.00000
  4  O          8    15.99491
  5  H          1     1.00783
  1  O          8    15.99491
  2  H          1     1.00783
  3  C          6    12.00000
  4  O          8    15.99491
  5  H          1     1.00783
   15.9949146300
    1.0078250350
   12.0000000000
   15.9949146300
    1.0078250350
 After translation to center of mass coordinates 
        1.218988378938    0.000000000000    1.780719704554
       -2.579172954952    0.000000000000    1.224006271565
       -0.643904025136    0.000000000000    0.481154776291
       -0.643904025136    0.000000000000   -2.056747940966
        1.119021845995    0.000000000000   -2.572265335804
  Inertia tensor (amu*bohr**2)
  129.33752    0.00000  -46.10224
    0.00000  172.67812    0.00000
  -46.10224    0.00000   43.34060
    Inertia tensor:
      129.337515892106    0.000000000000  -46.102243238756
        0.000000000000  172.678115409644    0.000000000000
      -46.102243238756    0.000000000000   43.340599517537
    Principal axis orientation for molecular system: 
        2.119079869062    0.407916465358    0.000000000000
        0.094167289385   -2.853323852281    0.000000000000
        0.184525380869   -0.782350750079    0.000000000000
       -2.142927432563    0.229535411257    0.000000000000
       -1.912801243132    2.051816330441    0.000000000000
    Diagonalized inertia tensor:
       23.297133256649    0.000000000000    0.000000000000
        0.000000000000  149.380982152995    0.000000000000
        0.000000000000    0.000000000000  172.678115409644
    Eigenvectors of inertia tensor: 
        0.398709593735    0.917077237676    0.000000000000
        0.000000000000    0.000000000000    1.000000000000
        0.917077237676   -0.398709593735    0.000000000000
 factor:   60.1997200000000     
   Rotational constants (in cm-1): 
          0.3486239114             0.4029945387             2.5839968951
   Rotational constants (in MHz): 
      10451.4833945727         12081.4740256668         77466.2889175403
  @SYMMETRY-I, Handedness of inertial frame: 1.00000
  @SYMMETRY-I, The symmetry group is 1-fold degenerate.
  @SYMMETRY-I, The molecule belongs to an Abelian group.
   Principal axis orientation for molecule:
        2.119079869062    0.407916465358    0.000000000000
        0.094167289385   -2.853323852281    0.000000000000
        0.184525380869   -0.782350750079    0.000000000000
       -2.142927432563    0.229535411257    0.000000000000
       -1.912801243132    2.051816330441    0.000000000000
   Reflection in plane  3 is a valid symmetry operation.
  Symmetry bits:    4   0   0
********************************************************************************
   The full molecular point group is C s .
   The largest Abelian subgroup of the full molecular point group is C s .
   The computational point group is C s .
********************************************************************************
 ----------------------------------------------------------------
 Z-matrix   Atomic            Coordinates (in bohr)
  Symbol    Number           X              Y              Z
 ----------------------------------------------------------------
     O         8         2.11907987     0.40791647     0.00000000
     H         1         0.09416729    -2.85332385     0.00000000
     C         6         0.18452538    -0.78235075     0.00000000
     O         8        -2.14292743     0.22953541     0.00000000
     H         1        -1.91280124     2.05181633     0.00000000
 ----------------------------------------------------------------
   Interatomic distance matrix (Angstroms) 
 
                 O             H             C             O             H    
                [ 1]        [ 2]        [ 3]        [ 4]        [ 5]
  O    [ 1]     0.00000
  H    [ 2]     2.03138     0.00000
  C    [ 3]     1.20197     1.09695     0.00000
  O    [ 4]     2.25733     2.01564     1.34300     0.00000
  H    [ 5]     2.30411     2.80455     1.86577     0.97197     0.00000
  Inertia tensor (amu*bohr**2)
   23.29713    0.00000    0.00000
    0.00000  149.38098    0.00000
    0.00000    0.00000  172.67812
   Rotational constants (in cm-1): 
          2.5839968951             0.4029945387             0.3486239114
   Rotational constants (in MHz): 
      77466.2889175403         12081.4740256668         10451.4833945727
  @GTFLGS-W, Keyword #UNITS not known and is ignored.
  @GTFLGS-W, Keyword #GEOM not known and is ignored.
  @GTFLGS-W, Keyword #COORD not known and is ignored.
  @GTFLGS-W, Keyword #CC_PROG not known and is ignored.
  @GTFLGS-W, Keyword #FROZEN_CORE not known and is ignored.
  @GTFLGS-W, Keyword #CONTRACTION not known and is ignored.
  @GTFLGS-W, Keyword #EXCITE not known and is ignored.
  @GTFLGS-W, Keyword #ESTATE_CONV not known and is ignored.
  @GTFLGS-W, Keyword #ESTATE_SYM not known and is ignored.
  @GTFLGS-W, Keyword #SCF_DAMPING not known and is ignored.
  @GTFLGS-W, Keyword #SYMMETRY not known and is ignored.
  @GTFLGS-W, Keyword #HFSTABILITY not known and is ignored.
  @GTFLGS-W, Keyword #OCCUPATION not known and is ignored.
  There are  121 basis functions.
 @GEOPT-W, Archive file not created for single-point calculation.
  @CHECKOUT-I, Total execution time (CPU/WALL):        0.66/       1.21 seconds.
--executable xjoda finished with status     0 in        1.25 seconds (walltime).
 --invoking executable--
/project1/nike/cfour_v2.00beta_May2019xnmol_noLABBASIS/bin/xvmol
Running with 1 threads/proc

********************************************************************************
                   INPUT FROM MOL FILE                                          
********************************************************************************
INTGRL        1    0    1    0    0    0    0    0    0
         *** CFOUR Program System (Release V0.1) *** 
TITLE
    5    1 Z          0.10E-08              0    0
   9999.00      3.00
          8.00000000    1    4    1    1    1    1
O #1   2.119079869061792   0.407916465357790  -0.000000000000001
   11    5
   27032.3826310000       2.172630246500000E-004  0.000000000000000E+000
  0.000000000000000E+000  0.000000000000000E+000  0.000000000000000E+000
   4052.38713920000       1.683866219900000E-003  0.000000000000000E+000
  0.000000000000000E+000  0.000000000000000E+000  0.000000000000000E+000
   922.327227100000       8.739561626499999E-003  0.000000000000000E+000
  0.000000000000000E+000  0.000000000000000E+000  0.000000000000000E+000
   261.240709890000       3.523996880800000E-002  0.000000000000000E+000
  0.000000000000000E+000  0.000000000000000E+000  0.000000000000000E+000
   85.3546413510000       0.111535191150000       0.000000000000000E+000
  0.000000000000000E+000  0.000000000000000E+000  0.000000000000000E+000
   31.0350352450000       0.255889539610000       0.000000000000000E+000
  0.000000000000000E+000  0.000000000000000E+000  0.000000000000000E+000
   12.2608607280000       0.000000000000000E+000  0.397687309010000     
  0.000000000000000E+000  0.000000000000000E+000  0.000000000000000E+000
   4.99870760050000       0.000000000000000E+000  0.246278494300000     
  0.000000000000000E+000  0.000000000000000E+000  0.000000000000000E+000
   1.17031081580000       0.000000000000000E+000  0.000000000000000E+000
   1.00000000000000       0.000000000000000E+000  0.000000000000000E+000
  0.464747409940000       0.000000000000000E+000  0.000000000000000E+000
  0.000000000000000E+000   1.00000000000000       0.000000000000000E+000
  0.185045363570000       0.000000000000000E+000  0.000000000000000E+000
  0.000000000000000E+000  0.000000000000000E+000   1.00000000000000     
    6    3
   63.2749548010000       6.068510341800000E-003  0.000000000000000E+000
  0.000000000000000E+000
   14.6270493790000       4.191257582400000E-002  0.000000000000000E+000
  0.000000000000000E+000
   4.45012234560000       0.161538410880000       0.000000000000000E+000
  0.000000000000000E+000
   1.52757996470000       0.357069513110000       0.000000000000000E+000
  0.000000000000000E+000
  0.529351179430000       0.000000000000000E+000  0.447942075020000     
  0.000000000000000E+000
  0.174784212700000       0.000000000000000E+000  0.000000000000000E+000
  0.244460696630000     
    2    2
   2.31400000000000        1.00000000000000       0.000000000000000E+000
  0.645000000000000       0.000000000000000E+000   1.00000000000000     
    1    1
   1.42800000000000        1.00000000000000     
          1.00000000    1    3    1    1    1
H #2   0.094167289384536  -2.853323852280781   0.000000000000003
    5    3
   34.0613410000000       6.025197800000000E-003  0.000000000000000E+000
  0.000000000000000E+000
   5.12357460000000       4.502109400000000E-002  0.000000000000000E+000
  0.000000000000000E+000
   1.16466260000000       0.201897260000000       0.000000000000000E+000
  0.000000000000000E+000
  0.327230410000000       0.000000000000000E+000   1.00000000000000     
  0.000000000000000E+000
  0.103072410000000       0.000000000000000E+000  0.000000000000000E+000
   1.00000000000000     
    2    2
   1.40700000000000        1.00000000000000       0.000000000000000E+000
  0.388000000000000       0.000000000000000E+000   1.00000000000000     
    1    1
   1.05700000000000        1.00000000000000     
          6.00000000    1    4    1    1    1    1
C #3   0.184525380869183  -0.782350750078598   0.000000000000001
   11    5
   13575.3496820000       2.224581435200000E-004  0.000000000000000E+000
  0.000000000000000E+000  0.000000000000000E+000  0.000000000000000E+000
   2035.23336800000       1.723273825200000E-003  0.000000000000000E+000
  0.000000000000000E+000  0.000000000000000E+000  0.000000000000000E+000
   463.225623590000       8.925571531400001E-003  0.000000000000000E+000
  0.000000000000000E+000  0.000000000000000E+000  0.000000000000000E+000
   131.200195980000       3.572798450200000E-002  0.000000000000000E+000
  0.000000000000000E+000  0.000000000000000E+000  0.000000000000000E+000
   42.8530158910000       0.110762599310000       0.000000000000000E+000
  0.000000000000000E+000  0.000000000000000E+000  0.000000000000000E+000
   15.5841857660000       0.242956276260000       0.000000000000000E+000
  0.000000000000000E+000  0.000000000000000E+000  0.000000000000000E+000
   6.20671385080000       0.000000000000000E+000  0.414402634480000     
  0.000000000000000E+000  0.000000000000000E+000  0.000000000000000E+000
   2.57648965270000       0.000000000000000E+000  0.237449686550000     
  0.000000000000000E+000  0.000000000000000E+000  0.000000000000000E+000
  0.576963394190000       0.000000000000000E+000  0.000000000000000E+000
   1.00000000000000       0.000000000000000E+000  0.000000000000000E+000
  0.229728313580000       0.000000000000000E+000  0.000000000000000E+000
  0.000000000000000E+000   1.00000000000000       0.000000000000000E+000
  9.516444002799999E-002  0.000000000000000E+000  0.000000000000000E+000
  0.000000000000000E+000  0.000000000000000E+000   1.00000000000000     
    6    3
   34.6972322440000       5.333365780500000E-003  0.000000000000000E+000
  0.000000000000000E+000
   7.95826228260000       3.586410909200000E-002  0.000000000000000E+000
  0.000000000000000E+000
   2.37808268830000       0.142158733290000       0.000000000000000E+000
  0.000000000000000E+000
  0.814332081830000       0.342704718450000       0.000000000000000E+000
  0.000000000000000E+000
  0.288875472530000       0.000000000000000E+000  0.464458224330000     
  0.000000000000000E+000
  0.100568236710000       0.000000000000000E+000  0.000000000000000E+000
  0.249557898740000     
    2    2
   1.09700000000000        1.00000000000000       0.000000000000000E+000
  0.318000000000000       0.000000000000000E+000   1.00000000000000     
    1    1
  0.761000000000000        1.00000000000000     
          8.00000000    1    4    1    1    1    1
O #4  -2.142927432563425   0.229535411257442   0.000000000000000
   11    5
   27032.3826310000       2.172630246500000E-004  0.000000000000000E+000
  0.000000000000000E+000  0.000000000000000E+000  0.000000000000000E+000
   4052.38713920000       1.683866219900000E-003  0.000000000000000E+000
  0.000000000000000E+000  0.000000000000000E+000  0.000000000000000E+000
   922.327227100000       8.739561626499999E-003  0.000000000000000E+000
  0.000000000000000E+000  0.000000000000000E+000  0.000000000000000E+000
   261.240709890000       3.523996880800000E-002  0.000000000000000E+000
  0.000000000000000E+000  0.000000000000000E+000  0.000000000000000E+000
   85.3546413510000       0.111535191150000       0.000000000000000E+000
  0.000000000000000E+000  0.000000000000000E+000  0.000000000000000E+000
   31.0350352450000       0.255889539610000       0.000000000000000E+000
  0.000000000000000E+000  0.000000000000000E+000  0.000000000000000E+000
   12.2608607280000       0.000000000000000E+000  0.397687309010000     
  0.000000000000000E+000  0.000000000000000E+000  0.000000000000000E+000
   4.99870760050000       0.000000000000000E+000  0.246278494300000     
  0.000000000000000E+000  0.000000000000000E+000  0.000000000000000E+000
   1.17031081580000       0.000000000000000E+000  0.000000000000000E+000
   1.00000000000000       0.000000000000000E+000  0.000000000000000E+000
  0.464747409940000       0.000000000000000E+000  0.000000000000000E+000
  0.000000000000000E+000   1.00000000000000       0.000000000000000E+000
  0.185045363570000       0.000000000000000E+000  0.000000000000000E+000
  0.000000000000000E+000  0.000000000000000E+000   1.00000000000000     
    6    3
   63.2749548010000       6.068510341800000E-003  0.000000000000000E+000
  0.000000000000000E+000
   14.6270493790000       4.191257582400000E-002  0.000000000000000E+000
  0.000000000000000E+000
   4.45012234560000       0.161538410880000       0.000000000000000E+000
  0.000000000000000E+000
   1.52757996470000       0.357069513110000       0.000000000000000E+000
  0.000000000000000E+000
  0.529351179430000       0.000000000000000E+000  0.447942075020000     
  0.000000000000000E+000
  0.174784212700000       0.000000000000000E+000  0.000000000000000E+000
  0.244460696630000     
    2    2
   2.31400000000000        1.00000000000000       0.000000000000000E+000
  0.645000000000000       0.000000000000000E+000   1.00000000000000     
    1    1
   1.42800000000000        1.00000000000000     
          1.00000000    1    3    1    1    1
H #5  -1.912801243132318   2.051816330441175  -0.000000000000002
    5    3
   34.0613410000000       6.025197800000000E-003  0.000000000000000E+000
  0.000000000000000E+000
   5.12357460000000       4.502109400000000E-002  0.000000000000000E+000
  0.000000000000000E+000
   1.16466260000000       0.201897260000000       0.000000000000000E+000
  0.000000000000000E+000
  0.327230410000000       0.000000000000000E+000   1.00000000000000     
  0.000000000000000E+000
  0.103072410000000       0.000000000000000E+000  0.000000000000000E+000
   1.00000000000000     
    2    2
   1.40700000000000        1.00000000000000       0.000000000000000E+000
  0.388000000000000       0.000000000000000E+000   1.00000000000000     
    1    1
   1.05700000000000        1.00000000000000     
FINISH
                                                                                
********************************************************************************

ONE- AND TWO-ELECTRON INTEGRALS OVER SYMMETRY-ADAPTED AOS ARE CALCULATED.


    BASIS FUNCTION NOT NORMALIZED:
    CENTER (AS ORDERED IN MOL FILE): ?
    ANGULAR MOMENTUM TYPE:           S
    OFFSET WITHIN ANGULAR MOMENTUM:  1
    <CHI|CHI>:                       0.1441333881

    BASIS FUNCTION NOT NORMALIZED:
    CENTER (AS ORDERED IN MOL FILE): ?
    ANGULAR MOMENTUM TYPE:           S
    OFFSET WITHIN ANGULAR MOMENTUM:  2
    <CHI|CHI>:                       0.3880597184

    BASIS FUNCTION NOT NORMALIZED:
    CENTER (AS ORDERED IN MOL FILE): ?
    ANGULAR MOMENTUM TYPE:           P
    OFFSET WITHIN ANGULAR MOMENTUM:  1
    <CHI|CHI>:                       0.2549621911

    BASIS FUNCTION NOT NORMALIZED:
    CENTER (AS ORDERED IN MOL FILE): ?
    ANGULAR MOMENTUM TYPE:           P
    OFFSET WITHIN ANGULAR MOMENTUM:  2
    <CHI|CHI>:                       0.2006521026

    BASIS FUNCTION NOT NORMALIZED:
    CENTER (AS ORDERED IN MOL FILE): ?
    ANGULAR MOMENTUM TYPE:           P
    OFFSET WITHIN ANGULAR MOMENTUM:  3
    <CHI|CHI>:                       0.0597610322

    BASIS FUNCTION NOT NORMALIZED:
    CENTER (AS ORDERED IN MOL FILE): ?
    ANGULAR MOMENTUM TYPE:           S
    OFFSET WITHIN ANGULAR MOMENTUM:  1
    <CHI|CHI>:                       0.0560960211

    BASIS FUNCTION NOT NORMALIZED:
    CENTER (AS ORDERED IN MOL FILE): ?
    ANGULAR MOMENTUM TYPE:           S
    OFFSET WITHIN ANGULAR MOMENTUM:  1
    <CHI|CHI>:                       0.1345548646

    BASIS FUNCTION NOT NORMALIZED:
    CENTER (AS ORDERED IN MOL FILE): ?
    ANGULAR MOMENTUM TYPE:           S
    OFFSET WITHIN ANGULAR MOMENTUM:  2
    <CHI|CHI>:                       0.3991162928

    BASIS FUNCTION NOT NORMALIZED:
    CENTER (AS ORDERED IN MOL FILE): ?
    ANGULAR MOMENTUM TYPE:           P
    OFFSET WITHIN ANGULAR MOMENTUM:  1
    <CHI|CHI>:                       0.2216950870

    BASIS FUNCTION NOT NORMALIZED:
    CENTER (AS ORDERED IN MOL FILE): ?
    ANGULAR MOMENTUM TYPE:           P
    OFFSET WITHIN ANGULAR MOMENTUM:  2
    <CHI|CHI>:                       0.2157214421

    BASIS FUNCTION NOT NORMALIZED:
    CENTER (AS ORDERED IN MOL FILE): ?
    ANGULAR MOMENTUM TYPE:           P
    OFFSET WITHIN ANGULAR MOMENTUM:  3
    <CHI|CHI>:                       0.0622791448

    BASIS FUNCTION NOT NORMALIZED:
    CENTER (AS ORDERED IN MOL FILE): ?
    ANGULAR MOMENTUM TYPE:           S
    OFFSET WITHIN ANGULAR MOMENTUM:  1
    <CHI|CHI>:                       0.1441333881

    BASIS FUNCTION NOT NORMALIZED:
    CENTER (AS ORDERED IN MOL FILE): ?
    ANGULAR MOMENTUM TYPE:           S
    OFFSET WITHIN ANGULAR MOMENTUM:  2
    <CHI|CHI>:                       0.3880597184

    BASIS FUNCTION NOT NORMALIZED:
    CENTER (AS ORDERED IN MOL FILE): ?
    ANGULAR MOMENTUM TYPE:           P
    OFFSET WITHIN ANGULAR MOMENTUM:  1
    <CHI|CHI>:                       0.2549621911

    BASIS FUNCTION NOT NORMALIZED:
    CENTER (AS ORDERED IN MOL FILE): ?
    ANGULAR MOMENTUM TYPE:           P
    OFFSET WITHIN ANGULAR MOMENTUM:  2
    <CHI|CHI>:                       0.2006521026

    BASIS FUNCTION NOT NORMALIZED:
    CENTER (AS ORDERED IN MOL FILE): ?
    ANGULAR MOMENTUM TYPE:           P
    OFFSET WITHIN ANGULAR MOMENTUM:  3
    <CHI|CHI>:                       0.0597610322

    BASIS FUNCTION NOT NORMALIZED:
    CENTER (AS ORDERED IN MOL FILE): ?
    ANGULAR MOMENTUM TYPE:           S
    OFFSET WITHIN ANGULAR MOMENTUM:  1
    <CHI|CHI>:                       0.0560960211
CARTESIAN GAUSSIANS ARE USED.

5 TYPES OF ATOMS
1 SYMMETRY OPERATIONS

REFLECTION IN THE XY-PLANE

INTEGRALS LESS THAN 1e-14 ARE NEGLECTED.

ATOMIC TYPE NUMBER 1:
---------------------

    NUCLEAR CHARGE:                       8
    NUMBER OF SYMMETRY INDEPENDENT ATOMS: 1
    HIGHEST ORBITAL TYPE:                 F

    1 GROUPS OF CGTOS OF S TYPE
    1 GROUPS OF CGTOS OF P TYPE
    1 GROUPS OF CGTOS OF D TYPE
    1 GROUPS OF CGTOS OF F TYPE

    NUCLEAR COORDINATES (IN A.U.) ARE:

    O #1   2.119079869061792   0.407916465357790  -0.000000000000001

ATOMIC TYPE NUMBER 2:
---------------------

    NUCLEAR CHARGE:                       1
    NUMBER OF SYMMETRY INDEPENDENT ATOMS: 1
    HIGHEST ORBITAL TYPE:                 D

    1 GROUPS OF CGTOS OF S TYPE
    1 GROUPS OF CGTOS OF P TYPE
    1 GROUPS OF CGTOS OF D TYPE

    NUCLEAR COORDINATES (IN A.U.) ARE:

    H #2   0.094167289384536  -2.853323852280781   0.000000000000003

ATOMIC TYPE NUMBER 3:
---------------------

    NUCLEAR CHARGE:                       6
    NUMBER OF SYMMETRY INDEPENDENT ATOMS: 1
    HIGHEST ORBITAL TYPE:                 F

    1 GROUPS OF CGTOS OF S TYPE
    1 GROUPS OF CGTOS OF P TYPE
    1 GROUPS OF CGTOS OF D TYPE
    1 GROUPS OF CGTOS OF F TYPE

    NUCLEAR COORDINATES (IN A.U.) ARE:

    C #3   0.184525380869183  -0.782350750078598   0.000000000000001

ATOMIC TYPE NUMBER 4:
---------------------

    NUCLEAR CHARGE:                       8
    NUMBER OF SYMMETRY INDEPENDENT ATOMS: 1
    HIGHEST ORBITAL TYPE:                 F

    1 GROUPS OF CGTOS OF S TYPE
    1 GROUPS OF CGTOS OF P TYPE
    1 GROUPS OF CGTOS OF D TYPE
    1 GROUPS OF CGTOS OF F TYPE

    NUCLEAR COORDINATES (IN A.U.) ARE:

    O #4  -2.142927432563425   0.229535411257442   0.000000000000000

ATOMIC TYPE NUMBER 5:
---------------------

    NUCLEAR CHARGE:                       1
    NUMBER OF SYMMETRY INDEPENDENT ATOMS: 1
    HIGHEST ORBITAL TYPE:                 D

    1 GROUPS OF CGTOS OF S TYPE
    1 GROUPS OF CGTOS OF P TYPE
    1 GROUPS OF CGTOS OF D TYPE

    NUCLEAR COORDINATES (IN A.U.) ARE:

    H #5  -1.912801243132318   2.051816330441175  -0.000000000000002

INTERNUCLEAR DISTANCES (A):

    FOR ATOM O #1 (COORDINATES:   2.11908   0.40792  -0.00000)

    H #2 1 DISTANCE IS   2.03138
    C #3 1 DISTANCE IS   1.20197
    O #4 1 DISTANCE IS   2.25733
    H #5 1 DISTANCE IS   2.30411

    FOR ATOM H #2 (COORDINATES:   0.09417  -2.85332   0.00000)

    C #3 1 DISTANCE IS   1.09695
    O #4 1 DISTANCE IS   2.01565
    H #5 1 DISTANCE IS   2.80456

    FOR ATOM C #3 (COORDINATES:   0.18453  -0.78235   0.00000)

    O #4 1 DISTANCE IS   1.34300
    H #5 1 DISTANCE IS   1.86577

    FOR ATOM O #4 (COORDINATES:  -2.14293   0.22954   0.00000)

    H #5 1 DISTANCE IS   0.97197

    FOR ATOM H #5 (COORDINATES:  -1.91280   2.05182  -0.00000)


GROUP MULTIPLICATION TABLE:

    1 2
    2 1

GAUSSIAN BASIS INFORMATION:

ATOM                EXPONENT       COEFFICIENTS

O #1  1  S   
                  1   27032.382631   0.8598582   0.0000000   0.0000000   0.0000000   0.0000000
                  2    4052.387139   1.6055306   0.0000000   0.0000000   0.0000000   0.0000000
                  3     922.327227   2.7458779   0.0000000   0.0000000   0.0000000   0.0000000
                  4     261.240710   4.2987674   0.0000000   0.0000000   0.0000000   0.0000000
                  5      85.354641   5.8797663   0.0000000   0.0000000   0.0000000   0.0000000
                  6      31.035035   6.3163983   0.0000000   0.0000000   0.0000000   0.0000000
                  7      12.260861   0.0000000   2.9812148   0.0000000   0.0000000   0.0000000
                  8       4.998708   0.0000000   0.9419560   0.0000000   0.0000000   0.0000000
                  9       1.170311   0.0000000   0.0000000   0.8019292   0.0000000   0.0000000
                 10       0.464747   0.0000000   0.0000000   0.0000000   0.4011648   0.0000000
                 11       0.185045   0.0000000   0.0000000   0.0000000   0.0000000   0.2010799

O #1  1  X   
                 12      63.274955   3.0572017   0.0000000   0.0000000
                 13      14.627049   3.3844839   0.0000000   0.0000000
                 14       4.450122   2.9474262   0.0000000   0.0000000
                 15       1.527580   1.7118271   0.0000000   0.0000000
                 16       0.529351   0.0000000   0.6436058   0.0000000
                 17       0.174784   0.0000000   0.0000000   0.1610897

O #1  1  Y   
                 18      63.274955   3.0572017   0.0000000   0.0000000
                 19      14.627049   3.3844839   0.0000000   0.0000000
                 20       4.450122   2.9474262   0.0000000   0.0000000
                 21       1.527580   1.7118271   0.0000000   0.0000000
                 22       0.529351   0.0000000   0.6436058   0.0000000
                 23       0.174784   0.0000000   0.0000000   0.1610897

O #1  1  Z   
                 24      63.274955   3.0572017   0.0000000   0.0000000
                 25      14.627049   3.3844839   0.0000000   0.0000000
                 26       4.450122   2.9474262   0.0000000   0.0000000
                 27       1.527580   1.7118271   0.0000000   0.0000000
                 28       0.529351   0.0000000   0.6436058   0.0000000
                 29       0.174784   0.0000000   0.0000000   0.1610897

O #1  1  XX  
                 30       2.314000  12.3767311   0.0000000
                 31       0.645000   0.0000000   1.3234258

O #1  1  XY  
                 32       2.314000  12.3767311   0.0000000
                 33       0.645000   0.0000000   1.3234258

O #1  1  XZ  
                 34       2.314000  12.3767311   0.0000000
                 35       0.645000   0.0000000   1.3234258

O #1  1  YY  
                 36       2.314000  12.3767311   0.0000000
                 37       0.645000   0.0000000   1.3234258

O #1  1  YZ  
                 38       2.314000  12.3767311   0.0000000
                 39       0.645000   0.0000000   1.3234258

O #1  1  ZZ  
                 40       2.314000  12.3767311   0.0000000
                 41       0.645000   0.0000000   1.3234258

O #1  1  F300
                 42       1.428000  12.7097950

O #1  1  F210
                 43       1.428000  12.7097950

O #1  1  F201
                 44       1.428000  12.7097950

O #1  1  F120
                 45       1.428000  12.7097950

O #1  1  F111
                 46       1.428000  12.7097950

O #1  1  F102
                 47       1.428000  12.7097950

O #1  1  F030
                 48       1.428000  12.7097950

O #1  1  F021
                 49       1.428000  12.7097950

O #1  1  F012
                 50       1.428000  12.7097950

O #1  1  F003
                 51       1.428000  12.7097950

H #2  1  S   
                 52      34.061341   0.2556299   0.0000000   0.0000000
                 53       5.123575   0.4613600   0.0000000   0.0000000
                 54       1.164663   0.6811215   0.0000000   0.0000000
                 55       0.327230   0.0000000   0.3083545   0.0000000
                 56       0.103072   0.0000000   0.0000000   0.1296483

H #2  1  X   
                 57       1.407000   2.1842770   0.0000000
                 58       0.388000   0.0000000   0.4364955

H #2  1  Y   
                 59       1.407000   2.1842770   0.0000000
                 60       0.388000   0.0000000   0.4364955

H #2  1  Z   
                 61       1.407000   2.1842770   0.0000000
                 62       0.388000   0.0000000   0.4364955

H #2  1  XX  
                 63       1.057000   3.1412414

H #2  1  XY  
                 64       1.057000   3.1412414

H #2  1  XZ  
                 65       1.057000   3.1412414

H #2  1  YY  
                 66       1.057000   3.1412414

H #2  1  YZ  
                 67       1.057000   3.1412414

H #2  1  ZZ  
                 68       1.057000   3.1412414

C #3  1  S   
                 69   13575.349682   0.5435906   0.0000000   0.0000000   0.0000000   0.0000000
                 70    2035.233368   1.0145544   0.0000000   0.0000000   0.0000000   0.0000000
                 71     463.225624   1.7315732   0.0000000   0.0000000   0.0000000   0.0000000
                 72     131.200196   2.6910376   0.0000000   0.0000000   0.0000000   0.0000000
                 73      42.853016   3.6044547   0.0000000   0.0000000   0.0000000   0.0000000
                 74      15.584186   3.7025557   0.0000000   0.0000000   0.0000000   0.0000000
                 75       6.206714   0.0000000   1.8383541   0.0000000   0.0000000   0.0000000
                 76       2.576490   0.0000000   0.5447576   0.0000000   0.0000000   0.0000000
                 77       0.576963   0.0000000   0.0000000   0.4718145   0.0000000   0.0000000
                 78       0.229728   0.0000000   0.0000000   0.0000000   0.2364945   0.0000000
                 79       0.095164   0.0000000   0.0000000   0.0000000   0.0000000   0.1221142

C #3  1  X   
                 80      34.697232   1.3596651   0.0000000   0.0000000
                 81       7.958262   1.4512589   0.0000000   0.0000000
                 82       2.378083   1.2709231   0.0000000   0.0000000
                 83       0.814332   0.8025721   0.0000000   0.0000000
                 84       0.288875   0.0000000   0.3018759   0.0000000
                 85       0.100568   0.0000000   0.0000000   0.0807265

C #3  1  Y   
                 86      34.697232   1.3596651   0.0000000   0.0000000
                 87       7.958262   1.4512589   0.0000000   0.0000000
                 88       2.378083   1.2709231   0.0000000   0.0000000
                 89       0.814332   0.8025721   0.0000000   0.0000000
                 90       0.288875   0.0000000   0.3018759   0.0000000
                 91       0.100568   0.0000000   0.0000000   0.0807265

C #3  1  Z   
                 92      34.697232   1.3596651   0.0000000   0.0000000
                 93       7.958262   1.4512589   0.0000000   0.0000000
                 94       2.378083   1.2709231   0.0000000   0.0000000
                 95       0.814332   0.8025721   0.0000000   0.0000000
                 96       0.288875   0.0000000   0.3018759   0.0000000
                 97       0.100568   0.0000000   0.0000000   0.0807265

C #3  1  XX  
                 98       1.097000   3.3522136   0.0000000
                 99       0.318000   0.0000000   0.3838995

C #3  1  XY  
                100       1.097000   3.3522136   0.0000000
                101       0.318000   0.0000000   0.3838995

C #3  1  XZ  
                102       1.097000   3.3522136   0.0000000
                103       0.318000   0.0000000   0.3838995

C #3  1  YY  
                104       1.097000   3.3522136   0.0000000
                105       0.318000   0.0000000   0.3838995

C #3  1  YZ  
                106       1.097000   3.3522136   0.0000000
                107       0.318000   0.0000000   0.3838995

C #3  1  ZZ  
                108       1.097000   3.3522136   0.0000000
                109       0.318000   0.0000000   0.3838995

C #3  1  F300
                110       0.761000   3.0840084

C #3  1  F210
                111       0.761000   3.0840084

C #3  1  F201
                112       0.761000   3.0840084

C #3  1  F120
                113       0.761000   3.0840084

C #3  1  F111
                114       0.761000   3.0840084

C #3  1  F102
                115       0.761000   3.0840084

C #3  1  F030
                116       0.761000   3.0840084

C #3  1  F021
                117       0.761000   3.0840084

C #3  1  F012
                118       0.761000   3.0840084

C #3  1  F003
                119       0.761000   3.0840084

O #4  1  S   
                120   27032.382631   0.8598582   0.0000000   0.0000000   0.0000000   0.0000000
                121    4052.387139   1.6055306   0.0000000   0.0000000   0.0000000   0.0000000
                122     922.327227   2.7458779   0.0000000   0.0000000   0.0000000   0.0000000
                123     261.240710   4.2987674   0.0000000   0.0000000   0.0000000   0.0000000
                124      85.354641   5.8797663   0.0000000   0.0000000   0.0000000   0.0000000
                125      31.035035   6.3163983   0.0000000   0.0000000   0.0000000   0.0000000
                126      12.260861   0.0000000   2.9812148   0.0000000   0.0000000   0.0000000
                127       4.998708   0.0000000   0.9419560   0.0000000   0.0000000   0.0000000
                128       1.170311   0.0000000   0.0000000   0.8019292   0.0000000   0.0000000
                129       0.464747   0.0000000   0.0000000   0.0000000   0.4011648   0.0000000
                130       0.185045   0.0000000   0.0000000   0.0000000   0.0000000   0.2010799

O #4  1  X   
                131      63.274955   3.0572017   0.0000000   0.0000000
                132      14.627049   3.3844839   0.0000000   0.0000000
                133       4.450122   2.9474262   0.0000000   0.0000000
                134       1.527580   1.7118271   0.0000000   0.0000000
                135       0.529351   0.0000000   0.6436058   0.0000000
                136       0.174784   0.0000000   0.0000000   0.1610897

O #4  1  Y   
                137      63.274955   3.0572017   0.0000000   0.0000000
                138      14.627049   3.3844839   0.0000000   0.0000000
                139       4.450122   2.9474262   0.0000000   0.0000000
                140       1.527580   1.7118271   0.0000000   0.0000000
                141       0.529351   0.0000000   0.6436058   0.0000000
                142       0.174784   0.0000000   0.0000000   0.1610897

O #4  1  Z   
                143      63.274955   3.0572017   0.0000000   0.0000000
                144      14.627049   3.3844839   0.0000000   0.0000000
                145       4.450122   2.9474262   0.0000000   0.0000000
                146       1.527580   1.7118271   0.0000000   0.0000000
                147       0.529351   0.0000000   0.6436058   0.0000000
                148       0.174784   0.0000000   0.0000000   0.1610897

O #4  1  XX  
                149       2.314000  12.3767311   0.0000000
                150       0.645000   0.0000000   1.3234258

O #4  1  XY  
                151       2.314000  12.3767311   0.0000000
                152       0.645000   0.0000000   1.3234258

O #4  1  XZ  
                153       2.314000  12.3767311   0.0000000
                154       0.645000   0.0000000   1.3234258

O #4  1  YY  
                155       2.314000  12.3767311   0.0000000
                156       0.645000   0.0000000   1.3234258

O #4  1  YZ  
                157       2.314000  12.3767311   0.0000000
                158       0.645000   0.0000000   1.3234258

O #4  1  ZZ  
                159       2.314000  12.3767311   0.0000000
                160       0.645000   0.0000000   1.3234258

O #4  1  F300
                161       1.428000  12.7097950

O #4  1  F210
                162       1.428000  12.7097950

O #4  1  F201
                163       1.428000  12.7097950

O #4  1  F120
                164       1.428000  12.7097950

O #4  1  F111
                165       1.428000  12.7097950

O #4  1  F102
                166       1.428000  12.7097950

O #4  1  F030
                167       1.428000  12.7097950

O #4  1  F021
                168       1.428000  12.7097950

O #4  1  F012
                169       1.428000  12.7097950

O #4  1  F003
                170       1.428000  12.7097950

H #5  1  S   
                171      34.061341   0.2556299   0.0000000   0.0000000
                172       5.123575   0.4613600   0.0000000   0.0000000
                173       1.164663   0.6811215   0.0000000   0.0000000
                174       0.327230   0.0000000   0.3083545   0.0000000
                175       0.103072   0.0000000   0.0000000   0.1296483

H #5  1  X   
                176       1.407000   2.1842770   0.0000000
                177       0.388000   0.0000000   0.4364955

H #5  1  Y   
                178       1.407000   2.1842770   0.0000000
                179       0.388000   0.0000000   0.4364955

H #5  1  Z   
                180       1.407000   2.1842770   0.0000000
                181       0.388000   0.0000000   0.4364955

H #5  1  XX  
                182       1.057000   3.1412414

H #5  1  XY  
                183       1.057000   3.1412414

H #5  1  XZ  
                184       1.057000   3.1412414

H #5  1  YY  
                185       1.057000   3.1412414

H #5  1  YZ  
                186       1.057000   3.1412414

H #5  1  ZZ  
                187       1.057000   3.1412414

SYMMETRY TRANSFORMATION INTO 121 SYMMETRY-ADAPTED BASIS FUNCTIONS

    IRREDUCIBLE REPRESENTATION NUMBER 1

    1    1 O #1 S      1   1.0
    2    2 O #1 S      2   1.0
    3    3 O #1 S      3   1.0
    4    4 O #1 S      4   1.0
    5    5 O #1 S      5   1.0
    6    6 O #1 X      6   1.0
    7    7 O #1 X      7   1.0
    8    8 O #1 X      8   1.0
    9    9 O #1 Y      9   1.0
   10   10 O #1 Y     10   1.0
   11   11 O #1 Y     11   1.0
   12   12 O #1 XX    15  -1.0  21  -1.0  25   2.0
   13   13 O #1 XX    16  -1.0  22  -1.0  26   2.0
   14   14 O #1 XY    17   1.0
   15   15 O #1 XY    18   1.0
   16   16 O #1 YY    15   1.0  21  -1.0
   17   17 O #1 YY    16   1.0  22  -1.0
   18   18 O #1 ZZ    27  -1.0  30  -1.0  32   4.0
   19   19 O #1 ZZ    28  -1.0  33  -1.0  35   4.0
   20   20 O #1 F300  27   1.0  30  -3.0
   21   21 O #1 F210  28   3.0  33  -1.0
   22   22 O #1 F120  37   1.0
   23   23 O #1 F102  38   1.0
   24   24 O #1 F030  39   1.0
   25   25 O #1 F012  40   1.0
   26   26 H #2 S     41   1.0
   27   27 H #2 S     42   1.0
   28   28 H #2 S     43   1.0
   29   29 H #2 X     46  -1.0  49  -1.0  51   2.0
   30   30 H #2 X     47   1.0
   31   31 H #2 Y     46   1.0  49  -1.0
   32   32 H #2 Y     52   1.0
   33   33 H #2 XX    53   1.0
   34   34 H #2 XY    54   1.0
   35   35 H #2 YY    55   1.0
   36   36 H #2 ZZ    56   1.0
   37   37 C #3 S     57   1.0
   38   38 C #3 S     58   1.0
   39   39 C #3 S     59   1.0
   40   40 C #3 S     60   1.0
   41   41 C #3 S     61   1.0
   42   42 C #3 X     62   1.0
   43   43 C #3 X     66  -1.0  72  -1.0  76   2.0
   44   44 C #3 X     67  -1.0  73  -1.0  77   2.0
   45   45 C #3 Y     68   1.0
   46   46 C #3 Y     69   1.0
   47   47 C #3 Y     66   1.0  72  -1.0
   48   48 C #3 XX    67   1.0  73  -1.0
   49   49 C #3 XX    78  -1.0  81  -1.0  83   4.0
   50   50 C #3 XY    79  -1.0  84  -1.0  86   4.0
   51   51 C #3 XY    78   1.0  81  -3.0
   52   52 C #3 YY    79   3.0  84  -1.0
   53   53 C #3 YY    88   1.0
   54   54 C #3 ZZ    89   1.0
   55   55 C #3 ZZ    90   1.0
   56   56 C #3 F300  91   1.0
   57   57 C #3 F210  92   1.0
   58   58 C #3 F120  93   1.0
   59   59 C #3 F102  94   1.0
   60   60 C #3 F030  95   1.0
   61   61 C #3 F012  96   1.0
   62   62 O #4 S     97   1.0
   63   63 O #4 S     98   1.0
   64   64 O #4 S    102  -1.0 108  -1.0 112   2.0
   65   65 O #4 S    103  -1.0 109  -1.0 113   2.0
   66   66 O #4 S    104   1.0
   67   67 O #4 X    105   1.0
   68   68 O #4 X    102   1.0 108  -1.0
   69   69 O #4 X    103   1.0 109  -1.0
   70   70 O #4 Y    114  -1.0 117  -1.0 119   4.0
   71   71 O #4 Y    115  -1.0 120  -1.0 122   4.0
   72   72 O #4 Y    114   1.0 117  -3.0
   73   73 O #4 XX   115   3.0 120  -1.0
   74   74 O #4 XX   124   1.0
   75   75 O #4 XY   125   1.0
   76   76 O #4 XY   126   1.0
   77   77 O #4 YY   127   1.0
   78   78 O #4 YY   128   1.0
   79   79 O #4 ZZ   129   1.0
   80   80 O #4 ZZ   130   1.0
   81   81 O #4 F300 133  -1.0 136  -1.0 138   2.0
   82   82 O #4 F210 134   1.0
   83   83 O #4 F120 133   1.0 136  -1.0
   84   84 O #4 F102  12   1.0
   85   85 O #4 F030  13   1.0
   86   86 O #4 F012  14   1.0
   87   87 H #5 S     19   1.0
   88   88 H #5 S     20   1.0
   89   89 H #5 S     23   1.0
   90   90 H #5 X     24   1.0
   91   91 H #5 X     29  -3.0  34  -3.0  36   2.0
   92   92 H #5 Y     31   1.0
   93   93 H #5 Y     29   1.0  34  -1.0
   94   94 H #5 XX    44   1.0
   95   95 H #5 XY    45   1.0
   96   96 H #5 YY    48   1.0
   97   97 H #5 ZZ    50   1.0

    IRREDUCIBLE REPRESENTATION NUMBER 2

   98    1 O #1 Z     63   1.0
   99    2 O #1 Z     64   1.0
  100    3 O #1 Z     65   1.0
  101    4 O #1 XZ    70   1.0
  102    5 O #1 XZ    71   1.0
  103    6 O #1 YZ    74   1.0
  104    7 O #1 YZ    75   1.0
  105    8 O #1 F201  80  -3.0  85  -3.0  87   2.0
  106    9 O #1 F111  82   1.0
  107   10 O #1 F021  80   1.0  85  -1.0
  108   11 O #1 F003  99   1.0
  109   12 H #2 Z    100   1.0
  110   13 H #2 Z    101   1.0
  111   14 H #2 XZ   106   1.0
  112   15 H #2 YZ   107   1.0
  113   16 C #3 Z    110   1.0
  114   17 C #3 Z    111   1.0
  115   18 C #3 Z    116  -3.0 121  -3.0 123   2.0
  116   19 C #3 XZ   118   1.0
  117   20 C #3 XZ   116   1.0 121  -1.0
  118   21 C #3 YZ   131   1.0
  119   22 C #3 YZ   132   1.0
  120   23 C #3 F201 135   1.0
  121   24 C #3 F111 137   1.0
  122   25 C #3 F021
  123   26 C #3 F003
  124   27 O #4 Z   
  125   28 O #4 Z   
  126   29 O #4 Z   
  127   30 O #4 XZ  
  128   31 O #4 XZ  
  129   32 O #4 YZ  
  130   33 O #4 YZ  
  131   34 O #4 F201
  132   35 O #4 F111
  133   36 O #4 F021
  134   37 O #4 F003
  135   38 H #5 Z   
  136   39 H #5 Z   
  137   40 H #5 XZ  
  138   41 H #5 YZ  

NUCLEAR REPULSION ENERGY:   70.2109002979 A.U.

One-electron integrals took 0.119325 seconds

  @TWOEL-I,    6216295 INTEGRALS OF SYMMETRY TYPE  I I I I
  @TWOEL-I,    4867124 INTEGRALS OF SYMMETRY TYPE  I J I J
  @TWOEL-I,    2536975 INTEGRALS OF SYMMETRY TYPE  I I J J
  @TWOEL-I, TOTAL NUMBER OF 2-E INTEGRALS   13620394

Two-electron integrals took 25.518581 seconds

Nuclear repulsion energy: 70.210900297858
--executable xvmol finished with status     0 in       27.49 seconds (walltime).
 --invoking executable--
/project1/nike/cfour_v2.00beta_May2019xnmol_noLABBASIS/bin/xvmol2ja
--executable xvmol2ja finished with status     0 in        0.03 seconds (walltime).
 --invoking executable--
/project1/nike/cfour_v2.00beta_May2019xnmol_noLABBASIS/bin/xvscf
  There are  121 functions in the AO basis.

  There are 2 irreducible representations.

       Irrep        # of functions
         1                 83
         2                 38


  Parameters for SCF calculation: 
        SCF reference function: ROHF  
  Maximum number of iterations: ****
     Full symmetry point group: C s 
     Computational point group: C s 
        Initial density matrix: CORE                   
     SCF convergence tolerance: 10**(-13)
  DIIS convergence acceleration:  ON
          Latest start for DIIS:   5
                     DIIS order:   6

  Memory information:     762781 words required.
  Fock matrices are constructed from AO integral file.
 @GETMEM-I,  Allocated       5 MB of main memory.
  Initialization and symmetry analysis required      0.003 seconds.

  @INITGES-I, Occupancies from core Hamiltonian:

          Alpha population by irrep:  10    2
           Beta population by irrep:   9    2


 total no. of electrons in initial guess :  0.000000000000000E+000
 total no. of electrons in initial guess :  0.000000000000000E+000
  --------------------------------------------------------------------
  Iteration         Total Energy            Largest Density Difference
  --------------------------------------------------------------------
       0            70.210900297858458              0.0000000000D+00
   current occupation vector 
    10  2
     9  2
  processed                6216295  ao basis integrals from 
                 10361  buffers.
  processed                2536975  ao basis integrals from 
                  4229  buffers.
  processed                4867124  ao basis integrals from 
                  8112  buffers.
       1          -163.154595099968446              0.1682679513D+01
   current occupation vector 
    10  2
     9  2
  processed                6216295  ao basis integrals from 
                 10361  buffers.
  processed                2536975  ao basis integrals from 
                  4229  buffers.
  processed                4867124  ao basis integrals from 
                  8112  buffers.
       2          -164.996553476974157              0.7287926394D+01
   current occupation vector 
    10  2
    10  1
  processed                6216295  ao basis integrals from 
                 10361  buffers.
  processed                2536975  ao basis integrals from 
                  4229  buffers.
  processed                4867124  ao basis integrals from 
                  8112  buffers.
       3          -176.503363222124108              0.7479752030D+01
   current occupation vector 
    10  2
     9  2
  processed                6216295  ao basis integrals from 
                 10361  buffers.
  processed                2536975  ao basis integrals from 
                  4229  buffers.
  processed                4867124  ao basis integrals from 
                  8112  buffers.
       4          -166.821002567394260              0.2177869080D+01
   current occupation vector 
    10  2
    10  1
 
 sum over diagonal and offdiagdiagonal of C(T)*S*C for irrep
                     1
  8.377742943821431E-013 -4.588356930817336E-013
 reorthoganalization of MOs is carried out
 sum over diagonal and offdiagdiagonal of C(T)*S*C for irrep
                     1
  2.231548279496565E-014 -3.979102991238530E-014
 
 sum over diagonal and offdiagdiagonal of C(T)*S*C for irrep
                     2
  2.463584891643222E-013  5.171492296519022E-014
 reorthoganalization of MOs is carried out
 sum over diagonal and offdiagdiagonal of C(T)*S*C for irrep
                     2
  3.108624468950438E-015  1.005175732277242E-014
  processed                6216295  ao basis integrals from 
                 10361  buffers.
  processed                2536975  ao basis integrals from 
                  4229  buffers.
  processed                4867124  ao basis integrals from 
                  8112  buffers.
       5          -177.686087445264320              0.2177736269D+01
   current occupation vector 
    10  2
     9  2
  processed                6216295  ao basis integrals from 
                 10361  buffers.
  processed                2536975  ao basis integrals from 
                  4229  buffers.
  processed                4867124  ao basis integrals from 
                  8112  buffers.
       6          -186.950086995136360              0.6125144796D+00
   current occupation vector 
    10  2
     9  2
  processed                6216295  ao basis integrals from 
                 10361  buffers.
  processed                2536975  ao basis integrals from 
                  4229  buffers.
  processed                4867124  ao basis integrals from 
                  8112  buffers.
       7          -188.351446853591654              0.2149552537D+00
   current occupation vector 
    10  2
     9  2
  processed                6216295  ao basis integrals from 
                 10361  buffers.
  processed                2536975  ao basis integrals from 
                  4229  buffers.
  processed                4867124  ao basis integrals from 
                  8112  buffers.
       8          -188.434013938702776              0.4976207816D-01
   current occupation vector 
    10  2
     9  2
  processed                6216295  ao basis integrals from 
                 10361  buffers.
  processed                2536975  ao basis integrals from 
                  4229  buffers.
  processed                4867124  ao basis integrals from 
                  8112  buffers.
       9          -188.472387774641618              0.2662325478D-01
   current occupation vector 
    10  2
     9  2
 
 sum over diagonal and offdiagdiagonal of C(T)*S*C for irrep
                     1
  3.059774655866931E-013  3.442152475147528E-013
 reorthoganalization of MOs is carried out
 sum over diagonal and offdiagdiagonal of C(T)*S*C for irrep
                     1
  1.031397189876770E-013 -4.877268604120853E-013
 
 sum over diagonal and offdiagdiagonal of C(T)*S*C for irrep
                     2
  2.134958876354176E-013  4.347921846913289E-014
 reorthoganalization of MOs is carried out
 sum over diagonal and offdiagdiagonal of C(T)*S*C for irrep
                     2
 -8.881784197001252E-016  2.287469648784178E-016
  processed                6216295  ao basis integrals from 
                 10361  buffers.
  processed                2536975  ao basis integrals from 
                  4229  buffers.
  processed                4867124  ao basis integrals from 
                  8112  buffers.
      10          -188.476868819748347              0.1061379045D-01
   current occupation vector 
    10  2
     9  2
  processed                6216295  ao basis integrals from 
                 10361  buffers.
  processed                2536975  ao basis integrals from 
                  4229  buffers.
  processed                4867124  ao basis integrals from 
                  8112  buffers.
      11          -188.477217269752941              0.3603871413D-02
   current occupation vector 
    10  2
     9  2
  processed                6216295  ao basis integrals from 
                 10361  buffers.
  processed                2536975  ao basis integrals from 
                  4229  buffers.
  processed                4867124  ao basis integrals from 
                  8112  buffers.
      12          -188.477244358765063              0.1363047593D-02
   current occupation vector 
    10  2
     9  2
  processed                6216295  ao basis integrals from 
                 10361  buffers.
  processed                2536975  ao basis integrals from 
                  4229  buffers.
  processed                4867124  ao basis integrals from 
                  8112  buffers.
      13          -188.477249808116710              0.3272058793D-03
   current occupation vector 
    10  2
     9  2
  processed                6216295  ao basis integrals from 
                 10361  buffers.
  processed                2536975  ao basis integrals from 
                  4229  buffers.
  processed                4867124  ao basis integrals from 
                  8112  buffers.
      14          -188.477251456359738              0.2628125919D-03
   current occupation vector 
    10  2
     9  2
 
 sum over diagonal and offdiagdiagonal of C(T)*S*C for irrep
                     1
  3.149702720861569E-013 -4.192415977871483E-013
 reorthoganalization of MOs is carried out
 sum over diagonal and offdiagdiagonal of C(T)*S*C for irrep
                     1
  4.274358644806853E-014 -1.521945859371680E-014
 
 sum over diagonal and offdiagdiagonal of C(T)*S*C for irrep
                     2
  1.820765760385257E-014 -3.027777461123973E-014
 reorthoganalization of MOs is carried out
 sum over diagonal and offdiagdiagonal of C(T)*S*C for irrep
                     2
 -8.881784197001252E-016  1.609419245111518E-015
  processed                6216295  ao basis integrals from 
                 10361  buffers.
  processed                2536975  ao basis integrals from 
                  4229  buffers.
  processed                4867124  ao basis integrals from 
                  8112  buffers.
      15          -188.477251628182614              0.7921830949D-04
   current occupation vector 
    10  2
     9  2
  processed                6216295  ao basis integrals from 
                 10361  buffers.
  processed                2536975  ao basis integrals from 
                  4229  buffers.
  processed                4867124  ao basis integrals from 
                  8112  buffers.
      16          -188.477251660525496              0.4243416089D-04
   current occupation vector 
    10  2
     9  2
  processed                6216295  ao basis integrals from 
                 10361  buffers.
  processed                2536975  ao basis integrals from 
                  4229  buffers.
  processed                4867124  ao basis integrals from 
                  8112  buffers.
      17          -188.477251668005408              0.1948581243D-04
   current occupation vector 
    10  2
     9  2
  processed                6216295  ao basis integrals from 
                 10361  buffers.
  processed                2536975  ao basis integrals from 
                  4229  buffers.
  processed                4867124  ao basis integrals from 
                  8112  buffers.
      18          -188.477251670562396              0.1485577222D-04
   current occupation vector 
    10  2
     9  2
  processed                6216295  ao basis integrals from 
                 10361  buffers.
  processed                2536975  ao basis integrals from 
                  4229  buffers.
  processed                4867124  ao basis integrals from 
                  8112  buffers.
      19          -188.477251670805856              0.4562763040D-05
   current occupation vector 
    10  2
     9  2
 
 sum over diagonal and offdiagdiagonal of C(T)*S*C for irrep
                     1
  4.894973315572315E-013 -1.878772088592891E-013
 reorthoganalization of MOs is carried out
 sum over diagonal and offdiagdiagonal of C(T)*S*C for irrep
                     1
  1.106892355551281E-013 -2.644960696697702E-013
 
 sum over diagonal and offdiagdiagonal of C(T)*S*C for irrep
                     2
  1.221245327087672E-013 -1.611609989950473E-015
 reorthoganalization of MOs is carried out
 sum over diagonal and offdiagdiagonal of C(T)*S*C for irrep
                     2
  2.220446049250313E-016  2.805599702619633E-016
  processed                6216295  ao basis integrals from 
                 10361  buffers.
  processed                2536975  ao basis integrals from 
                  4229  buffers.
  processed                4867124  ao basis integrals from 
                  8112  buffers.
      20          -188.477251670822284              0.1037240547D-05
   current occupation vector 
    10  2
     9  2
  processed                6216295  ao basis integrals from 
                 10361  buffers.
  processed                2536975  ao basis integrals from 
                  4229  buffers.
  processed                4867124  ao basis integrals from 
                  8112  buffers.
      21          -188.477251670825581              0.3633448304D-06
   current occupation vector 
    10  2
     9  2
  processed                6216295  ao basis integrals from 
                 10361  buffers.
  processed                2536975  ao basis integrals from 
                  4229  buffers.
  processed                4867124  ao basis integrals from 
                  8112  buffers.
      22          -188.477251670826888              0.1643472180D-06
   current occupation vector 
    10  2
     9  2
  processed                6216295  ao basis integrals from 
                 10361  buffers.
  processed                2536975  ao basis integrals from 
                  4229  buffers.
  processed                4867124  ao basis integrals from 
                  8112  buffers.
      23          -188.477251670827229              0.4243421659D-07
   current occupation vector 
    10  2
     9  2
  processed                6216295  ao basis integrals from 
                 10361  buffers.
  processed                2536975  ao basis integrals from 
                  4229  buffers.
  processed                4867124  ao basis integrals from 
                  8112  buffers.
      24          -188.477251670826547              0.2060621751D-07
   current occupation vector 
    10  2
     9  2
 
 sum over diagonal and offdiagdiagonal of C(T)*S*C for irrep
                     1
  1.200151089619794E-013  2.406773279124769E-013
 reorthoganalization of MOs is carried out
 sum over diagonal and offdiagdiagonal of C(T)*S*C for irrep
                     1
  1.464384169480581E-013 -2.539467333112413E-013
 
 sum over diagonal and offdiagdiagonal of C(T)*S*C for irrep
                     2
  1.663114090888484E-013  2.388056611215639E-015
 reorthoganalization of MOs is carried out
 sum over diagonal and offdiagdiagonal of C(T)*S*C for irrep
                     2
 -4.551914400963142E-015  8.538298572604241E-015
  processed                6216295  ao basis integrals from 
                 10361  buffers.
  processed                2536975  ao basis integrals from 
                  4229  buffers.
  processed                4867124  ao basis integrals from 
                  8112  buffers.
      25          -188.477251670824444              0.1004613243D-07
   current occupation vector 
    10  2
     9  2
  processed                6216295  ao basis integrals from 
                 10361  buffers.
  processed                2536975  ao basis integrals from 
                  4229  buffers.
  processed                4867124  ao basis integrals from 
                  8112  buffers.
      26          -188.477251670826320              0.8069303087D-08
   current occupation vector 
    10  2
     9  2
  processed                6216295  ao basis integrals from 
                 10361  buffers.
  processed                2536975  ao basis integrals from 
                  4229  buffers.
  processed                4867124  ao basis integrals from 
                  8112  buffers.
      27          -188.477251670827059              0.2870298527D-08
   current occupation vector 
    10  2
     9  2
  processed                6216295  ao basis integrals from 
                 10361  buffers.
  processed                2536975  ao basis integrals from 
                  4229  buffers.
  processed                4867124  ao basis integrals from 
                  8112  buffers.
      28          -188.477251670827116              0.9593683140D-09
   current occupation vector 
    10  2
     9  2
  processed                6216295  ao basis integrals from 
                 10361  buffers.
  processed                2536975  ao basis integrals from 
                  4229  buffers.
  processed                4867124  ao basis integrals from 
                  8112  buffers.
      29          -188.477251670826092              0.3390315528D-09
   current occupation vector 
    10  2
     9  2
 
 sum over diagonal and offdiagdiagonal of C(T)*S*C for irrep
                     1
  5.435651928564766E-013  1.263184063600606E-013
 reorthoganalization of MOs is carried out
 sum over diagonal and offdiagdiagonal of C(T)*S*C for irrep
                     1
  2.176037128265307E-014 -1.607577126950613E-013
 
 sum over diagonal and offdiagdiagonal of C(T)*S*C for irrep
                     2
  7.083222897108499E-014  1.338368274238504E-013
 reorthoganalization of MOs is carried out
 sum over diagonal and offdiagdiagonal of C(T)*S*C for irrep
                     2
 -1.776356839400250E-015  6.746455429829340E-016
  processed                6216295  ao basis integrals from 
                 10361  buffers.
  processed                2536975  ao basis integrals from 
                  4229  buffers.
  processed                4867124  ao basis integrals from 
                  8112  buffers.
      30          -188.477251670825751              0.2439107319D-09
   current occupation vector 
    10  2
     9  2
  processed                6216295  ao basis integrals from 
                 10361  buffers.
  processed                2536975  ao basis integrals from 
                  4229  buffers.
  processed                4867124  ao basis integrals from 
                  8112  buffers.
      31          -188.477251670827854              0.2046028624D-10
   current occupation vector 
    10  2
     9  2
  processed                6216295  ao basis integrals from 
                 10361  buffers.
  processed                2536975  ao basis integrals from 
                  4229  buffers.
  processed                4867124  ao basis integrals from 
                  8112  buffers.
      32          -188.477251670828196              0.8084144465D-11
   current occupation vector 
    10  2
     9  2
  processed                6216295  ao basis integrals from 
                 10361  buffers.
  processed                2536975  ao basis integrals from 
                  4229  buffers.
  processed                4867124  ao basis integrals from 
                  8112  buffers.
      33          -188.477251670828934              0.3911898583D-11
   current occupation vector 
    10  2
     9  2
  processed                6216295  ao basis integrals from 
                 10361  buffers.
  processed                2536975  ao basis integrals from 
                  4229  buffers.
  processed                4867124  ao basis integrals from 
                  8112  buffers.
      34          -188.477251670827513              0.5146133519D-11
   current occupation vector 
    10  2
     9  2
 
 sum over diagonal and offdiagdiagonal of C(T)*S*C for irrep
                     1
  5.176969963827105E-013 -3.414278488613771E-013
 reorthoganalization of MOs is carried out
 sum over diagonal and offdiagdiagonal of C(T)*S*C for irrep
                     1
 -2.486899575160351E-014  4.969183088197031E-013
 
 sum over diagonal and offdiagdiagonal of C(T)*S*C for irrep
                     2
 -2.065014825802791E-014 -8.244020215547224E-014
 reorthoganalization of MOs is carried out
[...]
   Largest T2 amplitudes for spin case AB:
       _       _                 _       _                 _       _
   i   j   a   b             i   j   a   b             i   j   a   b
-----------------------------------------------------------------------------
[  8   7  83  83]-0.05357 [  9   8  83  83]-0.04928 [  9   5  83   9] 0.03482
[  8   5  83   9] 0.02820 [  9   8  83  86]-0.02575 [  9   8  86  83]-0.02573
[  3   3  83  83]-0.02312 [  7   5  15   9]-0.02043 [  9   8  86  86]-0.01907
[  7   5  18   9] 0.01782 [  7   8  15  83] 0.01709 [  7   8  16  83]-0.01685
[  7   5  16   9] 0.01578 [  7   7  83   9]-0.01531 [  8   8  85  83]-0.01528
-----------------------------------------------------------------------------
   Norm of T2AB vector (   445700 symmetry allowed elements):  0.3560378378.
-----------------------------------------------------------------------------
  W(mnij) AA contribution =  0.0085294368 a.u.
  W(mnij) BB contribution =  0.0081686461 a.u.
  W(mnij) AB contribution =  0.0873053542 a.u.
  W(abef) AA contribution =  0.0105474564 a.u.
  W(abef) BB contribution =  0.0104817485 a.u.
  W(abef) AB contribution =  0.1126950440 a.u.
  W(mbej) AA contribution =  -0.0158341635 a.u.
  W(mbej) BB contribution =  -0.0160810274 a.u.
  W(mbej) AB contribution = -0.2640563311 a.u.
   After  26 iterations, amplitude changes are:
    -------------------------------------------------------------------
                 Spin      RMS          Max.      Max. change for
     Amplitude   Case     Change       Change       i    j    a    b
    -------------------------------------------------------------------
        T1        AA    0.0000000000-0.0000000014    8        83
        T1        BB    0.0000000000-0.0000000021    5         9
        T2        AA    0.0000000000-0.0000000001    9    7   83   16
        T2        BB    0.0000000000-0.0000000003    8    6   83    9
        T2        AB    0.0000000000-0.0000000005    7    8   83    9
    -------------------------------------------------------------------
   The AA contribution to the correlation energy is:   -0.0727944 a.u.
   The BB contribution to the correlation energy is:   -0.0611972 a.u.
   The AB contribution to the correlation energy is:   -0.4541769 a.u.
   The total correlation energy is -0.588168464910 a.u.
   The total correlation energy is -0.588168464910 a.u.
  Current DIIS expansion coefficients : 
 [   1] 1.5122539784 [   2] 0.0060100218 [   3] 0.0846298585 [   4]-0.0929955732
 [   5]-0.5098982855
  Convergence information after    26 iterations: 
  Largest element of residual vector : -0.20707424E-08.
  Largest element of DIIS residual   : -0.11647538E-08.
  W(mnij) AA contribution =  0.0085294369 a.u.
  W(mnij) BB contribution =  0.0081686462 a.u.
  W(mnij) AB contribution =  0.0873053540 a.u.
  W(abef) AA contribution =  0.0105474564 a.u.
  W(abef) BB contribution =  0.0104817486 a.u.
  W(abef) AB contribution =  0.1126950437 a.u.
  W(mbej) AA contribution =  -0.0158341636 a.u.
  W(mbej) BB contribution =  -0.0160810275 a.u.
  W(mbej) AB contribution = -0.2640563304 a.u.
   After  27 iterations, amplitude changes are:
    -------------------------------------------------------------------
                 Spin      RMS          Max.      Max. change for
     Amplitude   Case     Change       Change       i    j    a    b
    -------------------------------------------------------------------
        T1        AA    0.0000000000 0.0000000003    9        83
        T1        BB    0.0000000000-0.0000000012    5         9
        T2        AA    0.0000000000 0.0000000000    9    7   83   15
        T2        BB    0.0000000000 0.0000000002    8    5   83    9
        T2        AB    0.0000000000 0.0000000003    8    5   83    9
    -------------------------------------------------------------------
   The AA contribution to the correlation energy is:   -0.0727944 a.u.
   The BB contribution to the correlation energy is:   -0.0611972 a.u.
   The AB contribution to the correlation energy is:   -0.4541769 a.u.
   The total correlation energy is -0.588168465007 a.u.
   The total correlation energy is -0.588168465007 a.u.
  Current DIIS expansion coefficients : 
 [   1] 0.0237545433 [   2] 1.1354092589 [   3] 0.0186900997 [   4]-0.0518340103
 [   5]-0.1260198916
  Convergence information after    27 iterations: 
  Largest element of residual vector : -0.11640713E-08.
  Largest element of DIIS residual   :  0.86601660E-09.
  W(mnij) AA contribution =  0.0085294369 a.u.
  W(mnij) BB contribution =  0.0081686462 a.u.
  W(mnij) AB contribution =  0.0873053540 a.u.
  W(abef) AA contribution =  0.0105474564 a.u.
  W(abef) BB contribution =  0.0104817486 a.u.
  W(abef) AB contribution =  0.1126950438 a.u.
  W(mbej) AA contribution =  -0.0158341637 a.u.
  W(mbej) BB contribution =  -0.0160810276 a.u.
  W(mbej) AB contribution = -0.2640563305 a.u.
   After  28 iterations, amplitude changes are:
    -------------------------------------------------------------------
                 Spin      RMS          Max.      Max. change for
     Amplitude   Case     Change       Change       i    j    a    b
    -------------------------------------------------------------------
        T1        AA    0.0000000000-0.0000000003    8        83
        T1        BB    0.0000000000-0.0000000007    5         9
        T2        AA    0.0000000000 0.0000000000    9    7   83   10
        T2        BB    0.0000000000 0.0000000001    7    5   83    9
        T2        AB    0.0000000000 0.0000000003    8    5   83    9
    -------------------------------------------------------------------
   The AA contribution to the correlation energy is:   -0.0727944 a.u.
   The BB contribution to the correlation energy is:   -0.0611972 a.u.
   The AB contribution to the correlation energy is:   -0.4541769 a.u.
   The total correlation energy is -0.588168465000 a.u.
   The total correlation energy is -0.588168465000 a.u.
  Current DIIS expansion coefficients : 
 [   1]-0.2529483507 [   2]-0.3660227497 [   3] 1.5269613146 [   4] 0.0002360142
 [   5] 0.0917737716
  Convergence information after    28 iterations: 
  Largest element of residual vector : -0.70834685E-09.
  Largest element of DIIS residual   : -0.36816827E-09.
  Amplitude equations converged in    28iterations.
   The AA contribution to the correlation energy is:   -0.0727944 a.u.
   The BB contribution to the correlation energy is:   -0.0611972 a.u.
   The AB contribution to the correlation energy is:   -0.4541769 a.u.
   The total correlation energy is -0.588168465047 a.u.
   The total correlation energy is -0.588168465047 a.u.
   The CC iterations have converged.

            ----------------------------------------------
                     Projected spin multiplicities: 
            ----------------------------------------------
             <0|S^2|0>                  =    0.7500000000.
             <0|S^2 (T2+T1**2) |0>      =    0.0000000000.
             <0|S^2 T1|0>               =    0.0000000001.
             Projected <0|S^2 exp(T)|0> =    0.7500000001.
             Approximate spin mult.     =    2.0000000001.
            ----------------------------------------------
   Largest T1 amplitudes for spin case AA:
   i       a                 i       a                 i       a    
-----------------------------------------------------------------------------
[  8      83    ]-0.04613 [  9      83    ] 0.03329 [  7      15    ] 0.01581
[  7      13    ] 0.01445 [  8      84    ] 0.01405 [  7      16    ]-0.01148
[  7      18    ]-0.01083 [  7      12    ]-0.01074 [  7      10    ] 0.01064
[  7      21    ]-0.01039 [  1      30    ] 0.01028 [  6      10    ]-0.00764
[  9      96    ] 0.00758 [  1      20    ] 0.00724 [  8      91    ] 0.00707
-----------------------------------------------------------------------------
   Norm of T1AA vector (      583 symmetry allowed elements):  0.0794695140.
-----------------------------------------------------------------------------
   Largest T2 amplitudes for spin case AA:
   i   j   a   b             i   j   a   b             i   j   a   b
-----------------------------------------------------------------------------
[  9   7  83  15] 0.01528 [  9   7  83  16]-0.01502 [  8   5  83  20] 0.01233
[  9   6  83  20] 0.00977 [  9   7  83  21]-0.00976 [  8   4  83  15]-0.00917
[  9   5  83  15] 0.00840 [  9   7  86  16]-0.00815 [  8   4  83  21] 0.00784
[  8   5  83  27] 0.00761 [  9   7  83  10] 0.00756 [  8   5  83  17]-0.00752
[  9   7  83  13] 0.00737 [  8   7  83  28] 0.00732 [  8   5  83  18] 0.00713
-----------------------------------------------------------------------------
   Norm of T2AA vector (   108468 symmetry allowed elements):  0.1247134856.
-----------------------------------------------------------------------------
   Largest T1 amplitudes for spin case BB:
   i       a                 i       a                 i       a    
-----------------------------------------------------------------------------
[  5       9    ]-0.11985 [  7      83    ]-0.08134 [  6       9    ]-0.02817
[  7      84    ] 0.01902 [  3       9    ]-0.01309 [  7      86    ]-0.01161
[  5      10    ] 0.01076 [  7      91    ] 0.00866 [  4       9    ] 0.00819
[  4      17    ]-0.00808 [  5      12    ]-0.00737 [  5      14    ] 0.00730
[  6      10    ]-0.00696 [  6      16    ] 0.00669 [  5      13    ] 0.00658
-----------------------------------------------------------------------------
   Norm of T1BB vector (      516 symmetry allowed elements):  0.1558894572.
-----------------------------------------------------------------------------
   Largest T2 amplitudes for spin case BB:
   i   j   a   b             i   j   a   b             i   j   a   b
-----------------------------------------------------------------------------
[  8   5  83   9] 0.03414 [  7   5  83   9] 0.02426 [  6   5  20   9]-0.01424
[  7   4  83  20] 0.01337 [  8   5  86   9] 0.01250 [  8   6  83   9] 0.01229
[  8   6  83  20] 0.01174 [  7   5  83  22] 0.01079 [  8   5  83  16]-0.00950
[  7   3  83   9] 0.00893 [  7   4  83  27] 0.00882 [  7   5  83  15]-0.00875
[  7   5  83  16] 0.00847 [  5   4  17   9]-0.00831 [  8   6  83  16]-0.00827
-----------------------------------------------------------------------------
   Norm of T2BB vector (    85264 symmetry allowed elements):  0.1278882807.
-----------------------------------------------------------------------------
   Largest T2 amplitudes for spin case AB:
       _       _                 _       _                 _       _
   i   j   a   b             i   j   a   b             i   j   a   b
-----------------------------------------------------------------------------
[  8   7  83  83]-0.05357 [  9   8  83  83]-0.04928 [  9   5  83   9] 0.03482
[  8   5  83   9] 0.02820 [  9   8  83  86]-0.02575 [  9   8  86  83]-0.02573
[  3   3  83  83]-0.02312 [  7   5  15   9]-0.02043 [  9   8  86  86]-0.01907
[  7   5  18   9] 0.01782 [  7   8  15  83] 0.01709 [  7   8  16  83]-0.01685
[  7   5  16   9] 0.01578 [  7   7  83   9]-0.01531 [  8   8  85  83]-0.01528
-----------------------------------------------------------------------------
   Norm of T2AB vector (   445700 symmetry allowed elements):  0.3560378378.
-----------------------------------------------------------------------------
       Summary of iterative solution of CC equations 
      -----------------------------------------------------------
                       Correlation           Total
       Iteration         Energy              Energy
      -----------------------------------------------------------
            0        -0.566476197908    -189.043727868735  DIIS 
            1        -0.566610693025    -189.043862363852  DIIS 
            2        -0.583875324151    -189.061126994977  DIIS 
            3        -0.583634180135    -189.060885850962  DIIS 
            4        -0.586573602759    -189.063825273586  DIIS 
            5        -0.587779948520    -189.065031619347  DIIS 
            6        -0.588027027413    -189.065278698239  DIIS 
            7        -0.588128139229    -189.065379810056  DIIS 
            8        -0.588139709997    -189.065391380823  DIIS 
            9        -0.588153680953    -189.065405351779  DIIS 
           10        -0.588158362503    -189.065410033329  DIIS 
           11        -0.588162868459    -189.065414539286  DIIS 
           12        -0.588164286365    -189.065415957191  DIIS 
           13        -0.588165842235    -189.065417513062  DIIS 
           14        -0.588166370673    -189.065418041500  DIIS 
           15        -0.588167597589    -189.065419268416  DIIS 
           16        -0.588168055929    -189.065419726755  DIIS 
           17        -0.588168277615    -189.065419948441  DIIS 
           18        -0.588168493876    -189.065420164703  DIIS 
           19        -0.588168463967    -189.065420134794  DIIS 
           20        -0.588168478109    -189.065420148935  DIIS 
           21        -0.588168465630    -189.065420136457  DIIS 
           22        -0.588168470880    -189.065420141707  DIIS 
           23        -0.588168466744    -189.065420137571  DIIS 
           24        -0.588168465287    -189.065420136113  DIIS 
           25        -0.588168465299    -189.065420136126  DIIS 
           26        -0.588168464910    -189.065420135737  DIIS 
           27        -0.588168465007    -189.065420135833  DIIS 
           28        -0.588168465047    -189.065420135873  DIIS 
      -----------------------------------------------------------
      A miracle has come to pass. The CC iterations have converged.
 @DIMT3-I, Dimensions of T3 amplitudes : 
               # abc          # ijk       Symmetry    Spin 
                   108186             42     1          1
                   101748             42     2          1
                   335700            160     1          2
                   311760            128     2          2
                   339067            136     1          3
                   314388            116     2          3
                   111444             26     1          4
                   104376             30     2          4
 @DIMT3-I, Dimensions of T3 amplitudes : 
               # abc          # ijk       Symmetry    Spin 
                   108186             42     1          1
                   101748             42     2          1
                   335700            160     1          2
                   311760            128     2          2
                   339067            136     1          3
                   314388            116     2          3
                   111444             26     1          4
                   104376             30     2          4
 @TRPS-I, Welcome to TRPS. Watch your RUs ! 
 @TRPS-I, Method is CCSD(T) 
 @TRPS-I, Calculation type is energy 
 @TRPS-I, Reference function information : 
          Reference function is general non-HF 
 @TRPS-I, Reference function is ROHF 
 @TRPS-I, INT1 is true 
 @TRPS-I, INT2 is false 
 @TRPS-I, Lengths of ijka integrals. #1      18398
                                     #2      12624
                                     #3      32872
                                     #4      37540
                                    Max      37540
 @INITRP-I, Initializing W intermediate lists. 
 @TSPABCI-I, AbIc/AbcI record transposition. 
 @TSPABCI-I, (O,v) ---> (v,O) transposition. 
 @TSPABCI-I, In-core algorithm is being used. 
 @TSPABCI-I, In-core algorithm is being used. 
 @TRPS-I, Available memory in integer words    249959040
          Number of pre-allocated words for TRPS14       112838
          Number of free words for TRPS14    249846202
 @TRPS14-I, Spin case AAA 
 @TRPS14-I, Number of free integer words  249846202
            Number of free double words   249846202
            Ratio                                 1
 @TRPS14-I, E4TAAA      -0.000692071183
 @TRPS14-I, E5ST A    0.000045620426844
 @TRPS14-I, E4ST A   -0.000005575516726
 @TRPS-I, Available memory in integer words    249959040
          Number of pre-allocated words for TRPS14       112830
          Number of free words for TRPS14    249846210
 @TRPS14-I, Spin case BBB 
 @TRPS14-I, Number of free integer words  249846210
            Number of free double words   249846210
            Ratio                                 1
 @TRPS14-I, E4TBBB      -0.000750120503
 @TRPS14-I, E5ST B    0.000119417066305
 @TRPS14-I, E4ST B    0.000003989433710
 @SETOOOV-I, Some OOOV lists are being transposed. 
 @TRPS-I, Available memory in integer words    249959040
          Number of pre-allocated words for TRPS2       264378
          Number of free words for TRPS2    249694662
 @TRPS2-I, Spin case AAB 
 @TRPS2-I, Number of free integer words  249694662
           Number of free double  words  249694662
           Ratio                                 1
 @TRPS2-I, E4TBAA      -0.012546980949
 @TRPS2-I, E5ST A    0.000423040706583
 @TRPS2-I, E5ST B    0.000705590323836
 @TRPS2-I, E4ST A   -0.000044272792213
 @TRPS2-I, E4ST B    0.000012439667677
 @SETOOOV-I, Some OOOV lists are being transposed. 
 @TSPABCI2-I, (Alpha,Beta) ---> (Beta,Alpha). 
 @TSPABCI2-I, In-core algorithm is being used. 
 @TSPABCI2-I, In-core algorithm is being used. 
 @TSPABCI2-I, In-core algorithm is being used. 
 @TSPABCI2-I, In-core algorithm is being used. 
 @AT2IAB-I, Some AbIj lists are being altered. 
 @TRPS-I, Available memory in integer words    249959040
          Number of pre-allocated words for TRPS3       716168
          Number of free words for TRPS3    249242872
 @TRPS3-I, Spin case BBA 
 @TRPS3-I, Number of free integer words  249242872
           Number of free double  words  249242872
           Ratio                                 1
 @TRPS3-I, E4TBBA      -0.012027191348
 @TRPS3-I, E5ST A    0.000631194398259
 @TRPS3-I, E5ST B    0.001720059668863
 @TRPS3-I, E4ST A   -0.000053773895588
 @TRPS3-I, E4ST B    0.000050196516528
 @TSPABCI2-I, (Beta,Alpha) ---> (Alpha,Beta). 
 @TSPABCI2-I, In-core algorithm is being used. 
 @TSPABCI2-I, In-core algorithm is being used. 
 @TSPABCI2-I, In-core algorithm is being used. 
 @TSPABCI2-I, In-core algorithm is being used. 
 @AT2IAB-I, Some AbIj lists are being altered. 
 @TSPABCI-I, AbIc/AbcI record transposition. 
 @TSPABCI-I, (v,O) ---> (O,v) transposition. 
 @TSPABCI-I, In-core algorithm is being used. 
 @TSPABCI-I, In-core algorithm is being used. 
 @CCENRG-I, CCSD/QCISD energy will now be evaluated. 
 @CCENRG-I, Correlation energies. ECCAA       -0.072794399885
                                  ECCBB       -0.061197209128
                                  ECCAB       -0.454176856033
                                  Total       -0.588168465047
 @CCENRG-I, Reference   energy    -188.477251670826
            CCSD/QCISD energy     -189.065420135873
          E4T (T(CCSD)) = -0.026016363983
          E5ST          =  0.002351254067
          E4ST          = -0.000003577379
          In other words  
          <T3[2](Dagger) D3  T3[2]> = -0.026016363983
          <T1   (Dagger) Q1 WT3[2]> =  0.002351254067
          <T2   (Dagger) Q2 FT3[2]> = -0.000003577379
        E(CCSD)           =    -189.065420135873
        E(CCSD(T))        =    -189.089088823168
  @CHECKOUT-I, Total execution time (CPU/WALL):     1324.39/    1387.13 seconds.
--executable xvcc finished with status     0 in     1388.11 seconds (walltime).
  The final electronic energy is      -189.089088823168169 a.u. 
  This computation required                         1714.14 seconds (walltime).
--- SharcNET Job Epilogue ---
Job completed successfully.
               jobid: 1967874
               resid: 3435181
         exit status: 0
      allocated time: 1715.21
           user time: 1547.75
         system time: 80.65
peak rss=2147483648; peak vsz=2147483648 (bytes)
atime=1715.21; utime=1547.75; stime=80.65; exit=0
