 --invoking executable--
/project1/nike/cfour_v2.00beta_May2019xnmol_noLABBASIS/bin/xjoda


   *************************************************************************
         <<<     CCCCCC     CCCCCC   |||     CCCCCC     CCCCCC   >>>
       <<<      CCC        CCC       |||    CCC        CCC         >>>
      <<<      CCC        CCC        |||   CCC        CCC            >>>
    <<<        CCC        CCC        |||   CCC        CCC              >>>
      <<<      CCC        CCC        |||   CCC        CCC            >>>
       <<<      CCC        CCC       |||    CCC        CCC         >>>
         <<<     CCCCCC     CCCCCC   |||     CCCCCC     CCCCCC   >>>
   *************************************************************************

     ****************************************************************
     * CFOUR Coupled-Cluster techniques for Computational Chemistry *
     ****************************************************************
 

   Department of Chemistry                Institut fuer Physikalische Chemie
   University of Texas at Austin          Universitaet Mainz
   Austin, TX  78712, USA                 D-55099 Mainz, Germany
 
                       Version 2.00beta
 
                     wob103                                            
                     Tue Mar 10 00:10:07 EDT 2020                      
                     integer*8 version is running
 
********************************************************************************
*                          Input from ZMAT file                                *
********************************************************************************
TITLE                                                                           
C -0.722791 -0.007039 0.000000                                                  
O 0.701687 0.011691 0.000000                                                    
H -1.022488 -1.059189 0.000000                                                  
H -1.162308 0.455180 -0.888335                                                  
H -1.148266 0.468270 0.888264                                                   
H 0.990233 0.911667 0.000000                                                    
                                                                                
*ACES2(CALC=CCSD(T)                                                             
#UNITS=BOHR                                                                     
#GEOM=2.6729874*10/5.29177210903_Pentasilane_def2-QZVP_pbe                      
COORD=CARTESIAN                                                                 
#COORD=INTERNAL                                                                 
PRINT=4                                                                         
JODA_PRINT=4                                                                    
INPUT_MRCC=OFF                                                                  
#CC_PROG=MRCC                                                                   
#FROZEN_CORE=ON                                                                 
DROPMO=1>2                                                                      
CONTRACTION=GENERAL                                                             
#CONTRACTION=SEGMENTED                                                          
RELATIVISTIC=OFF                                                                
#EXCITE=EOMEE                                                                   
#ESTATE_CONV=5                                                                  
#ESTATE_SYM=2/2/2/2/2/2/2/2                                                     
XFORM_TOL=18                                                                    
SAVE_INTS=ON                                                                    
SCF_EXPORDER=6                                                                  
SCF_EXPSTART=5                                                                  
#SCF_DAMPING=1000                                                               
SCF_EXTRAPOLATION=ON                                                            
SCF_CONV=12                                                                     
SCF_MAXCYC=99999                                                                
CC_CONV=9                                                                       
CC_MAXCYC=999                                                                   
T3_EXTRAPOL=ON                                                                  
REFERENCE=ROHF                                                                  
#SYMMETRY=OFF                                                                   
#HFSTABILITY=FOLLOW                                                             
CHARGE=+1                                                                       
MULT=2                                                                          
ABCDTYPE=STANDARD                                                               
#OCCUPATION=3-2-2-0-1-0-0-0/3-1-1-0-1-0-0-0                                     
MEM=4                                                                           
MEM_UNIT=GB                                                                     
BASIS=SPECIAL)                                                                  
                                                                                
C:def2-TZVPP                                                                    
O:def2-TZVPP                                                                    
H:def2-TZVPP                                                                    
H:def2-TZVPP                                                                    
H:def2-TZVPP                                                                    
H:def2-TZVPP                                                                    
                                                                                
********************************************************************************
  @GTFLGS-W, Keyword #UNITS not known and is ignored.
  @GTFLGS-W, Keyword #GEOM not known and is ignored.
  @GTFLGS-W, Keyword #COORD not known and is ignored.
  @GTFLGS-W, Keyword #CC_PROG not known and is ignored.
  @GTFLGS-W, Keyword #FROZEN_CORE not known and is ignored.
  @GTFLGS-W, Keyword #CONTRACTION not known and is ignored.
  @GTFLGS-W, Keyword #EXCITE not known and is ignored.
  @GTFLGS-W, Keyword #ESTATE_CONV not known and is ignored.
  @GTFLGS-W, Keyword #ESTATE_SYM not known and is ignored.
  @GTFLGS-W, Keyword #SCF_DAMPING not known and is ignored.
  @GTFLGS-W, Keyword #SYMMETRY not known and is ignored.
  @GTFLGS-W, Keyword #HFSTABILITY not known and is ignored.
  @GTFLGS-W, Keyword #OCCUPATION not known and is ignored.
    -------------------------------------------------------------------
                    CFOUR Control Parameters 
    -------------------------------------------------------------------
        External           Internal           Value            Units
          Name               Name
    -------------------------------------------------------------------
       ABCDTYPE             IABCDT         STANDARD     [  0]   ***   
       ANHARMONIC           IANHAR         OFF          [  0]   ***   
       ANH_ALGORIT          IANALG         STANDARD     [  0]   ***   
       ANH_DERIVAT          IANDER         SECOND       [  1]   ***   
       ANH_STEPSIZ          ICUBST             50000          x 10-6  
       ANH_SYMMETR          IANHSM         ABELIAN      [  0]   ***   
       AO_LADDERS           IAOLAD         SINGLEPASS   [  1]   ***   
       BASIS                IBASIS         SPECIAL      [  0]   ***   
       BREIT                IBREIT         OFF          [  0]   ***   
       BRUCK_CONV           IBRTOL          10D-  4             ***   
       BRUECKNER            IBRKNR             OFF      [  0]   ***   
       BUFFERSIZE           IBUFFS            600               ***   
       CACHE_RECS           ICHREC             10               ***   
       CALCLEVEL            ICLLVL           CCSD(T)    [ 22]   ***   
       CCORBOPT             ICCORB             OFF      [  0] x 0.01  
       CC_CONV              ICCCNV          10D-  9             ***   
       CC_EXPORDER          ICCEOR              5               ***   
       CC_EXTRAPOL          ICCEXT             DIIS     [  1]   ***   
       CC_MAXCYC            ICCCYC            999              cycles 
       CC_PROGRAM           ICCPRO         VCC          [  0]   ***   
       CHARGE               ICHRGE              1               ***   
       CHOLESKY             ICHOLE         OFF          [  0]   ***   
       CIS_CONV             ICISTL              5               ***   
       COMM_SIZE            IPSIZE            ***               ***   
       CONSTANT             ICONST         OLD          [  1]   ***   
       CONTINUUM            ICONTU         NONE         [  0]   ***   
       CONTRACTION          ICNTYP          GENERAL     [  1]   ***   
       COORDINATES          ICOORD         CARTESIAN    [  1]   ***   
       CPHF_CONVER          ICPHFT          10D- 16             ***   
       CPHF_MAXCYC          ICPHFC             64              cycles 
       CUBIC                ICUBIC         OFF          [  0]   ***   
       CURVILINEAR          ICURVY            OFF       [  0]   ***   
       DBOC                 IDBOC          OFF          [  0]   ***   
       DCT                  IDCT           OFF          [  0]   ***   
       DERIV_LEV            IDRLVL            ZERO      [  0]   ***   
       DIAG_MRCC            IEOMST          10D-  0             ***   
       DIFF_TYPE            IDIFTY         RELAXED      [  0]   ***   
       DIRECT               IDIRCT         OFF          [  0]   ***   
       DROPMO               IDRPMO A   1,  2,
                                   B   1,  2,
       ECP                  IECP           OFF          [  0]   ***   
       EIGENVECTOR          IVEC                1               ***   
       EL_ANHARM            IELANH         OFF          [  0]   ***   
       EOMFOLLOW            IEOMSR         ENERGY       [  0]   ***   
       EOM_MRCC             IMRCCE         NEW          [  1]   ***   
       EOM_NONIT            EOMNON         OFF          [  0]   ***   
       EOM_NSING            IEOMSI          10D-  0             ***   
       EOM_NSTATES          IMRCCD         DAVIDSON     [  0]   ***   
       EOM_NTRIP            IEOMTR          10D-  0             ***   
       EOM_ORDER            IEXORD         ENERGY       [  0]   ***   
       ESTATE_CONV          IEXTOL          10D-  5             ***   
       ESTATE_DIAG          IEXDIG         ITERATIVE    [  0]   ***   
       ESTATE_LOCK          IESLOC         ON           [  1]   ***   
       ESTATE_MAXC          IEXMXC             20               ***   
       ESTATE_PROP          IEXPRP         OFF          [  0]   ***   
       EVAL_HESS            IRECAL              0            # of cyc.
       EXCITATION           IEXCIT              0               ***   
       EXCITE               IEXCIT         NONE         [  0]   ***   
       FCGRADNEW            IFCGNW         OFF          [  0]   ***   
       FC_FIELD             IFINFC              0             x 10-6  
       FD_CALTYPE           IFDCAL         GRADONLY     [  0]   ***   
       FD_PROJECT           IFDPRJ         OFF          [  1]   ***   
       FD_STEPSIZE          IDISFD              0            10-4 bohr
       FD_USEGROUP          IFDGRP         FULL         [  0]   ***   
       FILE_RECSIZ          IFLREC              4096           words  
       FINITE_PERT          IFIPER              0             x 10-6  
       FIXGEOM              IFIXGM         OFF          [  0]   ***   
       FOCK                 IFOCK          AO           [  1]   ***   
       FREQ_ALGORI          IVIALG         STANDARD     [  0]   ***   
       FROZEN_CORE          IFROCO         OFF          [  0]   ***   
       FROZEN_VIRT          IFROVI         OFF          [  0]   ***   
       GAMMA_ABCD           IGABCD         STORE        [  0]   ***   
       GAMMA_ABCI           IGABCI         STORE        [  0]   ***   
       GENBAS_1             IGNBS1              0               ***   
       GENBAS_2             IGNBS2              0               ***   
       GENBAS_3             IGNBS3              0               ***   
       GENBAS_4             IGNBS4              0               ***   
       GEO_CONV             ICONTL              5              H/bohr 
       GEO_MAXCYC           IOPTCY             50               ***   
       GEO_MAXSTEP          IMXSTP            300            millibohr
       GEO_METHOD           INR            SINGLE_POINT [  5]   ***   
       GIAO                 IGIAO          OFF          [  1]   ***   
       GIMIC                IGIMIC         OFF          [  0]   ***   
       GRID                 IGRID          OFF          [  0]   ***   
       GRID_ALGO            IGALGO         SERIAL       [  0]   ***   
       GUESS                IGUESS            MOREAD    [  0]   ***   
       HBAR                 IHBAR              OFF      [  0]   ***   
       HESS_TYPE            IHESTP         SCF          [  0]   ***   
       HF2_FILE             IHF2Fl         USE          [  1]   ***   
       HFSTABILITY          ISTABL         OFF          [  0]   ***   
       INCORE               INCORE             OFF      [  0]   ***   
       INPUT_MRCC           IMRCC          OFF          [  0]   ***   
       INTEGRALS            INTTYP             VMOL     [  1]   ***   
       JODA_PRINT           IJPRNT              4               ***   
       LINDEP_TOL           ILINDP              8               ***   
       LINEQ_CONV           IZTACN          10D-  7           cycles  
       LINEQ_EXPOR          ILMAXD              5               ***   
       LINEQ_MAXCY          ILMAXC             50               ***   
       LINEQ_TYPE           ILTYPE         DIIS         [  1]   ***   
       LOCK_ORBOCC          ILOCOC             OFF      [  0]   ***   
       MEMORY_SIZE          IMEMSZ         500000000           words  
       MEM_UNIT             IMEMU          GB           [  3]   ***   
       MRCC                 IMRCCC         OFF          [  0]   ***   
       MULTIPLICTY          IMULTP              2               ***   
       NEGEVAL              IDIE             ABORT      [  0]   ***   
       NEWNORM              INEWNO         OFF          [  0]   ***   
       NON-HF               INONHF              ON      [  1]   ***   
       NTOP_TAMP            ITOPT2             15               ***   
       NUC_MODEL            INUCMO         POINT        [  0]   ***   
       OCCUPATION           IOCCU   ESTIMATED BY SCF 
       OPEN-SHELL           IOPEN          SPIN-ORBITAL [  0]   ***   
       ORBITALS             IORBTP         SEMICANONICAL[  1]   ***   
       PARALLEL             IPARAL         ON           [  1]   ***   
       PARA_INT             IPINTS         ON           [  1]   ***   
       PARA_PRINT           IPPRIN              0               ***   
       PERT_ORB             IPTORB         STANDARD     [  0]   ***   
       POINTS               IGRDFD              0               ***   
       PRINT                IPRNT               4               ***   
       PROPS                IPROPS             OFF      [  0]   ***   
       PROP_INTEGR          IINTYP         INTERNAL     [  0]   ***   
       PSI                  IPSI           OFF          [  0]   ***   
       QUARTIC              IQUART         OFF          [  0]   ***   
       RAMAN_INT            IRAMIN         OFF          [  0]   ***   
       RAMAN_ORB            IRAMRE         UNRELAXED    [  0]   ***   
       RDO                  IRDOFM             OFF      [  0]   ***   
       REFERENCE            IREFNC             ROHF     [  2]   ***   
       RELATIVIST           IRELAT         OFF          [  0]   ***   
       RELAX_DENS           IRDENS             OFF      [  0]   ***   
       RESET_FLAGS          IRESET             OFF      [  0]   ***   
       RESTART_CC           ICCRES         OFF          [  0]   ***   
       ROT_EVEC             ROTVEC              0               ***   
       SAVE_INTS            ISVINT              ON      [  1]   ***   
       SCALE_ON             ISTCRT              0               ***   
       SCF_CONV             ISCFCV          10D- 12             ***   
       SCF_DAMPING          IDAMP               0             x 10-3  
       SCF_EXPORDE          IRPPOR              6               ***   
       SCF_EXPSTAR          IRPPLS              5               ***   
       SCF_EXTRAPO          IRPP                ON      [  1]   ***   
       SCF_MAXCYC           ISCFCY            ***              cycles 
       SCF_NOSTOP           ISCFST         OFF          [  0]   ***   
       SCF_PRINT            ISCFPR              0               ***   
       SD_FIELD             IFINSD              0             x 10-6  
       SEQUENCE             ISEQUE         OFF          [  0]   ***   
       SOPERT               IPERSO         OFF          [  0]   ***   
       SPHERICAL            IDFGHI             ON       [  1]   ***   
       SPINORBIT            ISOCAL         OFF          [  0]   ***   
       SPINROTATIO          ISRCON         OFF          [  0]   ***   
       SPIN_FLIP            ISPFLP         OFF          [  0]   ***   
       SPIN_ORBIT           ISPORB         OFF          [  0]   ***   
       SPIN_SCAL            ISCSMP         OFF          [  0]   ***   
       SUBGROUP             ISUBGP         DEFAULT      [  0]   ***   
       SUBGRPAXIS           ISBXYZ         X            [  0]   ***   
       SYMMETRY             ISYM             ON         [  0]   ***   
       SYM_CHECK            ISYMCK         OVERRIDE     [  1]   ***   
       T3_EXTRAPOL          IT3EXT         ON           [  1]   ***   
       TAMP_SUM             IEVERY              5               ***   
       TESTSUITE            ITESTS         OFF          [  0]   ***   
       THERMOCH             ITHERM         OFF          [  0]   ***   
       TOL_CHOLESK          ITOLCH          10D-  4             ***   
       TRANGRAD             IRESRM         OFF          [  0]   ***   
       TRANS_INV            ITRAIN         USE          [  0]   ***   
       TREAT_PERT           ITREAT         SIMULTANEOUS [  0]   ***   
       UIJ_THRESHO          IUIJTH              1               ***   
       UNITS                IUNITS         ANGSTROM     [  0]   ***   
       UNOS                 IUNOS          OFF          [  0]   ***   
       UPDATE_HESS          IHUPDT         ON           [  1]   ***   
       VIBPHASE             ISETPH         STANDARD     [  0]   ***   
       VIBRATION            IVIB              NO        [  0]   ***   
       VIB_ALGORIT          IGEALG         STANDARD     [  0]   ***   
       VNATORB              IVNORB         OFF          [  0]   ***   
       VTRAN                IVTRAN         FULL/PARTIAL [  0]   ***   
       XFIELD               IXEFLD              0             x 10-6  
       XFORM_TOL            IXFTOL          10D- 18             ***   
       YFIELD               IYEFLD              0             x 10-6  
       ZFIELD               IZEFLD              0             x 10-6  
    -------------------------------------------------------------------
  @GETXYZ-I,     6 atoms read from ZMAT.
  1  C          6    12.00000
  2  O          8    15.99491
  3  H          1     1.00783
  4  H          1     1.00783
  5  H          1     1.00783
  6  H          1     1.00783
  1  C          6    12.00000
  2  O          8    15.99491
  3  H          1     1.00783
  4  H          1     1.00783
  5  H          1     1.00783
  6  H          1     1.00783
   12.0000000000
   15.9949146300
    1.0078250350
    1.0078250350
    1.0078250350
    1.0078250350
 After translation to center of mass coordinates 
       -1.377015808313   -0.065493916645    0.000004222181
        1.314858046394   -0.030099338913    0.000004222181
       -1.943361177378   -2.053769675365    0.000004222181
       -2.207582739498    0.807973586012   -1.678705986556
       -2.181047199694    0.832710106167    1.678580260335
        1.860131075027    1.670609176252    0.000004222181
  Inertia tensor (amu*bohr**2)
   14.16626   -3.97551   -0.04519
   -3.97551   73.08581   -0.04174
   -0.04519   -0.04174   75.89250
    Inertia tensor:
       14.166260808603   -3.975512314754   -0.045188973747
       -3.975512314754   73.085805010328   -0.041737787551
       -0.045188973747   -0.041737787551   75.892495986231
    Principal axis orientation for molecular system: 
       -1.378308794837    0.026952197013    0.000659265839
        1.309884277404   -0.118153335164    0.000788408269
       -2.076632198300   -1.918664688624    0.030774515671
       -2.149766206404    0.928505785147   -1.691354167960
       -2.119039307184    1.002434346492    1.665173412644
        1.967910362397    1.541988532015   -0.024956137060
    Diagonalized inertia tensor:
       13.899192017800    0.000000000000    0.000000000000
        0.000000000000   73.352249811453    0.000000000000
        0.000000000000    0.000000000000   75.893119975909
    Eigenvectors of inertia tensor: 
        0.997751425712   -0.067022615266    0.000248059283
        0.067018623272    0.997635677404   -0.015217072846
        0.000772415228    0.015199480719    0.999884182873
 factor:   60.1997200000000     
   Rotational constants (in cm-1): 
          0.7932170929             0.8206935732             4.3311668709
   Rotational constants (in MHz): 
      23780.0535329537         24603.7778043478        129845.1344149143
  @SYMMETRY-I, Handedness of inertial frame: 1.00000
  @SYMMETRY-I, The symmetry group is 1-fold degenerate.
  @SYMMETRY-I, The molecule belongs to an Abelian group.
   Principal axis orientation for molecule:
       -1.378308794837    0.026952197013    0.000659265839
        1.309884277404   -0.118153335164    0.000788408269
       -2.076632198300   -1.918664688624    0.030774515671
       -2.149766206404    0.928505785147   -1.691354167960
       -2.119039307184    1.002434346492    1.665173412644
        1.967910362397    1.541988532015   -0.024956137060
  Symmetry bits:    0   0   0
********************************************************************************
   The full molecular point group is C1  .
   The largest Abelian subgroup of the full molecular point group is C1  .
   The computational point group is C1  .
********************************************************************************
 ----------------------------------------------------------------
 Z-matrix   Atomic            Coordinates (in bohr)
  Symbol    Number           X              Y              Z
 ----------------------------------------------------------------
     C         6        -1.37830879     0.02695220     0.00065927
     O         8         1.30988428    -0.11815334     0.00078841
     H         1        -2.07663220    -1.91866469     0.03077452
     H         1        -2.14976621     0.92850579    -1.69135417
     H         1        -2.11903931     1.00243435     1.66517341
     H         1         1.96791036     1.54198853    -0.02495614
 ----------------------------------------------------------------
   Interatomic distance matrix (Angstroms) 
 
                 C             O             H             H             H    
                [ 1]        [ 2]        [ 3]        [ 4]        [ 5]
  C    [ 1]     0.00000
  O    [ 2]     1.42460     0.00000
  H    [ 3]     1.09400     2.02967     0.00000
  H    [ 4]     1.09360     2.11194     1.76125     0.00000
  H    [ 5]     1.09360     2.10233     1.77143     1.77670     0.00000
  H    [ 6]     1.94383     0.94510     2.81697     2.37296     2.35771
 
                 H    
                [ 6]
  H    [ 6]     0.00000
  Inertia tensor (amu*bohr**2)
   13.89919    0.00000    0.00000
    0.00000   73.35225    0.00000
    0.00000    0.00000   75.89312
   Rotational constants (in cm-1): 
          4.3311668709             0.8206935732             0.7932170929
   Rotational constants (in MHz): 
     129845.1344149146         24603.7778043478         23780.0535329537
  @GTFLGS-W, Keyword #UNITS not known and is ignored.
  @GTFLGS-W, Keyword #GEOM not known and is ignored.
  @GTFLGS-W, Keyword #COORD not known and is ignored.
  @GTFLGS-W, Keyword #CC_PROG not known and is ignored.
  @GTFLGS-W, Keyword #FROZEN_CORE not known and is ignored.
  @GTFLGS-W, Keyword #CONTRACTION not known and is ignored.
  @GTFLGS-W, Keyword #EXCITE not known and is ignored.
  @GTFLGS-W, Keyword #ESTATE_CONV not known and is ignored.
  @GTFLGS-W, Keyword #ESTATE_SYM not known and is ignored.
  @GTFLGS-W, Keyword #SCF_DAMPING not known and is ignored.
  @GTFLGS-W, Keyword #SYMMETRY not known and is ignored.
  @GTFLGS-W, Keyword #HFSTABILITY not known and is ignored.
  @GTFLGS-W, Keyword #OCCUPATION not known and is ignored.
  There are  118 basis functions.
 @GEOPT-W, Archive file not created for single-point calculation.
  @CHECKOUT-I, Total execution time (CPU/WALL):        0.96/       1.35 seconds.
--executable xjoda finished with status     0 in        1.49 seconds (walltime).
 --invoking executable--
/project1/nike/cfour_v2.00beta_May2019xnmol_noLABBASIS/bin/xvmol
Running with 1 threads/proc

********************************************************************************
                   INPUT FROM MOL FILE                                          
********************************************************************************
INTGRL        1    0    1    0    0    0    0    0    0
         *** CFOUR Program System (Release V0.1) *** 
TITLE
    6    0            0.10E-08              0    0
   9999.00      3.00
          6.00000000    1    4    1    1    1    1
C #1  -1.378308794836990   0.026952197013392   0.000659265838883
   11    5
   13575.3496820000       2.224581435200000E-004  0.000000000000000E+000
  0.000000000000000E+000  0.000000000000000E+000  0.000000000000000E+000
   2035.23336800000       1.723273825200000E-003  0.000000000000000E+000
  0.000000000000000E+000  0.000000000000000E+000  0.000000000000000E+000
   463.225623590000       8.925571531400001E-003  0.000000000000000E+000
  0.000000000000000E+000  0.000000000000000E+000  0.000000000000000E+000
   131.200195980000       3.572798450200000E-002  0.000000000000000E+000
  0.000000000000000E+000  0.000000000000000E+000  0.000000000000000E+000
   42.8530158910000       0.110762599310000       0.000000000000000E+000
  0.000000000000000E+000  0.000000000000000E+000  0.000000000000000E+000
   15.5841857660000       0.242956276260000       0.000000000000000E+000
  0.000000000000000E+000  0.000000000000000E+000  0.000000000000000E+000
   6.20671385080000       0.000000000000000E+000  0.414402634480000     
  0.000000000000000E+000  0.000000000000000E+000  0.000000000000000E+000
   2.57648965270000       0.000000000000000E+000  0.237449686550000     
  0.000000000000000E+000  0.000000000000000E+000  0.000000000000000E+000
  0.576963394190000       0.000000000000000E+000  0.000000000000000E+000
   1.00000000000000       0.000000000000000E+000  0.000000000000000E+000
  0.229728313580000       0.000000000000000E+000  0.000000000000000E+000
  0.000000000000000E+000   1.00000000000000       0.000000000000000E+000
  9.516444002799999E-002  0.000000000000000E+000  0.000000000000000E+000
  0.000000000000000E+000  0.000000000000000E+000   1.00000000000000     
    6    3
   34.6972322440000       5.333365780500000E-003  0.000000000000000E+000
  0.000000000000000E+000
   7.95826228260000       3.586410909200000E-002  0.000000000000000E+000
  0.000000000000000E+000
   2.37808268830000       0.142158733290000       0.000000000000000E+000
  0.000000000000000E+000
  0.814332081830000       0.342704718450000       0.000000000000000E+000
  0.000000000000000E+000
  0.288875472530000       0.000000000000000E+000  0.464458224330000     
  0.000000000000000E+000
  0.100568236710000       0.000000000000000E+000  0.000000000000000E+000
  0.249557898740000     
    2    2
   1.09700000000000        1.00000000000000       0.000000000000000E+000
  0.318000000000000       0.000000000000000E+000   1.00000000000000     
    1    1
  0.761000000000000        1.00000000000000     
          8.00000000    1    4    1    1    1    1
O #2   1.309884277404120  -0.118153335163808   0.000788408268506
   11    5
   27032.3826310000       2.172630246500000E-004  0.000000000000000E+000
  0.000000000000000E+000  0.000000000000000E+000  0.000000000000000E+000
   4052.38713920000       1.683866219900000E-003  0.000000000000000E+000
  0.000000000000000E+000  0.000000000000000E+000  0.000000000000000E+000
   922.327227100000       8.739561626499999E-003  0.000000000000000E+000
  0.000000000000000E+000  0.000000000000000E+000  0.000000000000000E+000
   261.240709890000       3.523996880800000E-002  0.000000000000000E+000
  0.000000000000000E+000  0.000000000000000E+000  0.000000000000000E+000
   85.3546413510000       0.111535191150000       0.000000000000000E+000
  0.000000000000000E+000  0.000000000000000E+000  0.000000000000000E+000
   31.0350352450000       0.255889539610000       0.000000000000000E+000
  0.000000000000000E+000  0.000000000000000E+000  0.000000000000000E+000
   12.2608607280000       0.000000000000000E+000  0.397687309010000     
  0.000000000000000E+000  0.000000000000000E+000  0.000000000000000E+000
   4.99870760050000       0.000000000000000E+000  0.246278494300000     
  0.000000000000000E+000  0.000000000000000E+000  0.000000000000000E+000
   1.17031081580000       0.000000000000000E+000  0.000000000000000E+000
   1.00000000000000       0.000000000000000E+000  0.000000000000000E+000
  0.464747409940000       0.000000000000000E+000  0.000000000000000E+000
  0.000000000000000E+000   1.00000000000000       0.000000000000000E+000
  0.185045363570000       0.000000000000000E+000  0.000000000000000E+000
  0.000000000000000E+000  0.000000000000000E+000   1.00000000000000     
    6    3
   63.2749548010000       6.068510341800000E-003  0.000000000000000E+000
  0.000000000000000E+000
   14.6270493790000       4.191257582400000E-002  0.000000000000000E+000
  0.000000000000000E+000
   4.45012234560000       0.161538410880000       0.000000000000000E+000
  0.000000000000000E+000
   1.52757996470000       0.357069513110000       0.000000000000000E+000
  0.000000000000000E+000
  0.529351179430000       0.000000000000000E+000  0.447942075020000     
  0.000000000000000E+000
  0.174784212700000       0.000000000000000E+000  0.000000000000000E+000
  0.244460696630000     
    2    2
   2.31400000000000        1.00000000000000       0.000000000000000E+000
  0.645000000000000       0.000000000000000E+000   1.00000000000000     
    1    1
   1.42800000000000        1.00000000000000     
          1.00000000    1    3    1    1    1
H #3  -2.076632198300485  -1.918664688624426   0.030774515671467
    5    3
   34.0613410000000       6.025197800000000E-003  0.000000000000000E+000
  0.000000000000000E+000
   5.12357460000000       4.502109400000000E-002  0.000000000000000E+000
  0.000000000000000E+000
   1.16466260000000       0.201897260000000       0.000000000000000E+000
  0.000000000000000E+000
  0.327230410000000       0.000000000000000E+000   1.00000000000000     
  0.000000000000000E+000
  0.103072410000000       0.000000000000000E+000  0.000000000000000E+000
   1.00000000000000     
    2    2
   1.40700000000000        1.00000000000000       0.000000000000000E+000
  0.388000000000000       0.000000000000000E+000   1.00000000000000     
    1    1
   1.05700000000000        1.00000000000000     
          1.00000000    1    3    1    1    1
H #4  -2.149766206403527   0.928505785147453  -1.691354167959539
    5    3
   34.0613410000000       6.025197800000000E-003  0.000000000000000E+000
  0.000000000000000E+000
   5.12357460000000       4.502109400000000E-002  0.000000000000000E+000
  0.000000000000000E+000
   1.16466260000000       0.201897260000000       0.000000000000000E+000
  0.000000000000000E+000
  0.327230410000000       0.000000000000000E+000   1.00000000000000     
  0.000000000000000E+000
  0.103072410000000       0.000000000000000E+000  0.000000000000000E+000
   1.00000000000000     
    2    2
   1.40700000000000        1.00000000000000       0.000000000000000E+000
  0.388000000000000       0.000000000000000E+000   1.00000000000000     
    1    1
   1.05700000000000        1.00000000000000     
          1.00000000    1    3    1    1    1
H #5  -2.119039307184357   1.002434346491947   1.665173412643915
    5    3
   34.0613410000000       6.025197800000000E-003  0.000000000000000E+000
  0.000000000000000E+000
   5.12357460000000       4.502109400000000E-002  0.000000000000000E+000
  0.000000000000000E+000
   1.16466260000000       0.201897260000000       0.000000000000000E+000
  0.000000000000000E+000
  0.327230410000000       0.000000000000000E+000   1.00000000000000     
  0.000000000000000E+000
  0.103072410000000       0.000000000000000E+000  0.000000000000000E+000
   1.00000000000000     
    2    2
   1.40700000000000        1.00000000000000       0.000000000000000E+000
  0.388000000000000       0.000000000000000E+000   1.00000000000000     
    1    1
   1.05700000000000        1.00000000000000     
          1.00000000    1    3    1    1    1
H #6   1.967910362397337   1.541988532015356  -0.024956137060388
    5    3
   34.0613410000000       6.025197800000000E-003  0.000000000000000E+000
  0.000000000000000E+000
   5.12357460000000       4.502109400000000E-002  0.000000000000000E+000
  0.000000000000000E+000
   1.16466260000000       0.201897260000000       0.000000000000000E+000
  0.000000000000000E+000
  0.327230410000000       0.000000000000000E+000   1.00000000000000     
  0.000000000000000E+000
  0.103072410000000       0.000000000000000E+000  0.000000000000000E+000
   1.00000000000000     
    2    2
   1.40700000000000        1.00000000000000       0.000000000000000E+000
  0.388000000000000       0.000000000000000E+000   1.00000000000000     
    1    1
   1.05700000000000        1.00000000000000     
FINISH
                                                                                
********************************************************************************

ONE- AND TWO-ELECTRON INTEGRALS OVER SYMMETRY-ADAPTED AOS ARE CALCULATED.


    BASIS FUNCTION NOT NORMALIZED:
    CENTER (AS ORDERED IN MOL FILE): ?
    ANGULAR MOMENTUM TYPE:           S
    OFFSET WITHIN ANGULAR MOMENTUM:  1
    <CHI|CHI>:                       0.1345548646

    BASIS FUNCTION NOT NORMALIZED:
    CENTER (AS ORDERED IN MOL FILE): ?
    ANGULAR MOMENTUM TYPE:           S
    OFFSET WITHIN ANGULAR MOMENTUM:  2
    <CHI|CHI>:                       0.3991162928

    BASIS FUNCTION NOT NORMALIZED:
    CENTER (AS ORDERED IN MOL FILE): ?
    ANGULAR MOMENTUM TYPE:           P
    OFFSET WITHIN ANGULAR MOMENTUM:  1
    <CHI|CHI>:                       0.2216950870

    BASIS FUNCTION NOT NORMALIZED:
    CENTER (AS ORDERED IN MOL FILE): ?
    ANGULAR MOMENTUM TYPE:           P
    OFFSET WITHIN ANGULAR MOMENTUM:  2
    <CHI|CHI>:                       0.2157214421

    BASIS FUNCTION NOT NORMALIZED:
    CENTER (AS ORDERED IN MOL FILE): ?
    ANGULAR MOMENTUM TYPE:           P
    OFFSET WITHIN ANGULAR MOMENTUM:  3
    <CHI|CHI>:                       0.0622791448

    BASIS FUNCTION NOT NORMALIZED:
    CENTER (AS ORDERED IN MOL FILE): ?
    ANGULAR MOMENTUM TYPE:           S
    OFFSET WITHIN ANGULAR MOMENTUM:  1
    <CHI|CHI>:                       0.1441333881

    BASIS FUNCTION NOT NORMALIZED:
    CENTER (AS ORDERED IN MOL FILE): ?
    ANGULAR MOMENTUM TYPE:           S
    OFFSET WITHIN ANGULAR MOMENTUM:  2
    <CHI|CHI>:                       0.3880597184

    BASIS FUNCTION NOT NORMALIZED:
    CENTER (AS ORDERED IN MOL FILE): ?
    ANGULAR MOMENTUM TYPE:           P
    OFFSET WITHIN ANGULAR MOMENTUM:  1
    <CHI|CHI>:                       0.2549621911

    BASIS FUNCTION NOT NORMALIZED:
    CENTER (AS ORDERED IN MOL FILE): ?
    ANGULAR MOMENTUM TYPE:           P
    OFFSET WITHIN ANGULAR MOMENTUM:  2
    <CHI|CHI>:                       0.2006521026

    BASIS FUNCTION NOT NORMALIZED:
    CENTER (AS ORDERED IN MOL FILE): ?
    ANGULAR MOMENTUM TYPE:           P
    OFFSET WITHIN ANGULAR MOMENTUM:  3
    <CHI|CHI>:                       0.0597610322

    BASIS FUNCTION NOT NORMALIZED:
    CENTER (AS ORDERED IN MOL FILE): ?
    ANGULAR MOMENTUM TYPE:           S
    OFFSET WITHIN ANGULAR MOMENTUM:  1
    <CHI|CHI>:                       0.0560960211

    BASIS FUNCTION NOT NORMALIZED:
    CENTER (AS ORDERED IN MOL FILE): ?
    ANGULAR MOMENTUM TYPE:           S
    OFFSET WITHIN ANGULAR MOMENTUM:  1
    <CHI|CHI>:                       0.0560960211

    BASIS FUNCTION NOT NORMALIZED:
    CENTER (AS ORDERED IN MOL FILE): ?
    ANGULAR MOMENTUM TYPE:           S
    OFFSET WITHIN ANGULAR MOMENTUM:  1
    <CHI|CHI>:                       0.0560960211

    BASIS FUNCTION NOT NORMALIZED:
    CENTER (AS ORDERED IN MOL FILE): ?
    ANGULAR MOMENTUM TYPE:           S
    OFFSET WITHIN ANGULAR MOMENTUM:  1
    <CHI|CHI>:                       0.0560960211
CARTESIAN GAUSSIANS ARE USED.

6 TYPES OF ATOMS
0 SYMMETRY OPERATIONS


INTEGRALS LESS THAN 1e-14 ARE NEGLECTED.

ATOMIC TYPE NUMBER 1:
---------------------

    NUCLEAR CHARGE:                       6
    NUMBER OF SYMMETRY INDEPENDENT ATOMS: 1
    HIGHEST ORBITAL TYPE:                 F

    1 GROUPS OF CGTOS OF S TYPE
    1 GROUPS OF CGTOS OF P TYPE
    1 GROUPS OF CGTOS OF D TYPE
    1 GROUPS OF CGTOS OF F TYPE

    NUCLEAR COORDINATES (IN A.U.) ARE:

    C #1  -1.378308794836990   0.026952197013392   0.000659265838883

ATOMIC TYPE NUMBER 2:
---------------------

    NUCLEAR CHARGE:                       8
    NUMBER OF SYMMETRY INDEPENDENT ATOMS: 1
    HIGHEST ORBITAL TYPE:                 F

    1 GROUPS OF CGTOS OF S TYPE
    1 GROUPS OF CGTOS OF P TYPE
    1 GROUPS OF CGTOS OF D TYPE
    1 GROUPS OF CGTOS OF F TYPE

    NUCLEAR COORDINATES (IN A.U.) ARE:

    O #2   1.309884277404120  -0.118153335163808   0.000788408268506

ATOMIC TYPE NUMBER 3:
---------------------

    NUCLEAR CHARGE:                       1
    NUMBER OF SYMMETRY INDEPENDENT ATOMS: 1
    HIGHEST ORBITAL TYPE:                 D

    1 GROUPS OF CGTOS OF S TYPE
    1 GROUPS OF CGTOS OF P TYPE
    1 GROUPS OF CGTOS OF D TYPE

    NUCLEAR COORDINATES (IN A.U.) ARE:

    H #3  -2.076632198300485  -1.918664688624426   0.030774515671467

ATOMIC TYPE NUMBER 4:
---------------------

    NUCLEAR CHARGE:                       1
    NUMBER OF SYMMETRY INDEPENDENT ATOMS: 1
    HIGHEST ORBITAL TYPE:                 D

    1 GROUPS OF CGTOS OF S TYPE
    1 GROUPS OF CGTOS OF P TYPE
    1 GROUPS OF CGTOS OF D TYPE

    NUCLEAR COORDINATES (IN A.U.) ARE:

    H #4  -2.149766206403527   0.928505785147453  -1.691354167959539

ATOMIC TYPE NUMBER 5:
---------------------

    NUCLEAR CHARGE:                       1
    NUMBER OF SYMMETRY INDEPENDENT ATOMS: 1
    HIGHEST ORBITAL TYPE:                 D

    1 GROUPS OF CGTOS OF S TYPE
    1 GROUPS OF CGTOS OF P TYPE
    1 GROUPS OF CGTOS OF D TYPE

    NUCLEAR COORDINATES (IN A.U.) ARE:

    H #5  -2.119039307184357   1.002434346491947   1.665173412643915

ATOMIC TYPE NUMBER 6:
---------------------

    NUCLEAR CHARGE:                       1
    NUMBER OF SYMMETRY INDEPENDENT ATOMS: 1
    HIGHEST ORBITAL TYPE:                 D

    1 GROUPS OF CGTOS OF S TYPE
    1 GROUPS OF CGTOS OF P TYPE
    1 GROUPS OF CGTOS OF D TYPE

    NUCLEAR COORDINATES (IN A.U.) ARE:

    H #6   1.967910362397337   1.541988532015356  -0.024956137060388

INTERNUCLEAR DISTANCES (A):

    FOR ATOM C #1 (COORDINATES:  -1.37831   0.02695   0.00066)

    O #2 1 DISTANCE IS   1.42460
    H #3 1 DISTANCE IS   1.09400
    H #4 1 DISTANCE IS   1.09360
    H #5 1 DISTANCE IS   1.09360
    H #6 1 DISTANCE IS   1.94383

    FOR ATOM O #2 (COORDINATES:   1.30988  -0.11815   0.00079)

    H #3 1 DISTANCE IS   2.02967
    H #4 1 DISTANCE IS   2.11194
    H #5 1 DISTANCE IS   2.10233
    H #6 1 DISTANCE IS   0.94510

    FOR ATOM H #3 (COORDINATES:  -2.07663  -1.91866   0.03077)

    H #4 1 DISTANCE IS   1.76125
    H #5 1 DISTANCE IS   1.77143
    H #6 1 DISTANCE IS   2.81697

    FOR ATOM H #4 (COORDINATES:  -2.14977   0.92851  -1.69135)

    H #5 1 DISTANCE IS   1.77670
    H #6 1 DISTANCE IS   2.37296

    FOR ATOM H #5 (COORDINATES:  -2.11904   1.00243   1.66517)

    H #6 1 DISTANCE IS   2.35771

    FOR ATOM H #6 (COORDINATES:   1.96791   1.54199  -0.02496)


GROUP MULTIPLICATION TABLE:

    1

GAUSSIAN BASIS INFORMATION:

ATOM                EXPONENT       COEFFICIENTS

C #1  1  S   
                  1   13575.349682   0.5435906   0.0000000   0.0000000   0.0000000   0.0000000
                  2    2035.233368   1.0145544   0.0000000   0.0000000   0.0000000   0.0000000
                  3     463.225624   1.7315732   0.0000000   0.0000000   0.0000000   0.0000000
                  4     131.200196   2.6910376   0.0000000   0.0000000   0.0000000   0.0000000
                  5      42.853016   3.6044547   0.0000000   0.0000000   0.0000000   0.0000000
                  6      15.584186   3.7025557   0.0000000   0.0000000   0.0000000   0.0000000
                  7       6.206714   0.0000000   1.8383541   0.0000000   0.0000000   0.0000000
                  8       2.576490   0.0000000   0.5447576   0.0000000   0.0000000   0.0000000
                  9       0.576963   0.0000000   0.0000000   0.4718145   0.0000000   0.0000000
                 10       0.229728   0.0000000   0.0000000   0.0000000   0.2364945   0.0000000
                 11       0.095164   0.0000000   0.0000000   0.0000000   0.0000000   0.1221142

C #1  1  X   
                 12      34.697232   1.3596651   0.0000000   0.0000000
                 13       7.958262   1.4512589   0.0000000   0.0000000
                 14       2.378083   1.2709231   0.0000000   0.0000000
                 15       0.814332   0.8025721   0.0000000   0.0000000
                 16       0.288875   0.0000000   0.3018759   0.0000000
                 17       0.100568   0.0000000   0.0000000   0.0807265

C #1  1  Y   
                 18      34.697232   1.3596651   0.0000000   0.0000000
                 19       7.958262   1.4512589   0.0000000   0.0000000
                 20       2.378083   1.2709231   0.0000000   0.0000000
                 21       0.814332   0.8025721   0.0000000   0.0000000
                 22       0.288875   0.0000000   0.3018759   0.0000000
                 23       0.100568   0.0000000   0.0000000   0.0807265

C #1  1  Z   
                 24      34.697232   1.3596651   0.0000000   0.0000000
                 25       7.958262   1.4512589   0.0000000   0.0000000
                 26       2.378083   1.2709231   0.0000000   0.0000000
                 27       0.814332   0.8025721   0.0000000   0.0000000
                 28       0.288875   0.0000000   0.3018759   0.0000000
                 29       0.100568   0.0000000   0.0000000   0.0807265

C #1  1  XX  
                 30       1.097000   3.3522136   0.0000000
                 31       0.318000   0.0000000   0.3838995

C #1  1  XY  
                 32       1.097000   3.3522136   0.0000000
                 33       0.318000   0.0000000   0.3838995

C #1  1  XZ  
                 34       1.097000   3.3522136   0.0000000
                 35       0.318000   0.0000000   0.3838995

C #1  1  YY  
                 36       1.097000   3.3522136   0.0000000
                 37       0.318000   0.0000000   0.3838995

C #1  1  YZ  
                 38       1.097000   3.3522136   0.0000000
                 39       0.318000   0.0000000   0.3838995

C #1  1  ZZ  
                 40       1.097000   3.3522136   0.0000000
                 41       0.318000   0.0000000   0.3838995

C #1  1  F300
                 42       0.761000   3.0840084

C #1  1  F210
                 43       0.761000   3.0840084

C #1  1  F201
                 44       0.761000   3.0840084

C #1  1  F120
                 45       0.761000   3.0840084

C #1  1  F111
                 46       0.761000   3.0840084

C #1  1  F102
                 47       0.761000   3.0840084

C #1  1  F030
                 48       0.761000   3.0840084

C #1  1  F021
                 49       0.761000   3.0840084

C #1  1  F012
                 50       0.761000   3.0840084

C #1  1  F003
                 51       0.761000   3.0840084

O #2  1  S   
                 52   27032.382631   0.8598582   0.0000000   0.0000000   0.0000000   0.0000000
                 53    4052.387139   1.6055306   0.0000000   0.0000000   0.0000000   0.0000000
                 54     922.327227   2.7458779   0.0000000   0.0000000   0.0000000   0.0000000
                 55     261.240710   4.2987674   0.0000000   0.0000000   0.0000000   0.0000000
                 56      85.354641   5.8797663   0.0000000   0.0000000   0.0000000   0.0000000
                 57      31.035035   6.3163983   0.0000000   0.0000000   0.0000000   0.0000000
                 58      12.260861   0.0000000   2.9812148   0.0000000   0.0000000   0.0000000
                 59       4.998708   0.0000000   0.9419560   0.0000000   0.0000000   0.0000000
                 60       1.170311   0.0000000   0.0000000   0.8019292   0.0000000   0.0000000
                 61       0.464747   0.0000000   0.0000000   0.0000000   0.4011648   0.0000000
                 62       0.185045   0.0000000   0.0000000   0.0000000   0.0000000   0.2010799

O #2  1  X   
                 63      63.274955   3.0572017   0.0000000   0.0000000
                 64      14.627049   3.3844839   0.0000000   0.0000000
                 65       4.450122   2.9474262   0.0000000   0.0000000
                 66       1.527580   1.7118271   0.0000000   0.0000000
                 67       0.529351   0.0000000   0.6436058   0.0000000
                 68       0.174784   0.0000000   0.0000000   0.1610897

O #2  1  Y   
                 69      63.274955   3.0572017   0.0000000   0.0000000
                 70      14.627049   3.3844839   0.0000000   0.0000000
                 71       4.450122   2.9474262   0.0000000   0.0000000
                 72       1.527580   1.7118271   0.0000000   0.0000000
                 73       0.529351   0.0000000   0.6436058   0.0000000
                 74       0.174784   0.0000000   0.0000000   0.1610897

O #2  1  Z   
                 75      63.274955   3.0572017   0.0000000   0.0000000
                 76      14.627049   3.3844839   0.0000000   0.0000000
                 77       4.450122   2.9474262   0.0000000   0.0000000
                 78       1.527580   1.7118271   0.0000000   0.0000000
                 79       0.529351   0.0000000   0.6436058   0.0000000
                 80       0.174784   0.0000000   0.0000000   0.1610897

O #2  1  XX  
                 81       2.314000  12.3767311   0.0000000
                 82       0.645000   0.0000000   1.3234258

O #2  1  XY  
                 83       2.314000  12.3767311   0.0000000
                 84       0.645000   0.0000000   1.3234258

O #2  1  XZ  
                 85       2.314000  12.3767311   0.0000000
                 86       0.645000   0.0000000   1.3234258

O #2  1  YY  
                 87       2.314000  12.3767311   0.0000000
                 88       0.645000   0.0000000   1.3234258

O #2  1  YZ  
                 89       2.314000  12.3767311   0.0000000
                 90       0.645000   0.0000000   1.3234258

O #2  1  ZZ  
                 91       2.314000  12.3767311   0.0000000
                 92       0.645000   0.0000000   1.3234258

O #2  1  F300
                 93       1.428000  12.7097950

O #2  1  F210
                 94       1.428000  12.7097950

O #2  1  F201
                 95       1.428000  12.7097950

O #2  1  F120
                 96       1.428000  12.7097950

O #2  1  F111
                 97       1.428000  12.7097950

O #2  1  F102
                 98       1.428000  12.7097950

O #2  1  F030
                 99       1.428000  12.7097950

O #2  1  F021
                100       1.428000  12.7097950

O #2  1  F012
                101       1.428000  12.7097950

O #2  1  F003
                102       1.428000  12.7097950

H #3  1  S   
                103      34.061341   0.2556299   0.0000000   0.0000000
                104       5.123575   0.4613600   0.0000000   0.0000000
                105       1.164663   0.6811215   0.0000000   0.0000000
                106       0.327230   0.0000000   0.3083545   0.0000000
                107       0.103072   0.0000000   0.0000000   0.1296483

H #3  1  X   
                108       1.407000   2.1842770   0.0000000
                109       0.388000   0.0000000   0.4364955

H #3  1  Y   
                110       1.407000   2.1842770   0.0000000
                111       0.388000   0.0000000   0.4364955

H #3  1  Z   
                112       1.407000   2.1842770   0.0000000
                113       0.388000   0.0000000   0.4364955

H #3  1  XX  
                114       1.057000   3.1412414

H #3  1  XY  
                115       1.057000   3.1412414

H #3  1  XZ  
                116       1.057000   3.1412414

H #3  1  YY  
                117       1.057000   3.1412414

H #3  1  YZ  
                118       1.057000   3.1412414

H #3  1  ZZ  
                119       1.057000   3.1412414

H #4  1  S   
                120      34.061341   0.2556299   0.0000000   0.0000000
                121       5.123575   0.4613600   0.0000000   0.0000000
                122       1.164663   0.6811215   0.0000000   0.0000000
                123       0.327230   0.0000000   0.3083545   0.0000000
                124       0.103072   0.0000000   0.0000000   0.1296483

H #4  1  X   
                125       1.407000   2.1842770   0.0000000
                126       0.388000   0.0000000   0.4364955

H #4  1  Y   
                127       1.407000   2.1842770   0.0000000
                128       0.388000   0.0000000   0.4364955

H #4  1  Z   
                129       1.407000   2.1842770   0.0000000
                130       0.388000   0.0000000   0.4364955

H #4  1  XX  
                131       1.057000   3.1412414

H #4  1  XY  
                132       1.057000   3.1412414

H #4  1  XZ  
                133       1.057000   3.1412414

H #4  1  YY  
                134       1.057000   3.1412414

H #4  1  YZ  
                135       1.057000   3.1412414

H #4  1  ZZ  
                136       1.057000   3.1412414

H #5  1  S   
                137      34.061341   0.2556299   0.0000000   0.0000000
                138       5.123575   0.4613600   0.0000000   0.0000000
                139       1.164663   0.6811215   0.0000000   0.0000000
                140       0.327230   0.0000000   0.3083545   0.0000000
                141       0.103072   0.0000000   0.0000000   0.1296483

H #5  1  X   
                142       1.407000   2.1842770   0.0000000
                143       0.388000   0.0000000   0.4364955

H #5  1  Y   
                144       1.407000   2.1842770   0.0000000
                145       0.388000   0.0000000   0.4364955

H #5  1  Z   
                146       1.407000   2.1842770   0.0000000
                147       0.388000   0.0000000   0.4364955

H #5  1  XX  
                148       1.057000   3.1412414

H #5  1  XY  
                149       1.057000   3.1412414

H #5  1  XZ  
                150       1.057000   3.1412414

H #5  1  YY  
                151       1.057000   3.1412414

H #5  1  YZ  
                152       1.057000   3.1412414

H #5  1  ZZ  
                153       1.057000   3.1412414

H #6  1  S   
                154      34.061341   0.2556299   0.0000000   0.0000000
                155       5.123575   0.4613600   0.0000000   0.0000000
                156       1.164663   0.6811215   0.0000000   0.0000000
                157       0.327230   0.0000000   0.3083545   0.0000000
                158       0.103072   0.0000000   0.0000000   0.1296483

H #6  1  X   
                159       1.407000   2.1842770   0.0000000
                160       0.388000   0.0000000   0.4364955

H #6  1  Y   
                161       1.407000   2.1842770   0.0000000
                162       0.388000   0.0000000   0.4364955

H #6  1  Z   
                163       1.407000   2.1842770   0.0000000
                164       0.388000   0.0000000   0.4364955

H #6  1  XX  
                165       1.057000   3.1412414

H #6  1  XY  
                166       1.057000   3.1412414

H #6  1  XZ  
                167       1.057000   3.1412414

H #6  1  YY  
                168       1.057000   3.1412414

H #6  1  YZ  
                169       1.057000   3.1412414

H #6  1  ZZ  
                170       1.057000   3.1412414

SYMMETRY TRANSFORMATION INTO 118 SYMMETRY-ADAPTED BASIS FUNCTIONS

    IRREDUCIBLE REPRESENTATION NUMBER 1

    1    1 C #1 S      1   1.0
    2    2 C #1 S      2   1.0
    3    3 C #1 S      3   1.0
    4    4 C #1 S      4   1.0
    5    5 C #1 S      5   1.0
    6    6 C #1 X      6   1.0
    7    7 C #1 X      7   1.0
    8    8 C #1 X      8   1.0
    9    9 C #1 Y      9   1.0
   10   10 C #1 Y     10   1.0
   11   11 C #1 Y     11   1.0
   12   12 C #1 Z     12   1.0
   13   13 C #1 Z     13   1.0
   14   14 C #1 Z     14   1.0
   15   15 C #1 XX    15  -1.0  21  -1.0  25   2.0
   16   16 C #1 XX    16  -1.0  22  -1.0  26   2.0
   17   17 C #1 XY    17   1.0
   18   18 C #1 XY    18   1.0
   19   19 C #1 XZ    19   1.0
   20   20 C #1 XZ    20   1.0
   21   21 C #1 YY    15   1.0  21  -1.0
   22   22 C #1 YY    16   1.0  22  -1.0
   23   23 C #1 YZ    23   1.0
   24   24 C #1 YZ    24   1.0
   25   25 C #1 ZZ    27  -1.0  30  -1.0  32   4.0
   26   26 C #1 ZZ    28  -1.0  33  -1.0  35   4.0
   27   27 C #1 F300  29  -3.0  34  -3.0  36   2.0
   28   28 C #1 F210  27   1.0  30  -3.0
   29   29 C #1 F201  31   1.0
   30   30 C #1 F120  28   3.0  33  -1.0
   31   31 C #1 F111  29   1.0  34  -1.0
   32   32 C #1 F102  37   1.0
   33   33 C #1 F030  38   1.0
   34   34 C #1 F021  39   1.0
   35   35 C #1 F012  40   1.0
   36   36 C #1 F003  41   1.0
   37   37 O #2 S     42   1.0
   38   38 O #2 S     43   1.0
   39   39 O #2 S     44   1.0
   40   40 O #2 S     45   1.0
   41   41 O #2 S     46   1.0
   42   42 O #2 X     47   1.0
   43   43 O #2 X     48   1.0
   44   44 O #2 X     49   1.0
   45   45 O #2 Y     50   1.0
   46   46 O #2 Y     51  -1.0  57  -1.0  61   2.0
   47   47 O #2 Y     52  -1.0  58  -1.0  62   2.0
   48   48 O #2 Z     53   1.0
   49   49 O #2 Z     54   1.0
   50   50 O #2 Z     55   1.0
   51   51 O #2 XX    56   1.0
   52   52 O #2 XX    51   1.0  57  -1.0
   53   53 O #2 XY    52   1.0  58  -1.0
   54   54 O #2 XY    59   1.0
   55   55 O #2 XZ    60   1.0
   56   56 O #2 XZ    63  -1.0  66  -1.0  68   4.0
   57   57 O #2 YY    64  -1.0  69  -1.0  71   4.0
   58   58 O #2 YY    65  -3.0  70  -3.0  72   2.0
   59   59 O #2 YZ    63   1.0  66  -3.0
   60   60 O #2 YZ    67   1.0
   61   61 O #2 ZZ    64   3.0  69  -1.0
   62   62 O #2 ZZ    65   1.0  70  -1.0
   63   63 O #2 F300  73   1.0
   64   64 O #2 F210  74   1.0
   65   65 O #2 F201  75   1.0
   66   66 O #2 F120  76   1.0
   67   67 O #2 F111  77   1.0
   68   68 O #2 F102  78   1.0
   69   69 O #2 F030  79   1.0
   70   70 O #2 F021  80   1.0
   71   71 O #2 F012  81   1.0
   72   72 O #2 F003  82  -1.0  85  -1.0  87   2.0
   73   73 H #3 S     83   1.0
   74   74 H #3 S     84   1.0
   75   75 H #3 S     82   1.0  85  -1.0
   76   76 H #3 X     86   1.0
   77   77 H #3 X     88   1.0
   78   78 H #3 Y     89   1.0
   79   79 H #3 Y     90   1.0
   80   80 H #3 Z     91   1.0
   81   81 H #3 Z     92   1.0
   82   82 H #3 XX    93   1.0
   83   83 H #3 XY    94   1.0
   84   84 H #3 XZ    95   1.0
   85   85 H #3 YY    96   1.0
   86   86 H #3 YZ    97  -1.0 100  -1.0 102   2.0
   87   87 H #3 ZZ    98   1.0
   88   88 H #4 S     99   1.0
   89   89 H #4 S     97   1.0 100  -1.0
   90   90 H #4 S    101   1.0
   91   91 H #4 X    103   1.0
   92   92 H #4 X    104   1.0
   93   93 H #4 Y    105   1.0
   94   94 H #4 Y    106   1.0
   95   95 H #4 Z    107   1.0
   96   96 H #4 Z    108   1.0
   97   97 H #4 XX   109   1.0
   98   98 H #4 XY   110   1.0
   99   99 H #4 XZ   111   1.0
  100  100 H #4 YY   112  -1.0 115  -1.0 117   2.0
  101  101 H #4 YZ   113   1.0
  102  102 H #4 ZZ   114   1.0
  103  103 H #5 S    112   1.0 115  -1.0
  104  104 H #5 S    116   1.0
  105  105 H #5 S    118   1.0
  106  106 H #5 X    119   1.0
  107  107 H #5 X    120   1.0
  108  108 H #5 Y    121   1.0
  109  109 H #5 Y    122   1.0
  110  110 H #5 Z    123   1.0
  111  111 H #5 Z    124   1.0
  112  112 H #5 XX   125   1.0
  113  113 H #5 XY   126   1.0
  114  114 H #5 XZ   127  -1.0 130  -1.0 132   2.0
  115  115 H #5 YY   128   1.0
  116  116 H #5 YZ   129   1.0
  117  117 H #5 ZZ   127   1.0 130  -1.0
  118  118 H #6 S    131   1.0
  119  119 H #6 S   
  120  120 H #6 S   
  121  121 H #6 X   
  122  122 H #6 X   
  123  123 H #6 Y   
  124  124 H #6 Y   
  125  125 H #6 Z   
  126  126 H #6 Z   
  127  127 H #6 XX  
  128  128 H #6 XY  
  129  129 H #6 XZ  
  130  130 H #6 YY  
  131  131 H #6 YZ  
  132  132 H #6 ZZ  

NUCLEAR REPULSION ENERGY:   40.2877952422 A.U.

One-electron integrals took 0.159254 seconds

  @TWOEL-I,   24389202 INTEGRALS OF SYMMETRY TYPE  I I I I
  @TWOEL-I, TOTAL NUMBER OF 2-E INTEGRALS   24389202

Two-electron integrals took 54.300038 seconds

Nuclear repulsion energy: 40.287795242183
--executable xvmol finished with status     0 in       55.23 seconds (walltime).
 --invoking executable--
/project1/nike/cfour_v2.00beta_May2019xnmol_noLABBASIS/bin/xvmol2ja
--executable xvmol2ja finished with status     0 in        0.08 seconds (walltime).
 --invoking executable--
/project1/nike/cfour_v2.00beta_May2019xnmol_noLABBASIS/bin/xvscf
  There are  118 functions in the AO basis.

  There are 1 irreducible representations.

       Irrep        # of functions
         1                118


  Parameters for SCF calculation: 
        SCF reference function: ROHF  
  Maximum number of iterations: ****
     Full symmetry point group: C1  
     Computational point group: C1  
        Initial density matrix: CORE                   
     SCF convergence tolerance: 10**(-12)
  DIIS convergence acceleration:  ON
          Latest start for DIIS:   5
                     DIIS order:   6

  Memory information:     814799 words required.
  Fock matrices are constructed from AO integral file.
 @GETMEM-I,  Allocated       6 MB of main memory.
  Initialization and symmetry analysis required      0.003 seconds.

  @INITGES-I, Occupancies from core Hamiltonian:

          Alpha population by irrep:   9
           Beta population by irrep:   8


 total no. of electrons in initial guess :  0.000000000000000E+000
 total no. of electrons in initial guess :  0.000000000000000E+000
  --------------------------------------------------------------------
  Iteration         Total Energy            Largest Density Difference
  --------------------------------------------------------------------
       0            40.287795242182938              0.0000000000D+00
  processed               24389202  ao basis integrals from 
                 40649  buffers.
       1           -94.694987030683905              0.1819703000D+01
  processed               24389202  ao basis integrals from 
                 40649  buffers.
       2           -93.704955686766880              0.3450455193D+02
  processed               24389202  ao basis integrals from 
                 40649  buffers.
       3           -97.151220960368761              0.3454338563D+02
  processed               24389202  ao basis integrals from 
                 40649  buffers.
       4           -93.858366451478673              0.1429319807D+01
 
 sum over diagonal and offdiagdiagonal of C(T)*S*C for irrep
                     1
  6.239453398393380E-013 -1.131565430875282E-013
 reorthoganalization of MOs is carried out
 sum over diagonal and offdiagdiagonal of C(T)*S*C for irrep
                     1
 -1.731947918415244E-014  5.730124812948578E-013
  processed               24389202  ao basis integrals from 
                 40649  buffers.
       5           -90.996648388080530              0.1416784074D+01
  processed               24389202  ao basis integrals from 
                 40649  buffers.
       6          -105.044058598948396              0.6035811752D+00
  processed               24389202  ao basis integrals from 
                 40649  buffers.
       7          -110.042781607218899              0.7873185847D+00
  processed               24389202  ao basis integrals from 
                 40649  buffers.
       8          -112.854402803841168              0.8129189695D+00
  processed               24389202  ao basis integrals from 
                 40649  buffers.
       9          -114.204058831713780              0.1658885708D+00
 
 sum over diagonal and offdiagdiagonal of C(T)*S*C for irrep
                     1
  8.258949080186540E-013 -6.487563589501153E-013
 reorthoganalization of MOs is carried out
 sum over diagonal and offdiagdiagonal of C(T)*S*C for irrep
                     1
  1.092459456231154E-013  2.512897216589978E-013
  processed               24389202  ao basis integrals from 
                 40649  buffers.
      10          -114.575674309828258              0.6672602253D-01
  processed               24389202  ao basis integrals from 
                 40649  buffers.
      11          -114.619202454047382              0.2859710278D-01
  processed               24389202  ao basis integrals from 
                 40649  buffers.
      12          -114.626404015874442              0.9120598091D-02
  processed               24389202  ao basis integrals from 
                 40649  buffers.
      13          -114.632868329729121              0.1269993576D-01
  processed               24389202  ao basis integrals from 
                 40649  buffers.
      14          -114.633314010506751              0.1299459789D-02
 
 sum over diagonal and offdiagdiagonal of C(T)*S*C for irrep
                     1
  9.656719868189612E-013 -2.713757551059730E-013
 reorthoganalization of MOs is carried out
 sum over diagonal and offdiagdiagonal of C(T)*S*C for irrep
                     1
  1.674216321134736E-013  5.860844715258693E-013
  processed               24389202  ao basis integrals from 
                 40649  buffers.
      15          -114.630858774500211              0.5517502232D-02
  processed               24389202  ao basis integrals from 
                 40649  buffers.
      16          -114.623891528697129              0.2278670420D-01
  processed               24389202  ao basis integrals from 
                 40649  buffers.
      17          -114.623828259716362              0.1852905978D-02
  processed               24389202  ao basis integrals from 
                 40649  buffers.
      18          -114.624087785532708              0.1084261889D-01
  processed               24389202  ao basis integrals from 
                 40649  buffers.
      19          -114.624379711010107              0.3269191560D-02
 
 sum over diagonal and offdiagdiagonal of C(T)*S*C for irrep
                     1
  5.790923296444817E-013 -2.678211107449584E-013
 reorthoganalization of MOs is carried out
 sum over diagonal and offdiagdiagonal of C(T)*S*C for irrep
                     1
  1.811883976188255E-013 -5.985143413714853E-014
  processed               24389202  ao basis integrals from 
                 40649  buffers.
      20          -114.619881547785525              0.1987617852D-01
  processed               24389202  ao basis integrals from 
                 40649  buffers.
      21          -114.620074012408310              0.3505690850D-02
  processed               24389202  ao basis integrals from 
                 40649  buffers.
      22          -114.628217203501151              0.3290589698D-01
  processed               24389202  ao basis integrals from 
                 40649  buffers.
      23          -114.628155267897569              0.1185731526D-02
  processed               24389202  ao basis integrals from 
                 40649  buffers.
      24          -114.625980506199824              0.7312201281D-02
 
 sum over diagonal and offdiagdiagonal of C(T)*S*C for irrep
                     1
  8.212319713152283E-013 -5.188720664738821E-013
 reorthoganalization of MOs is carried out
 sum over diagonal and offdiagdiagonal of C(T)*S*C for irrep
                     1
  1.140199046290036E-013  1.231777346447953E-013
  processed               24389202  ao basis integrals from 
                 40649  buffers.
      25          -114.622487457845210              0.1143463635D-01
  processed               24389202  ao basis integrals from 
                 40649  buffers.
      26          -114.624305787255963              0.1464978129D-01
  processed               24389202  ao basis integrals from 
                 40649  buffers.
      27          -114.626245546625910              0.8859707209D-02
  processed               24389202  ao basis integrals from 
                 40649  buffers.
      28          -114.625531040664924              0.2818442373D-02
  processed               24389202  ao basis integrals from 
                 40649  buffers.
      29          -114.602585395241590              0.6908684304D-01
 
 sum over diagonal and offdiagdiagonal of C(T)*S*C for irrep
                     1
  1.817102024403994E-012 -1.069535381443350E-012
 reorthoganalization of MOs is carried out
 sum over diagonal and offdiagdiagonal of C(T)*S*C for irrep
                     1
  8.593126210598712E-014 -7.060603024688212E-015
  processed               24389202  ao basis integrals from 
                 40649  buffers.
      30          -114.621692839210283              0.5790010424D-01
  processed               24389202  ao basis integrals from 
                 40649  buffers.
      31          -114.620450387464814              0.7534429812D-02
  processed               24389202  ao basis integrals from 
                 40649  buffers.
      32          -114.618421822641636              0.9360230451D-02
  processed               24389202  ao basis integrals from 
                 40649  buffers.
      33          -114.618559039144685              0.3542912459D-03
  processed               24389202  ao basis integrals from 
                 40649  buffers.
      34          -114.622899502020431              0.1822534994D-01
 
 sum over diagonal and offdiagdiagonal of C(T)*S*C for irrep
                     1
  5.329070518200751E-013  8.105532078434827E-013
 reorthoganalization of MOs is carried out
 sum over diagonal and offdiagdiagonal of C(T)*S*C for irrep
                     1
 -7.238654120556021E-014  9.410163627739586E-014
  processed               24389202  ao basis integrals from 
                 40649  buffers.
      35          -114.624018460070147              0.5406216283D-02
  processed               24389202  ao basis integrals from 
                 40649  buffers.
      36          -114.625841279579220              0.1031239266D-01
  processed               24389202  ao basis integrals from 
                 40649  buffers.
      37          -114.622597568418627              0.1563203905D-01
  processed               24389202  ao basis integrals from 
                 40649  buffers.
      38          -114.626406102229367              0.1903934405D-01
  processed               24389202  ao basis integrals from 
                 40649  buffers.
      39          -114.627435057268428              0.3845274688D-02
 
 sum over diagonal and offdiagdiagonal of C(T)*S*C for irrep
                     1
  5.863087793045452E-013 -1.364242506356610E-012
 reorthoganalization of MOs is carried out
 sum over diagonal and offdiagdiagonal of C(T)*S*C for irrep
                     1
  1.157962614684038E-013  5.351254991203380E-013
  processed               24389202  ao basis integrals from 
                 40649  buffers.
      40          -114.588446964539685              0.1083232078D+00
  processed               24389202  ao basis integrals from 
                 40649  buffers.
      41          -114.623520231117709              0.9077152129D-01
  processed               24389202  ao basis integrals from 
                 40649  buffers.
      42          -114.621369728026451              0.9846867283D-02
  processed               24389202  ao basis integrals from 
                 40649  buffers.
      43          -114.612582206464396              0.3067380767D-01
  processed               24389202  ao basis integrals from 
                 40649  buffers.
      44          -114.624494109042132              0.4649216670D-01
 
 sum over diagonal and offdiagdiagonal of C(T)*S*C for irrep
                     1
  1.360578316678129E-012 -9.675934577621089E-013
 reorthoganalization of MOs is carried out
 sum over diagonal and offdiagdiagonal of C(T)*S*C for irrep
                     1
  2.089439732344545E-013  5.340954457847661E-013
  processed               24389202  ao basis integrals from 
                 40649  buffers.
      45          -114.622726953354857              0.8595818833D-02
  processed               24389202  ao basis integrals from 
                 40649  buffers.
      46          -114.616000992888218              0.2694274374D-01
  processed               24389202  ao basis integrals from 
                 40649  buffers.
      47          -114.615400275124273              0.4191247346D-02
  processed               24389202  ao basis integrals from 
                 40649  buffers.
      48          -114.616738249190348              0.5222222644D-02
  processed               24389202  ao basis integrals from 
                 40649  buffers.
      49          -114.617732408771303              0.4591261664D-02
 
 sum over diagonal and offdiagdiagonal of C(T)*S*C for irrep
                     1
  1.124544901642821E-012 -7.677288958706992E-013
 reorthoganalization of MOs is carried out
 sum over diagonal and offdiagdiagonal of C(T)*S*C for irrep
                     1
 -1.298960938811433E-013 -1.061759895177940E-013
  processed               24389202  ao basis integrals from 
                 40649  buffers.
      50          -114.617298823163196              0.1950997096D-02
  processed               24389202  ao basis integrals from 
                 40649  buffers.
      51          -114.626258322782235              0.3794248827D-01
  processed               24389202  ao basis integrals from 
                 40649  buffers.
      52          -114.629038243486718              0.8419134299D-02
  processed               24389202  ao basis integrals from 
                 40649  buffers.
      53          -114.631918358099654              0.8109247709D-02
  processed               24389202  ao basis integrals from 
                 40649  buffers.
      54          -114.628289474543237              0.1091187963D-01
 
 sum over diagonal and offdiagdiagonal of C(T)*S*C for irrep
                     1
  1.076250200071627E-012  7.446367922391897E-013
 reorthoganalization of MOs is carried out
 sum over diagonal and offdiagdiagonal of C(T)*S*C for irrep
                     1
 -1.321165399303936E-013 -5.038639318214856E-013
  processed               24389202  ao basis integrals from 
                 40649  buffers.
      55          -114.632409950812075              0.1332830517D-01
  processed               24389202  ao basis integrals from 
                 40649  buffers.
      56          -114.632423616454872              0.5786859897D-02
  processed               24389202  ao basis integrals from 
                 40649  buffers.
      57          -114.623257406790458              0.3426279529D-01
  processed               24389202  ao basis integrals from 
                 40649  buffers.
      58          -114.619506285164135              0.1437394550D-01
  processed               24389202  ao basis integrals from 
                 40649  buffers.
      59          -114.620438919351784              0.2678506891D-01
 
 sum over diagonal and offdiagdiagonal of C(T)*S*C for irrep
                     1
  8.164580123093401E-013  7.148735662440997E-013
 reorthoganalization of MOs is carried out
 sum over diagonal and offdiagdiagonal of C(T)*S*C for irrep
                     1
  8.737455203799982E-014  9.786940814240014E-014
  processed               24389202  ao basis integrals from 
                 40649  buffers.
      60          -114.623423178999303              0.1225875008D-01
  processed               24389202  ao basis integrals from 
                 40649  buffers.
      61          -114.623576279495552              0.3139748549D-02
  processed               24389202  ao basis integrals from 
                 40649  buffers.
      62          -114.625353209546660              0.8621463371D-02
  processed               24389202  ao basis integrals from 
                 40649  buffers.
      63          -114.628399448905839              0.1059176655D-01
  processed               24389202  ao basis integrals from 
                 40649  buffers.
      64          -114.625519736483653              0.9073952933D-02
 
 sum over diagonal and offdiagdiagonal of C(T)*S*C for irrep
                     1
  1.075806110861777E-012  1.979823008781476E-013
 reorthoganalization of MOs is carried out
 sum over diagonal and offdiagdiagonal of C(T)*S*C for irrep
                     1
 -2.240430063693566E-013 -2.658165514817388E-013
  processed               24389202  ao basis integrals from 
                 40649  buffers.
      65          -114.624785647187252              0.1504000326D-01
  processed               24389202  ao basis integrals from 
                 40649  buffers.
      66          -114.622420384108096              0.8074678653D-02
  processed               24389202  ao basis integrals from 
                 40649  buffers.
      67          -114.627635756204342              0.1763062838D-01
  processed               24389202  ao basis integrals from 
                 40649  buffers.
      68          -114.634374719520792              0.1882555872D-01
  processed               24389202  ao basis integrals from 
                 40649  buffers.
      69          -114.636496638784223              0.4451947143D-02
 
 sum over diagonal and offdiagdiagonal of C(T)*S*C for irrep
                     1
  7.434053372890048E-013 -1.556692790592962E-013
 reorthoganalization of MOs is carried out
 sum over diagonal and offdiagdiagonal of C(T)*S*C for irrep
                     1
 -4.929390229335695E-014 -3.198669310339031E-013
  processed               24389202  ao basis integrals from 
                 40649  buffers.
      70          -114.622235917032725              0.3491718732D-01
  processed               24389202  ao basis integrals from 
                 40649  buffers.
      71          -114.622767751237944              0.9932598458D-03
  processed               24389202  ao basis integrals from 
                 40649  buffers.
      72          -114.623358842720876              0.3906601375D-02
  processed               24389202  ao basis integrals from 
                 40649  buffers.
      73          -114.623498721938802              0.2362413363D-02
  processed               24389202  ao basis integrals from 
                 40649  buffers.
      74          -114.627834044841904              0.1202380164D-01
 
 sum over diagonal and offdiagdiagonal of C(T)*S*C for irrep
                     1
  8.956169139651138E-013 -2.002174587341252E-013
 reorthoganalization of MOs is carried out
 sum over diagonal and offdiagdiagonal of C(T)*S*C for irrep
                     1
  1.729727472365994E-013  4.746525121133743E-013
  processed               24389202  ao basis integrals from 
                 40649  buffers.
      75          -114.628353799463412              0.3385469824D-02
  processed               24389202  ao basis integrals from 
                 40649  buffers.
      76          -114.624423533413818              0.1460271934D-01
  processed               24389202  ao basis integrals from 
                 40649  buffers.
      77          -114.620173419534609              0.1807373540D-01
  processed               24389202  ao basis integrals from 
                 40649  buffers.
      78          -114.620413439127077              0.4976105805D-02
  processed               24389202  ao basis integrals from 
                 40649  buffers.
      79          -114.625226987046744              0.1995702729D-01
 
 sum over diagonal and offdiagdiagonal of C(T)*S*C for irrep
                     1
  8.029132914089132E-013 -1.638044118792521E-013
 reorthoganalization of MOs is carried out
 sum over diagonal and offdiagdiagonal of C(T)*S*C for irrep
                     1
 -4.263256414560601E-014 -5.603350373199226E-014
  processed               24389202  ao basis integrals from 
                 40649  buffers.
      80          -114.626249089295499              0.2245992359D-01
  processed               24389202  ao basis integrals from 
                 40649  buffers.
      81          -114.626519250401429              0.1357740636D-02
  processed               24389202  ao basis integrals from 
                 40649  buffers.
      82          -114.627896135130044              0.6496022699D-02
  processed               24389202  ao basis integrals from 
                 40649  buffers.
      83          -114.624289331587306              0.1750175486D-01
  processed               24389202  ao basis integrals from 
                 40649  buffers.
      84          -114.621526376815524              0.1181012959D-01
 
 sum over diagonal and offdiagdiagonal of C(T)*S*C for irrep
                     1
  7.912559496503491E-013 -7.981850026717871E-013
 reorthoganalization of MOs is carried out
 sum over diagonal and offdiagdiagonal of C(T)*S*C for irrep
                     1
  1.366684543313568E-013  5.657382852375469E-013
  processed               24389202  ao basis integrals from 
                 40649  buffers.
      85          -114.609124496415092              0.3863169845D-01
  processed               24389202  ao basis integrals from 
                 40649  buffers.
      86          -114.624465408271050              0.5516878216D-01
  processed               24389202  ao basis integrals from 
                 40649  buffers.
      87          -114.624888990929861              0.3458232363D-02
  processed               24389202  ao basis integrals from 
                 40649  buffers.
      88          -114.623567806144592              0.1783218237D-01
  processed               24389202  ao basis integrals from 
                 40649  buffers.
      89          -114.624809602685644              0.6631621910D-02
 
 sum over diagonal and offdiagdiagonal of C(T)*S*C for irrep
                     1
  1.515010339403489E-012  1.404900884892866E-012
 reorthoganalization of MOs is carried out
 sum over diagonal and offdiagdiagonal of C(T)*S*C for irrep
                     1
  2.428057754855217E-013 -1.041687505172585E-013
  processed               24389202  ao basis integrals from 
                 40649  buffers.
      90          -114.625904960185238              0.4538050328D-02
[...]
[  5      15    ]-0.01768 [  5      12    ]-0.01707 [  4      20    ]-0.01696
[  5      18    ]-0.01633 [  4      14    ] 0.01339 [  6      19    ] 0.01315
[  3      10    ]-0.01297 [  4      19    ] 0.01166 [  3      15    ]-0.01086
[  3      12    ]-0.01049 [  5      21    ] 0.01017 [  3       7    ] 0.01007
-----------------------------------------------------------------------------
   Norm of T1BB vector (      660 symmetry allowed elements):  0.3594872622.
-----------------------------------------------------------------------------
   Largest T2 amplitudes for spin case BB:
   i   j   a   b             i   j   a   b             i   j   a   b
-----------------------------------------------------------------------------
[  5   3  15   7]-0.03160 [  5   3  10   7]-0.03071 [  5   3  17   7]-0.02252
[  5   3  22   7] 0.01708 [  6   5  19   7]-0.01627 [  6   5  24   7] 0.01625
[  5   4  20   7]-0.01424 [  5   3  12   7]-0.01233 [  5   3  16   7] 0.01228
[  5   4  11   7] 0.01215 [  5   3   8   7] 0.01072 [  5   2  23   7] 0.01067
[  6   5  20   7] 0.01058 [  5   4  14   7] 0.01054 [  5   2   8   7] 0.00963
-----------------------------------------------------------------------------
   Norm of T2BB vector (    89925 symmetry allowed elements):  0.1221250041.
-----------------------------------------------------------------------------
   Largest T2 amplitudes for spin case AB:
       _       _                 _       _                 _       _
   i   j   a   b             i   j   a   b             i   j   a   b
-----------------------------------------------------------------------------
[  4   5  15   7] 0.03860 [  4   5  10   7] 0.02866 [  7   6  21  20]-0.02779
[  4   5  17   7] 0.02772 [  6   5  13   7]-0.02441 [  7   6  11  20] 0.01910
[  7   6  21  11] 0.01906 [  7   6  11  11]-0.01905 [  6   5  20  21]-0.01894
[  2   5  15   7]-0.01881 [  4   5   9   7] 0.01787 [  3   5  16   7]-0.01724
[  5   5  21   7] 0.01707 [  6   5  18   7] 0.01701 [  6   5  23  23]-0.01625
-----------------------------------------------------------------------------
   Norm of T2AB vector (   503580 symmetry allowed elements):  0.3283520694.
-----------------------------------------------------------------------------
  W(mnij) AA contribution =  0.0051606973 a.u.
  W(mnij) BB contribution =  0.0070515532 a.u.
  W(mnij) AB contribution =  0.0683967811 a.u.
  W(abef) AA contribution =  0.0065569540 a.u.
  W(abef) BB contribution =  0.0093461276 a.u.
  W(abef) AB contribution =  0.0936879084 a.u.
  W(mbej) AA contribution =  -0.0111178832 a.u.
  W(mbej) BB contribution =  -0.0156124967 a.u.
  W(mbej) AB contribution = -0.2213863682 a.u.
   After  46 iterations, amplitude changes are:
    -------------------------------------------------------------------
                 Spin      RMS          Max.      Max. change for
     Amplitude   Case     Change       Change       i    j    a    b
    -------------------------------------------------------------------
        T1        AA    0.0000000000-0.0000000002    6        10
        T1        BB    0.0000000000 0.0000000012    3         7
        T2        AA    0.0000000000 0.0000000000    7    6   21   10
        T2        BB    0.0000000000-0.0000000001    5    4   14    7
        T2        AB    0.0000000000-0.0000000001    3    6   19    7
    -------------------------------------------------------------------
   The AA contribution to the correlation energy is:   -0.0463055 a.u.
   The BB contribution to the correlation energy is:   -0.0398568 a.u.
   The AB contribution to the correlation energy is:   -0.3246087 a.u.
   The total correlation energy is -0.410770974982 a.u.
   The total correlation energy is -0.410770974982 a.u.
  Current DIIS expansion coefficients : 
 [   1] 1.3360165108 [   2]-0.1713689694 [   3] 0.4967066221 [   4]-0.0317905519
 [   5]-0.6295636116
  Convergence information after    46 iterations: 
  Largest element of residual vector :  0.12006767E-08.
  Largest element of DIIS residual   :  0.10170856E-08.
  W(mnij) AA contribution =  0.0051606973 a.u.
  W(mnij) BB contribution =  0.0070515532 a.u.
  W(mnij) AB contribution =  0.0683967809 a.u.
  W(abef) AA contribution =  0.0065569540 a.u.
  W(abef) BB contribution =  0.0093461275 a.u.
  W(abef) AB contribution =  0.0936879082 a.u.
  W(mbej) AA contribution =  -0.0111178832 a.u.
  W(mbej) BB contribution =  -0.0156124966 a.u.
  W(mbej) AB contribution = -0.2213863678 a.u.
   After  47 iterations, amplitude changes are:
    -------------------------------------------------------------------
                 Spin      RMS          Max.      Max. change for
     Amplitude   Case     Change       Change       i    j    a    b
    -------------------------------------------------------------------
        T1        AA    0.0000000000 0.0000000001    4         8
        T1        BB    0.0000000000 0.0000000006    3         7
        T2        AA    0.0000000000 0.0000000000    7    6   21   10
        T2        BB    0.0000000000 0.0000000000    3    2   15    7
        T2        AB    0.0000000000 0.0000000001    6    5    8    8
    -------------------------------------------------------------------
   The AA contribution to the correlation energy is:   -0.0463055 a.u.
   The BB contribution to the correlation energy is:   -0.0398568 a.u.
   The AB contribution to the correlation energy is:   -0.3246087 a.u.
   The total correlation energy is -0.410770974877 a.u.
   The total correlation energy is -0.410770974877 a.u.
  Current DIIS expansion coefficients : 
 [   1]-0.3672087590 [   2] 1.4677956405 [   3] 0.0103347787 [   4]-0.0788684740
 [   5]-0.0320531862
  Convergence information after    47 iterations: 
  Largest element of residual vector :  0.59028754E-09.
  Largest element of DIIS residual   :  0.35096749E-09.
  Amplitude equations converged in    47iterations.
   The AA contribution to the correlation energy is:   -0.0463055 a.u.
   The BB contribution to the correlation energy is:   -0.0398568 a.u.
   The AB contribution to the correlation energy is:   -0.3246087 a.u.
   The total correlation energy is -0.410770974889 a.u.
   The total correlation energy is -0.410770974889 a.u.
   The CC iterations have converged.

            ----------------------------------------------
                     Projected spin multiplicities: 
            ----------------------------------------------
             <0|S^2|0>                  =    0.7500000000.
             <0|S^2 (T2+T1**2) |0>      =    0.0000000000.
             <0|S^2 T1|0>               =    0.0000000311.
             Projected <0|S^2 exp(T)|0> =    0.7500000311.
             Approximate spin mult.     =    2.0000000311.
            ----------------------------------------------
   Largest T1 amplitudes for spin case AA:
   i       a                 i       a                 i       a    
-----------------------------------------------------------------------------
[  6      15    ] 0.01965 [  6      13    ] 0.01654 [  4      15    ]-0.01649
[  4      10    ]-0.01398 [  6       8    ]-0.01327 [  6       9    ] 0.01218
[  6      10    ] 0.01184 [  4      17    ]-0.01167 [  6      17    ] 0.01163
[  6      16    ] 0.01124 [  4       8    ] 0.01111 [  6      18    ]-0.00920
[  4       9    ]-0.00861 [  6      25    ]-0.00844 [  4      13    ]-0.00794
-----------------------------------------------------------------------------
   Norm of T1AA vector (      763 symmetry allowed elements):  0.0607165419.
-----------------------------------------------------------------------------
   Largest T2 amplitudes for spin case AA:
   i   j   a   b             i   j   a   b             i   j   a   b
-----------------------------------------------------------------------------
[  7   6  13  11]-0.00807 [  7   6  20  14]-0.00723 [  5   3  19  16]-0.00708
[  7   6  14  12]-0.00692 [  7   6  21  13]-0.00676 [  7   6  20  19] 0.00629
[  5   3  26  18]-0.00618 [  7   6  19  12] 0.00605 [  5   3  46  45]-0.00598
[  6   4  25  10]-0.00594 [  7   6  31  20]-0.00588 [  6   4  18  10]-0.00574
[  7   4  15  14]-0.00551 [  5   3  45  26] 0.00545 [  5   3  19   8] 0.00540
-----------------------------------------------------------------------------
   Norm of T2AA vector (   123606 symmetry allowed elements):  0.1009164049.
-----------------------------------------------------------------------------
   Largest T1 amplitudes for spin case BB:
   i       a                 i       a                 i       a    
-----------------------------------------------------------------------------
[  5       7    ]-0.35144 [  2       7    ] 0.03241 [  5      16    ] 0.02601
[  5      15    ]-0.01768 [  5      12    ]-0.01707 [  4      20    ]-0.01696
[  5      18    ]-0.01633 [  4      14    ] 0.01339 [  6      19    ] 0.01315
[  3      10    ]-0.01297 [  4      19    ] 0.01166 [  3      15    ]-0.01086
[  3      12    ]-0.01049 [  5      21    ] 0.01017 [  3       7    ] 0.01007
-----------------------------------------------------------------------------
   Norm of T1BB vector (      660 symmetry allowed elements):  0.3594872590.
-----------------------------------------------------------------------------
   Largest T2 amplitudes for spin case BB:
   i   j   a   b             i   j   a   b             i   j   a   b
-----------------------------------------------------------------------------
[  5   3  15   7]-0.03160 [  5   3  10   7]-0.03071 [  5   3  17   7]-0.02252
[  5   3  22   7] 0.01708 [  6   5  19   7]-0.01627 [  6   5  24   7] 0.01625
[  5   4  20   7]-0.01424 [  5   3  12   7]-0.01233 [  5   3  16   7] 0.01228
[  5   4  11   7] 0.01215 [  5   3   8   7] 0.01072 [  5   2  23   7] 0.01067
[  6   5  20   7] 0.01058 [  5   4  14   7] 0.01054 [  5   2   8   7] 0.00963
-----------------------------------------------------------------------------
   Norm of T2BB vector (    89925 symmetry allowed elements):  0.1221250038.
-----------------------------------------------------------------------------
   Largest T2 amplitudes for spin case AB:
       _       _                 _       _                 _       _
   i   j   a   b             i   j   a   b             i   j   a   b
-----------------------------------------------------------------------------
[  4   5  15   7] 0.03860 [  4   5  10   7] 0.02866 [  7   6  21  20]-0.02779
[  4   5  17   7] 0.02772 [  6   5  13   7]-0.02441 [  7   6  11  20] 0.01910
[  7   6  21  11] 0.01906 [  7   6  11  11]-0.01905 [  6   5  20  21]-0.01894
[  2   5  15   7]-0.01881 [  4   5   9   7] 0.01787 [  3   5  16   7]-0.01724
[  5   5  21   7] 0.01707 [  6   5  18   7] 0.01701 [  6   5  23  23]-0.01625
-----------------------------------------------------------------------------
   Norm of T2AB vector (   503580 symmetry allowed elements):  0.3283520691.
-----------------------------------------------------------------------------
       Summary of iterative solution of CC equations 
      -----------------------------------------------------------
                       Correlation           Total
       Iteration         Energy              Energy
      -----------------------------------------------------------
            0        -0.373268366244    -115.032330286229  DIIS 
            1        -0.390584036625    -115.049645956610  DIIS 
            2        -0.400133817562    -115.059195737547  DIIS 
            3        -0.402758247974    -115.061820167959  DIIS 
            4        -0.404663785498    -115.063725705484  DIIS 
            5        -0.408479866386    -115.067541786371  DIIS 
            6        -0.410178179354    -115.069240099340  DIIS 
            7        -0.410343793156    -115.069405713142  DIIS 
            8        -0.410510488000    -115.069572407985  DIIS 
            9        -0.410879124081    -115.069941044066  DIIS 
           10        -0.410770995450    -115.069832915435  DIIS 
           11        -0.410767939559    -115.069829859544  DIIS 
           12        -0.410764756994    -115.069826676980  DIIS 
           13        -0.410779577264    -115.069841497249  DIIS 
           14        -0.410785933614    -115.069847853600  DIIS 
           15        -0.410788009061    -115.069849929046  DIIS 
           16        -0.410781071081    -115.069842991066  DIIS 
           17        -0.410774277642    -115.069836197628  DIIS 
           18        -0.410771286113    -115.069833206098  DIIS 
           19        -0.410770568848    -115.069832488833  DIIS 
           20        -0.410770845928    -115.069832765913  DIIS 
           21        -0.410770564927    -115.069832484913  DIIS 
           22        -0.410770824082    -115.069832744067  DIIS 
           23        -0.410770995805    -115.069832915791  DIIS 
           24        -0.410771111752    -115.069833031737  DIIS 
           25        -0.410771155952    -115.069833075938  DIIS 
           26        -0.410771073871    -115.069832993857  DIIS 
           27        -0.410771047128    -115.069832967114  DIIS 
           28        -0.410771000411    -115.069832920396  DIIS 
           29        -0.410770987698    -115.069832907684  DIIS 
           30        -0.410770975450    -115.069832895435  DIIS 
           31        -0.410770976088    -115.069832896074  DIIS 
           32        -0.410770974844    -115.069832894830  DIIS 
           33        -0.410770975035    -115.069832895021  DIIS 
           34        -0.410770974848    -115.069832894834  DIIS 
           35        -0.410770974681    -115.069832894666  DIIS 
           36        -0.410770974655    -115.069832894640  DIIS 
           37        -0.410770974721    -115.069832894706  DIIS 
           38        -0.410770975100    -115.069832895085  DIIS 
           39        -0.410770975277    -115.069832895262  DIIS 
           40        -0.410770975308    -115.069832895293  DIIS 
           41        -0.410770975082    -115.069832895068  DIIS 
           42        -0.410770974137    -115.069832894122  DIIS 
           43        -0.410770974259    -115.069832894244  DIIS 
           44        -0.410770974171    -115.069832894156  DIIS 
           45        -0.410770974857    -115.069832894842  DIIS 
           46        -0.410770974982    -115.069832894968  DIIS 
           47        -0.410770974889    -115.069832894874  DIIS 
      -----------------------------------------------------------
      A miracle has come to pass. The CC iterations have converged.
 @DIMT3-I, Dimensions of T3 amplitudes : 
               # abc          # ijk       Symmetry    Spin 
                   209934             35     1          1
                   647460            126     1          2
                   653455            105     1          3
                   215820             20     1          4
 @DIMT3-I, Dimensions of T3 amplitudes : 
               # abc          # ijk       Symmetry    Spin 
                   209934             35     1          1
                   647460            126     1          2
                   653455            105     1          3
                   215820             20     1          4
 @TRPS-I, Welcome to TRPS. Watch your RUs ! 
 @TRPS-I, Method is CCSD(T) 
 @TRPS-I, Calculation type is energy 
 @TRPS-I, Reference function information : 
          Reference function is general non-HF 
 @TRPS-I, Reference function is ROHF 
 @TRPS-I, INT1 is true 
 @TRPS-I, INT2 is false 
 @TRPS-I, Lengths of ijka integrals. #1      16023
                                     #2       9900
                                     #3      27468
                                     #4      32340
                                    Max      32340
 @INITRP-I, Initializing W intermediate lists. 
 @TSPABCI-I, AbIc/AbcI record transposition. 
 @TSPABCI-I, (O,v) ---> (v,O) transposition. 
 @TSPABCI-I, In-core algorithm is being used. 
 @TRPS-I, Available memory in integer words    499959040
          Number of pre-allocated words for TRPS14        97221
          Number of free words for TRPS14    499861819
 @TRPS14-I, Spin case AAA 
 @TRPS14-I, Number of free integer words  499861819
            Number of free double words   499861819
            Ratio                                 1
 @TRPS14-I, E4TAAA      -0.000313711830
 @TRPS14-I, E5ST A    0.000016026339453
 @TRPS14-I, E4ST A   -0.000002561935220
 @TRPS-I, Available memory in integer words    499959040
          Number of pre-allocated words for TRPS14        97215
          Number of free words for TRPS14    499861825
 @TRPS14-I, Spin case BBB 
 @TRPS14-I, Number of free integer words  499861825
            Number of free double words   499861825
            Ratio                                 1
 @TRPS14-I, E4TBBB      -0.000552380956
 @TRPS14-I, E5ST B    0.000182798790105
 @TRPS14-I, E4ST B    0.000001050576407
 @SETOOOV-I, Some OOOV lists are being transposed. 
 @TRPS-I, Available memory in integer words    499959040
          Number of pre-allocated words for TRPS2       376246
          Number of free words for TRPS2    499582794
 @TRPS2-I, Spin case AAB 
 @TRPS2-I, Number of free integer words  499582794
           Number of free double  words  499582794
           Ratio                                 1
 @TRPS2-I, E4TBAA      -0.008111048146
 @TRPS2-I, E5ST A    0.000083132073302
 @TRPS2-I, E5ST B    0.001212417382978
 @TRPS2-I, E4ST A    0.000014419052638
 @TRPS2-I, E4ST B   -0.000004199272287
 @SETOOOV-I, Some OOOV lists are being transposed. 
 @TSPABCI2-I, (Alpha,Beta) ---> (Beta,Alpha). 
 @TSPABCI2-I, In-core algorithm is being used. 
 @TSPABCI2-I, In-core algorithm is being used. 
 @AT2IAB-I, Some AbIj lists are being altered. 
 @TRPS-I, Available memory in integer words    499959040
          Number of pre-allocated words for TRPS3       765848
          Number of free words for TRPS3    499193192
 @TRPS3-I, Spin case BBA 
 @TRPS3-I, Number of free integer words  499193192
           Number of free double  words  499193192
           Ratio                                 1
 @TRPS3-I, E4TBBA      -0.007884695928
 @TRPS3-I, E5ST A    0.000095501363461
 @TRPS3-I, E5ST B    0.002821017798715
 @TRPS3-I, E4ST A    0.000020868409601
 @TRPS3-I, E4ST B   -0.000011436728718
 @TSPABCI2-I, (Beta,Alpha) ---> (Alpha,Beta). 
 @TSPABCI2-I, In-core algorithm is being used. 
 @TSPABCI2-I, In-core algorithm is being used. 
 @AT2IAB-I, Some AbIj lists are being altered. 
 @TSPABCI-I, AbIc/AbcI record transposition. 
 @TSPABCI-I, (v,O) ---> (O,v) transposition. 
 @TSPABCI-I, In-core algorithm is being used. 
 @CCENRG-I, CCSD/QCISD energy will now be evaluated. 
 @CCENRG-I, Correlation energies. ECCAA       -0.046305479552
                                  ECCBB       -0.039856827782
                                  ECCAB       -0.324608667555
                                  Total       -0.410770974889
 @CCENRG-I, Reference   energy    -114.659061919985
            CCSD/QCISD energy     -115.069832894874
          E4T (T(CCSD)) = -0.016861836859
          E5ST          =  0.002916519162
          E4ST          =  0.000009431681
          In other words  
          <T3[2](Dagger) D3  T3[2]> = -0.016861836859
          <T1   (Dagger) Q1 WT3[2]> =  0.002916519162
          <T2   (Dagger) Q2 FT3[2]> =  0.000009431681
        E(CCSD)           =    -115.069832894874
        E(CCSD(T))        =    -115.083768780890
  @CHECKOUT-I, Total execution time (CPU/WALL):     3227.25/    4749.74 seconds.
--executable xvcc finished with status     0 in     4751.73 seconds (walltime).
  The final electronic energy is      -115.083768780890239 a.u. 
  This computation required                         7577.68 seconds (walltime).
--- SharcNET Job Epilogue ---
Job completed successfully.
               jobid: 1968080
               resid: 3436211
         exit status: 0
      allocated time: 7578.82
           user time: 5462.59
         system time: 450.99
peak rss=2147483648; peak vsz=2193891328 (bytes)
atime=7578.82; utime=5462.59; stime=450.99; exit=0
