 --invoking executable--
/home/nike/cfour_v2.00beta/bin/xjoda


   *************************************************************************
         <<<     CCCCCC     CCCCCC   |||     CCCCCC     CCCCCC   >>>
       <<<      CCC        CCC       |||    CCC        CCC         >>>
      <<<      CCC        CCC        |||   CCC        CCC            >>>
    <<<        CCC        CCC        |||   CCC        CCC              >>>
      <<<      CCC        CCC        |||   CCC        CCC            >>>
       <<<      CCC        CCC       |||    CCC        CCC         >>>
         <<<     CCCCCC     CCCCCC   |||     CCCCCC     CCCCCC   >>>
   *************************************************************************

     ****************************************************************
     * CFOUR Coupled-Cluster techniques for Computational Chemistry *
     ****************************************************************
 

   Department of Chemistry                Institut fuer Physikalische Chemie
   University of Texas at Austin          Universitaet Mainz
   Austin, TX  78712, USA                 D-55099 Mainz, Germany
 
                       Version 2.00beta
 
                     wob128                                            
                     Tue Jun 12 22:56:56 EDT 2018                      
                     integer*8 version is running
 
********************************************************************************
*                          Input from ZMAT file                                *
********************************************************************************
TITLE                                                                           
N                                                                               
                                                                                
*ACES2(CALC=CCSD                                                                
FROZEN_CORE=ON                                                                  
#DROPMO=1                                                                       
INPUT_MRCC=OFF                                                                  
CC_PROG=MRCC                                                                    
XFORM_TOL=18                                                                    
SAVE_INTS=ON                                                                    
SCF_EXPORDER=6                                                                  
SCF_EXPSTART=5                                                                  
#SCF_DAMPING=1000                                                               
SCF_EXTRAPOLATION=ON                                                            
SCF_CONV=10                                                                     
SCF_MAXCYC=9999                                                                 
CC_CONV=10                                                                      
CC_MAXCYC=999                                                                   
T3_EXTRAPOL=ON                                                                  
REFERENCE=ROHF                                                                  
CHARGE=+1                                                                       
MULT=3                                                                          
ABCDTYPE=STANDARD                                                               
OCCUPATION=2-1-1-0-0-0-0-0/2-0-0-0-0-0-0-0                                      
MEM=32                                                                          
MEM_UNIT=GB                                                                     
BASIS=SPECIAL)                                                                  
                                                                                
N:aVTZ-EMSL                                                                     
                                                                                
********************************************************************************
  @GTFLGS-W, Keyword #DROPMO not known and is ignored.
  @GTFLGS-W, Keyword #SCF_DAMPING not known and is ignored.
    -------------------------------------------------------------------
                    CFOUR Control Parameters 
    -------------------------------------------------------------------
        External           Internal           Value            Units
          Name               Name
    -------------------------------------------------------------------
       ABCDTYPE             IABCDT         STANDARD     [  0]   ***   
       ANHARMONIC           IANHAR         OFF          [  0]   ***   
       ANH_ALGORIT          IANALG         STANDARD     [  0]   ***   
       ANH_DERIVAT          IANDER         SECOND       [  1]   ***   
       ANH_STEPSIZ          ICUBST             50000          x 10-6  
       ANH_SYMMETR          IANHSM         ABELIAN      [  0]   ***   
       AO_LADDERS           IAOLAD         SINGLEPASS   [  1]   ***   
       BASIS                IBASIS         SPECIAL      [  0]   ***   
       BREIT                IBREIT         OFF          [  0]   ***   
       BRUCK_CONV           IBRTOL          10D-  4             ***   
       BRUECKNER            IBRKNR             OFF      [  0]   ***   
       BUFFERSIZE           IBUFFS            600               ***   
       CACHE_RECS           ICHREC             10               ***   
       CALCLEVEL            ICLLVL           CCSD       [ 10]   ***   
       CCORBOPT             ICCORB             OFF      [  0] x 0.01  
       CC_CONV              ICCCNV          10D- 10             ***   
       CC_EXPORDER          ICCEOR              5               ***   
       CC_EXTRAPOL          ICCEXT             DIIS     [  1]   ***   
       CC_MAXCYC            ICCCYC            999              cycles 
       CC_PROGRAM           ICCPRO         MRCC         [  2]   ***   
       CHARGE               ICHRGE              1               ***   
       CHOLESKY             ICHOLE         OFF          [  0]   ***   
       CIS_CONV             ICISTL              5               ***   
       COMM_SIZE            IPSIZE            ***               ***   
       CONSTANT             ICONST         OLD          [  1]   ***   
       CONTINUUM            ICONTU         NONE         [  0]   ***   
       CONTRACTION          ICNTYP          GENERAL     [  1]   ***   
       COORDINATES          ICOORD         INTERNAL     [  0]   ***   
       CPHF_CONVER          ICPHFT          10D- 16             ***   
       CPHF_MAXCYC          ICPHFC             64              cycles 
       CUBIC                ICUBIC         OFF          [  0]   ***   
       CURVILINEAR          ICURVY            OFF       [  0]   ***   
       DBOC                 IDBOC          OFF          [  0]   ***   
       DCT                  IDCT           OFF          [  0]   ***   
       DERIV_LEV            IDRLVL            ZERO      [  0]   ***   
       DIAG_MRCC            IEOMST          10D-  0             ***   
       DIFF_TYPE            IDIFTY         RELAXED      [  0]   ***   
       DIRECT               IDIRCT         OFF          [  0]   ***   
       DROPMO               IDRPMO      NONE         
       ECP                  IECP           OFF          [  0]   ***   
       EIGENVECTOR          IVEC                1               ***   
       EL_ANHARM            IELANH         OFF          [  0]   ***   
       EOMFOLLOW            IEOMSR         ENERGY       [  0]   ***   
       EOM_MRCC             IMRCCE         NEW          [  1]   ***   
       EOM_NONIT            EOMNON         OFF          [  0]   ***   
       EOM_NSING            IEOMSI          10D-  0             ***   
       EOM_NSTATES          IMRCCD         DAVIDSON     [  0]   ***   
       EOM_NTRIP            IEOMTR          10D-  0             ***   
       EOM_ORDER            IEXORD         ENERGY       [  0]   ***   
       ESTATE_CONV          IEXTOL          10D-  5             ***   
       ESTATE_DIAG          IEXDIG         ITERATIVE    [  0]   ***   
       ESTATE_LOCK          IESLOC         ON           [  1]   ***   
       ESTATE_MAXC          IEXMXC             20               ***   
       ESTATE_PROP          IEXPRP         OFF          [  0]   ***   
       EVAL_HESS            IRECAL              0            # of cyc.
       EXCITATION           IEXCIT              0               ***   
       EXCITE               IEXCIT         NONE         [  0]   ***   
       FCGRADNEW            IFCGNW         OFF          [  0]   ***   
       FC_FIELD             IFINFC              0             x 10-6  
       FD_CALTYPE           IFDCAL         GRADONLY     [  0]   ***   
       FD_PROJECT           IFDPRJ         OFF          [  1]   ***   
       FD_STEPSIZE          IDISFD              0            10-4 bohr
       FD_USEGROUP          IFDGRP         FULL         [  0]   ***   
       FILE_RECSIZ          IFLREC              4096           words  
       FINITE_PERT          IFIPER              0             x 10-6  
       FIXGEOM              IFIXGM         OFF          [  0]   ***   
       FOCK                 IFOCK          AO           [  1]   ***   
       FREQ_ALGORI          IVIALG         STANDARD     [  0]   ***   
       FROZEN_CORE          IFROCO         ON           [  1]   ***   
       FROZEN_VIRT          IFROVI         OFF          [  0]   ***   
       GAMMA_ABCD           IGABCD         STORE        [  0]   ***   
       GAMMA_ABCI           IGABCI         STORE        [  0]   ***   
       GENBAS_1             IGNBS1              0               ***   
       GENBAS_2             IGNBS2              0               ***   
       GENBAS_3             IGNBS3              0               ***   
       GENBAS_4             IGNBS4              0               ***   
       GEO_CONV             ICONTL              5              H/bohr 
       GEO_MAXCYC           IOPTCY             50               ***   
       GEO_MAXSTEP          IMXSTP            300            millibohr
       GEO_METHOD           INR            SINGLE_POINT [  5]   ***   
       GIAO                 IGIAO          OFF          [  1]   ***   
       GIMIC                IGIMIC         OFF          [  0]   ***   
       GRID                 IGRID          OFF          [  0]   ***   
       GRID_ALGO            IGALGO         SERIAL       [  0]   ***   
       GUESS                IGUESS            MOREAD    [  0]   ***   
       HBAR                 IHBAR              OFF      [  0]   ***   
       HESS_TYPE            IHESTP         SCF          [  0]   ***   
       HF2_FILE             IHF2Fl         USE          [  1]   ***   
       HFSTABILITY          ISTABL         OFF          [  0]   ***   
       INCORE               INCORE             OFF      [  0]   ***   
       INPUT_MRCC           IMRCC          OFF          [  0]   ***   
       INTEGRALS            INTTYP             VMOL     [  1]   ***   
       JODA_PRINT           IJPRNT              0               ***   
       LINDEP_TOL           ILINDP              8               ***   
       LINEQ_CONV           IZTACN          10D-  7           cycles  
       LINEQ_EXPOR          ILMAXD              5               ***   
       LINEQ_MAXCY          ILMAXC             50               ***   
       LINEQ_TYPE           ILTYPE         DIIS         [  1]   ***   
       LOCK_ORBOCC          ILOCOC             OFF      [  0]   ***   
       MEMORY_SIZE          IMEMSZ         *********           words  
       MEM_UNIT             IMEMU          GB           [  3]   ***   
       MRCC                 IMRCCC         OFF          [  0]   ***   
       MULTIPLICTY          IMULTP              3               ***   
       NEGEVAL              IDIE             ABORT      [  0]   ***   
       NEWNORM              INEWNO         OFF          [  0]   ***   
       NON-HF               INONHF              ON      [  1]   ***   
       NTOP_TAMP            ITOPT2             15               ***   
       NUC_MODEL            INUCMO         POINT        [  0]   ***   
       OCCUPATION           IOCCU  A   2,  1,  1,  0,  0,  0,  0,  0,
                                   B   2,  0,  0,  0,  0,  0,  0,  0,
       OPEN-SHELL           IOPEN          SPIN-ORBITAL [  0]   ***   
       ORBITALS             IORBTP         SEMICANONICAL[  1]   ***   
       PARALLEL             IPARAL         ON           [  1]   ***   
       PARA_INT             IPINTS         ON           [  1]   ***   
       PARA_PRINT           IPPRIN              0               ***   
       PERT_ORB             IPTORB         STANDARD     [  0]   ***   
       POINTS               IGRDFD              0               ***   
       PRINT                IPRNT               0               ***   
       PROPS                IPROPS             OFF      [  0]   ***   
       PROP_INTEGR          IINTYP         INTERNAL     [  0]   ***   
       PSI                  IPSI           OFF          [  0]   ***   
       QUARTIC              IQUART         OFF          [  0]   ***   
       RAMAN_INT            IRAMIN         OFF          [  0]   ***   
       RAMAN_ORB            IRAMRE         UNRELAXED    [  0]   ***   
       RDO                  IRDOFM             OFF      [  0]   ***   
       REFERENCE            IREFNC             ROHF     [  2]   ***   
       RELATIVIST           IRELAT         OFF          [  0]   ***   
       RELAX_DENS           IRDENS             OFF      [  0]   ***   
       RESET_FLAGS          IRESET             OFF      [  0]   ***   
       RESTART_CC           ICCRES         OFF          [  0]   ***   
       ROT_EVEC             ROTVEC              0               ***   
       SAVE_INTS            ISVINT              ON      [  1]   ***   
       SCALE_ON             ISTCRT              0               ***   
       SCF_CONV             ISCFCV          10D- 10             ***   
       SCF_DAMPING          IDAMP               0             x 10-3  
       SCF_EXPORDE          IRPPOR              6               ***   
       SCF_EXPSTAR          IRPPLS              5               ***   
       SCF_EXTRAPO          IRPP                ON      [  1]   ***   
       SCF_MAXCYC           ISCFCY            ***              cycles 
       SCF_NOSTOP           ISCFST         OFF          [  0]   ***   
       SCF_PRINT            ISCFPR              0               ***   
       SD_FIELD             IFINSD              0             x 10-6  
       SEQUENCE             ISEQUE         OFF          [  0]   ***   
       SOPERT               IPERSO         OFF          [  0]   ***   
       SPHERICAL            IDFGHI             ON       [  1]   ***   
       SPINORBIT            ISOCAL         OFF          [  0]   ***   
       SPINROTATIO          ISRCON         OFF          [  0]   ***   
       SPIN_FLIP            ISPFLP         OFF          [  0]   ***   
       SPIN_ORBIT           ISPORB         OFF          [  0]   ***   
       SPIN_SCAL            ISCSMP         OFF          [  0]   ***   
       SUBGROUP             ISUBGP         DEFAULT      [  0]   ***   
       SUBGRPAXIS           ISBXYZ         X            [  0]   ***   
       SYMMETRY             ISYM             ON         [  0]   ***   
       SYM_CHECK            ISYMCK         OVERRIDE     [  1]   ***   
       T3_EXTRAPOL          IT3EXT         ON           [  1]   ***   
       TAMP_SUM             IEVERY              5               ***   
       TESTSUITE            ITESTS         OFF          [  0]   ***   
       THERMOCH             ITHERM         OFF          [  0]   ***   
       TOL_CHOLESK          ITOLCH          10D-  4             ***   
       TRANGRAD             IRESRM         OFF          [  0]   ***   
       TRANS_INV            ITRAIN         USE          [  0]   ***   
       TREAT_PERT           ITREAT         SIMULTANEOUS [  0]   ***   
       UIJ_THRESHO          IUIJTH              1               ***   
       UNITS                IUNITS         ANGSTROM     [  0]   ***   
       UNOS                 IUNOS          OFF          [  0]   ***   
       UPDATE_HESS          IHUPDT         ON           [  1]   ***   
       VIBPHASE             ISETPH         STANDARD     [  0]   ***   
       VIBRATION            IVIB              NO        [  0]   ***   
       VIB_ALGORIT          IGEALG         STANDARD     [  0]   ***   
       VNATORB              IVNORB         OFF          [  0]   ***   
       VTRAN                IVTRAN         FULL/PARTIAL [  0]   ***   
       XFIELD               IXEFLD              0             x 10-6  
       XFORM_TOL            IXFTOL          10D- 18             ***   
       YFIELD               IYEFLD              0             x 10-6  
       ZFIELD               IZEFLD              0             x 10-6  
    -------------------------------------------------------------------
   1 entries found in Z-matrix 
   Job Title : TITLE                                                                           
  1  N          7    14.00307
 factor:   60.1997200000000     
   Rotational constants (in cm-1): 

   Rotational constants (in MHz): 

********************************************************************************
   The full molecular point group is I h .
   The largest Abelian subgroup of the full molecular point group is D2h .
   The computational point group is D2h .
********************************************************************************
  @GTFLGS-W, Keyword #DROPMO not known and is ignored.
  @GTFLGS-W, Keyword #SCF_DAMPING not known and is ignored.
  There is   1 frozen-core orbital.
  There is   1 frozen-core orbital.
  There are   46 basis functions.
 @GEOPT-W, Archive file not created for single-point calculation.
  @CHECKOUT-I, Total execution time (CPU/WALL):        0.25/       0.96 seconds.
--executable xjoda finished with status     0 in        1.11 seconds (walltime).
 --invoking executable--
/home/nike/cfour_v2.00beta/bin/xvmol
 Serial version of molecule started
********************************************************************************
                    Input from MOL file
********************************************************************************
INTGRL        1    0    1    0    0    0    0    0    0                         
         *** CFOUR Program System (Release V0.1) ***                            
TITLE                                                                           
    1    3 X  Y   Z   0.10E-08              0    0                              
   9999.00      3.00                                                            
          7.00000000    1    4    1    1    1    1                              
N #1   0.000000000000000   0.000000000000000   0.000000000000000                
   11    5                                                                      
   11420.0000000000       5.230000000000000E-004 -1.150000000000000E-004        
  0.000000000000000E+000  0.000000000000000E+000  0.000000000000000E+000        
   1712.00000000000       4.045000000000000E-003 -8.950000000000000E-004        
  0.000000000000000E+000  0.000000000000000E+000  0.000000000000000E+000        
   389.300000000000       2.077500000000000E-002 -4.624000000000000E-003        
  0.000000000000000E+000  0.000000000000000E+000  0.000000000000000E+000        
   110.000000000000       8.072699999999999E-002 -1.852800000000000E-002        
  0.000000000000000E+000  0.000000000000000E+000  0.000000000000000E+000        
   35.5700000000000       0.233074000000000      -5.733900000000000E-002        
  0.000000000000000E+000  0.000000000000000E+000  0.000000000000000E+000        
   12.5400000000000       0.433501000000000      -0.132076000000000             
  0.000000000000000E+000  0.000000000000000E+000  0.000000000000000E+000        
   4.64400000000000       0.347472000000000      -0.172510000000000             
  0.000000000000000E+000  0.000000000000000E+000  0.000000000000000E+000        
   1.29300000000000       4.126200000000000E-002  0.151814000000000             
   1.00000000000000       0.000000000000000E+000  0.000000000000000E+000        
  0.511800000000000      -8.508000000000000E-003  0.599944000000000             
  0.000000000000000E+000  0.000000000000000E+000  0.000000000000000E+000        
  0.178700000000000       2.384000000000000E-003  0.387462000000000             
  0.000000000000000E+000   1.00000000000000       0.000000000000000E+000        
  5.760000000000000E-002  0.000000000000000E+000  0.000000000000000E+000        
  0.000000000000000E+000  0.000000000000000E+000   1.00000000000000             
    6    4                                                                      
   26.6300000000000       1.467000000000000E-002  0.000000000000000E+000        
  0.000000000000000E+000  0.000000000000000E+000                                
   5.94800000000000       9.176400000000000E-002  0.000000000000000E+000        
  0.000000000000000E+000  0.000000000000000E+000                                
   1.74200000000000       0.298683000000000       0.000000000000000E+000        
  0.000000000000000E+000  0.000000000000000E+000                                
  0.555000000000000       0.498487000000000        1.00000000000000             
  0.000000000000000E+000  0.000000000000000E+000                                
  0.172500000000000       0.337023000000000       0.000000000000000E+000        
   1.00000000000000       0.000000000000000E+000                                
  4.910000000000000E-002  0.000000000000000E+000  0.000000000000000E+000        
  0.000000000000000E+000   1.00000000000000                                     
    3    3                                                                      
   1.65400000000000        1.00000000000000       0.000000000000000E+000        
  0.000000000000000E+000                                                        
  0.469000000000000       0.000000000000000E+000   1.00000000000000             
  0.000000000000000E+000                                                        
  0.151000000000000       0.000000000000000E+000  0.000000000000000E+000        
   1.00000000000000                                                             
    2    2                                                                      
   1.09300000000000        1.00000000000000       0.000000000000000E+000        
  0.364000000000000       0.000000000000000E+000   1.00000000000000             
FINISH                                                                          
 
********************************************************************************
 One- and two-electron integrals over symmetry-adapted AOs are calculated.

  Spherical harmonics are used.
  
  Integrals less than  0.10E-13 are neglected.

  Nuclear repulsion energy :    0.0000000000 a.u.
  required memory for a1 array                5088344  words 
  required memory for a2 array                2321804  words 
 @GETMEM-I,  Allocated      71 MB of main memory.
  @MOLECU-I, One electron integrals (CPU/WALL):        0.02/       0.03 seconds.
  @TWOEL-I,       2731 integrals of symmetry type  I I I I
  @TWOEL-I,      17249 integrals of symmetry type  I J I J
  @TWOEL-I,      11497 integrals of symmetry type  I I J J
  @TWOEL-I,      29967 integrals of symmetry type  I J K L
  @TWOEL-I, Total number of 2-e integrals      61444.
  @MOLECU-I, Two electron integrals (CPU/WALL):        0.11/       0.20 seconds.
  @CHECKOUT-I, Total execution time (CPU/WALL):        0.15/       0.29 seconds.
--executable xvmol finished with status     0 in        0.70 seconds (walltime).
 --invoking executable--
/home/nike/cfour_v2.00beta/bin/xvmol2ja
 @GETMEM-I,  Allocated   30517 MB of main memory.
  @CHECKOUT-I, Total execution time (CPU/WALL):        0.00/       0.02 seconds.
--executable xvmol2ja finished with status     0 in        0.16 seconds (walltime).
 --invoking executable--
/home/nike/cfour_v2.00beta/bin/xvscf
  There are   46 functions in the AO basis.

  There are 8 irreducible representations.

       Irrep        # of functions
         1                 11
         2                  8
         3                  8
         4                  3
         5                  8
         6                  3
         7                  3
         8                  2


  Parameters for SCF calculation: 
        SCF reference function: ROHF  
  Maximum number of iterations: 9999
     Full symmetry point group: I h 
     Computational point group: D2h 
        Initial density matrix: MOREAD                 
     SCF convergence tolerance: 10**(-10)
  DIIS convergence acceleration:  ON
          Latest start for DIIS:   5
                     DIIS order:   6

     Alpha population by irrep:   2    1    1    0    0    0    0    0
      Beta population by irrep:   2    0    0    0    0    0    0    0


  Memory information:     139288 words required.
  Fock matrices are constructed from AO integral file.
 @GETMEM-I,  Allocated       1 MB of main memory.
  Initialization and symmetry analysis required      0.002 seconds.

 total no. of electrons in initial guess :  0.000000000000000E+000
 total no. of electrons in initial guess :  0.000000000000000E+000
  --------------------------------------------------------------------
  Iteration         Total Energy            Largest Density Difference
  --------------------------------------------------------------------
       0             0.000000000000000              0.0000000000D+00
   current occupation vector 
     2  1  1  0  0  0  0  0
     2  0  0  0  0  0  0  0
       1           -51.104976731302884              0.6521895061D+01
   current occupation vector 
     2  1  1  0  0  0  0  0
     2  0  0  0  0  0  0  0
       2           -52.985086908560348              0.6272337642D+01
   current occupation vector 
     2  1  1  0  0  0  0  0
     2  0  0  0  0  0  0  0
       3           -53.857925571181546              0.1240588207D+01
   current occupation vector 
     2  1  1  0  0  0  0  0
     2  0  0  0  0  0  0  0
       4           -53.883910416738615              0.2206443294D+00
   current occupation vector 
     2  1  1  0  0  0  0  0
     2  0  0  0  0  0  0  0
       5           -53.884612814735988              0.4190280661D-01
   current occupation vector 
     2  1  1  0  0  0  0  0
     2  0  0  0  0  0  0  0
       6           -53.884638667236040              0.1056820586D-01
   current occupation vector 
     2  1  1  0  0  0  0  0
     2  0  0  0  0  0  0  0
       7           -53.884639875552267              0.1643554695D-02
   current occupation vector 
     2  1  1  0  0  0  0  0
     2  0  0  0  0  0  0  0
       8           -53.884640051665698              0.3896600701D-03
   current occupation vector 
     2  1  1  0  0  0  0  0
     2  0  0  0  0  0  0  0
       9           -53.884640051985464              0.2306756381D-04
   current occupation vector 
     2  1  1  0  0  0  0  0
     2  0  0  0  0  0  0  0
      10           -53.884640051985592              0.2540366561D-06
   current occupation vector 
     2  1  1  0  0  0  0  0
     2  0  0  0  0  0  0  0
      11           -53.884640051985549              0.3577111607D-07
   current occupation vector 
     2  1  1  0  0  0  0  0
     2  0  0  0  0  0  0  0
      12           -53.884640051985642              0.2254346619D-08
   current occupation vector 
     2  1  1  0  0  0  0  0
     2  0  0  0  0  0  0  0
      13           -53.884640051985620              0.5109440093D-09
   current occupation vector 
     2  1  1  0  0  0  0  0
     2  0  0  0  0  0  0  0

  SCF has converged.

 Density matrix saved to file den.dat
 total alpha spin electron number:   4.00000000000000     
 total  beta spin electron number:   1.99999999999999     
     E(ROHF)=       -53.884640051985556              0.8437514576D-11

  Eigenvector printing suppressed.


       The average multiplicity is    3.0000000
  The expectation value of S**2 is    2.0000000

 @PUTMOS-I, Writing converged MOs to NEWMOS. 
 @PUTMOS-I, Symmetry   1 Full Blocks  2 Partial Blocksize   3
 @PUTMOS-I, Symmetry   2 Full Blocks  2 Partial Blocksize   0
 @PUTMOS-I, Symmetry   3 Full Blocks  2 Partial Blocksize   0
 @PUTMOS-I, Symmetry   4 Full Blocks  0 Partial Blocksize   3
 @PUTMOS-I, Symmetry   5 Full Blocks  2 Partial Blocksize   0
 @PUTMOS-I, Symmetry   6 Full Blocks  0 Partial Blocksize   3
 @PUTMOS-I, Symmetry   7 Full Blocks  0 Partial Blocksize   3
 @PUTMOS-I, Symmetry   8 Full Blocks  0 Partial Blocksize   2
  @DMPJOB-I, Rotating orbitals to semicanonical basis.
             *** Eigenvalues correspond to new basis. ***



 
  ORBITAL EIGENVALUES (ALPHA)  (1H = 27.2113838 eV)

       MO #        E(hartree)               E(eV)           FULLSYM    COMPSYM
       ----   --------------------   --------------------   -------   ---------
    1     1         -16.3212403726        -444.1235361895      Ag        Ag (1)
    2     2          -1.6132312352         -43.8982543313      Ag        Ag (1)
    3    20          -1.1094825166         -30.1905545994       u       B3u (3)
    4    12          -1.1094825166         -30.1905545994       u       B2u (2)
  +++++++++++++++++++++++++++++++++++++++++++++++++++++++++++++++++++++++++++++
    5    31          -0.4674209837         -12.7191717933      Au       B1u (5)
    6     3          -0.1252949025          -3.4094476832      Ag        Ag (1)
    7    21          -0.0792386098          -2.1561922247       u       B3u (3)
    8    13          -0.0792386098          -2.1561922247       u       B2u (2)
    9    32          -0.0702270330          -1.9109747505      Au       B1u (5)
   10     4           0.1559859618           4.2445938780      Ag        Ag (1)
   11    42           0.1564589317           4.2574640418       g       B2g (7)
   12    39           0.1564589317           4.2574640418       g       B3g (6)
   13     5           0.1582027393           4.3049154614       g        Ag (1)
   14    28           0.1582027393           4.3049154614       g       B1g (4)
   15    22           0.3649766682           9.9315202030       u       B3u (3)
   16    14           0.3649766682           9.9315202030       u       B2u (2)
   17    33           0.4090708109          11.1313828461      Au       B1u (5)
   18     6           0.5755882535          15.6625528878      Ag        Ag (1)
   19     7           1.0682960844          29.0698147860       g        Ag (1)
   20    29           1.0682960844          29.0698147860       g       B1g (4)
   21    43           1.0825123465          29.4566589511       g       B2g (7)
   22    40           1.0825123465          29.4566589511       g       B3g (6)
   23     8           1.0876666754          29.5969153725      Ag        Ag (1)
   24    34           1.0967759454          29.8447912137      Au       B1u (5)
   25    23           1.0987325747          29.8980338045       u       B3u (3)
   26    15           1.0987325747          29.8980338045       u       B2u (2)
   27    45           1.1046594235          30.0593115619       u        Au (8)
   28    35           1.1046594235          30.0593115619       u       B1u (5)
   29    16           1.1146712753          30.3317479047       u       B2u (2)
   30    24           1.1146712753          30.3317479047       u       B3u (3)
   31    17           2.7351798111          74.4280276557       u       B2u (2)
   32    25           2.7351798111          74.4280276557       u       B3u (3)
   33    36           2.7868628560          75.8343948268      Au       B1u (5)
   34    37           4.3055557410         117.1601298239      Au       B1u (5)
   35    18           4.3087705091         117.2476081126       u       B2u (2)
   36    26           4.3087705091         117.2476081126       u       B3u (3)
   37    46           4.3184477359         117.5109388451       u        Au (8)
   38    38           4.3184477359         117.5109388451       u       B1u (5)
   39    27           4.3346701589         117.9523734243       u       B3u (3)
   40    19           4.3346701589         117.9523734243       u       B2u (2)
   41    30           4.4285947173         120.5081906334       g       B1g (4)
   42     9           4.4285947173         120.5081906334       g        Ag (1)
   43    41           4.4374019673         120.7478480951       g       B3g (6)
   44    44           4.4374019673         120.7478480951       g       B2g (7)
   45    10           4.4404847455         120.8317347550      Ag        Ag (1)
   46    11           5.7529952891         156.5469629228      Ag        Ag (1)


 
  ORBITAL EIGENVALUES ( BETA)  (1H = 27.2113838 eV)

       MO #        E(hartree)               E(eV)           FULLSYM    COMPSYM
       ----   --------------------   --------------------   -------   ---------
    1     1         -16.2490491492        -442.1591131034      Ag        Ag (1)
    2     2          -1.3126599716         -35.7192943129      Ag        Ag (1)
  +++++++++++++++++++++++++++++++++++++++++++++++++++++++++++++++++++++++++++++
    3    31          -0.3984711001         -10.8429500461      Au       B1u (5)
    4    20          -0.3318315532          -9.0295957588       u       B3u (3)
    5    12          -0.3318315532          -9.0295957588       u       B2u (2)
    6     3          -0.1146315457          -3.1192829878      Ag        Ag (1)
    7    32          -0.0646315366          -1.7587135483      Au       B1u (5)
    8    21          -0.0532506461          -1.4490237702       u       B3u (3)
    9    13          -0.0532506461          -1.4490237702       u       B2u (2)
   10     4           0.1659892487           4.5167971572      Ag        Ag (1)
   11    42           0.1701796490           4.6308237471       g       B2g (7)
   12    39           0.1701796490           4.6308237471       g       B3g (6)
   13     5           0.1823886527           4.9630476337       g        Ag (1)
   14    28           0.1823886527           4.9630476337       g       B1g (4)
   15    33           0.4315215797          11.7422993317      Au       B1u (5)
   16    22           0.4710424093          12.8177157937       u       B3u (3)
   17    14           0.4710424093          12.8177157937       u       B2u (2)
   18     6           0.6314634432          17.1829941202      Ag        Ag (1)
   19    34           1.1098059188          30.1993548216      Au       B1u (5)
   20    23           1.1132332969          30.2926185237       u       B2u (3)
   21    15           1.1132332969          30.2926185237       u       B3u (2)
   22    45           1.1235852433          30.5743093102       u        Au (8)
   23    35           1.1235852433          30.5743093102       u       B1u (5)
   24     7           1.1403338074          31.0300609148      Ag        Ag (1)
   25    24           1.1411461310          31.0521653659       u       B3u (3)
   26    16           1.1411461310          31.0521653659       u       B2u (2)
   27    43           1.1534475133          31.3869029995       g       B2g (7)
   28    40           1.1534475133          31.3869029995       g       B3g (6)
   29    29           1.1922890879          32.4438359941       g       B1g (4)
   30     8           1.1922890879          32.4438359941       g        Ag (1)
   31    36           2.8233497572          76.8272539013      Au       B1u (5)
   32    17           2.8922507746          78.7021459291       u       B2u (2)
   33    25           2.8922507746          78.7021459291       u       B3u (3)
   34    37           4.3529416349         118.4495655723      Au       B1u (5)
   35    18           4.3614877321         118.6821167035       u       B2u (2)
   36    26           4.3614877321         118.6821167035       u       B3u (3)
   37    46           4.3873190552         119.3850227504       u        Au (8)
   38    38           4.3873190552         119.3850227504       u       B1u (5)
   39    27           4.4311430335         120.5775338447       u       B3u (3)
   40    19           4.4311430335         120.5775338447       u       B2u (2)
   41     9           4.5180395186         122.9421074537      Ag        Ag (1)
   42    41           4.5393674035         123.5224687142       g       B3g (6)
   43    44           4.5393674035         123.5224687142       g       B2g (7)
   44    30           4.6037921145         125.2755542527       g       B1g (4)
   45    10           4.6037921145         125.2755542527       g        Ag (1)
   46    11           5.8266725723         158.5518237561      Ag        Ag (1)


  VSCF finished.

  @CHECKOUT-I, Total execution time (CPU/WALL):        0.16/       0.75 seconds.
--executable xvscf finished with status     0 in        0.90 seconds (walltime).
 --invoking executable--
/home/nike/cfour_v2.00beta/bin/xvtran
 @GETMEM-I,  Allocated   30517 MB of main memory.
  Full UHF integral transformation
  The following   1 alpha MOs will be dropped.
    1
  There are  45 active alpha molecular orbitals.
  The following   1 beta MOs will be dropped.
    1
  There are  45 active beta molecular orbitals.
  Transformation of IIII integrals :
  2 passes through the AO integral file were required.
        2731 AO integrals were read.
        3607 MO integrals (Spin case AAAA) were written to HF2AA.
        3607 MO integrals (Spin case BBBB) were written to HF2BB.
        7030 MO integrals (Spin case AABB) were written to HF2AB.
  Transformation of IIJJ integrals :
  2 passes through the AO integral file were required.
       11497 AO integrals were read.
       13413 MO integrals (Spin case AAAA) were written to HF2AA.
       13413 MO integrals (Spin case BBBB) were written to HF2BB.
       26826 MO integrals (Spin case AABB) were written to HF2AB.
  Transformation of IJIJ integrals :
  2 passes through the AO integral file were required.
       17249 AO integrals were read.
       20871 MO integrals (Spin case AAAA) were written to HF2AA.
       20871 MO integrals (Spin case BBBB) were written to HF2BB.
       40891 MO integrals (Spin case AABB) were written to HF2AB.
  Transformation of IJKL integrals :
  2 passes through the AO integral file were required.
       29967 AO integrals were read.
       31962 MO integrals (Spin case AAAA) were written to HF2AA.
       31962 MO integrals (Spin case BBBB) were written to HF2BB.
       63924 MO integrals (Spin case AABB) were written to HF2AB.
  Summary of active molecular orbitals: 
------------------------------------------------------------------------
                         * Spin case alpha *
 
  Index      Eigenvalue    Symmetry    Index      Eigenvalue    Symmetry
------------------------------------------------------------------------
     1        -1.6132312        1        24         2.7351798        3
     2        -1.1094825        2        25         4.3087705        3
     3        -1.1094825        3        26         4.3346702        3
     4        -0.1252949        1        27         0.1582027        4
     5         0.1559860        1        28         1.0682961        4
     6         0.1582027        1        29         4.4285947        4
     7         0.5755883        1        30        -0.4674210        5
     8         1.0682961        1        31        -0.0702270        5
     9         1.0876667        1        32         0.4090708        5
    10         4.4285947        1        33         1.0967759        5
    11         4.4404847        1        34         1.1046594        5
    12         5.7529953        1        35         2.7868629        5
    13        -0.0792386        2        36         4.3055557        5
    14         0.3649767        2        37         4.3184477        5
    15         1.0987326        2        38         0.1564589        6
    16         1.1146713        2        39         1.0825123        6
    17         2.7351798        2        40         4.4374020        6
    18         4.3087705        2        41         0.1564589        7
    19         4.3346702        2        42         1.0825123        7
    20        -0.0792386        3        43         4.4374020        7
    21         0.3649767        3        44         1.1046594        8
    22         1.0987326        3        45         4.3184477        8
    23         1.1146713        3
------------------------------------------------------------------------
------------------------------------------------------------------------
                         * Spin case beta *
 
  Index      Eigenvalue    Symmetry    Index      Eigenvalue    Symmetry
------------------------------------------------------------------------
     1        -1.3126600        1        24         2.8922508        3
     2        -0.1146315        1        25         4.3614877        3
     3         0.1659892        1        26         4.4311430        3
     4         0.1823887        1        27         0.1823887        4
     5         0.6314634        1        28         1.1922891        4
     6         1.1403338        1        29         4.6037921        4
     7         1.1922891        1        30        -0.3984711        5
     8         4.5180395        1        31        -0.0646315        5
     9         4.6037921        1        32         0.4315216        5
    10         5.8266726        1        33         1.1098059        5
    11        -0.3318316        2        34         1.1235852        5
    12        -0.0532506        2        35         2.8233498        5
    13         0.4710424        2        36         4.3529416        5
    14         1.1132333        2        37         4.3873191        5
    15         1.1411461        2        38         0.1701796        6
    16         2.8922508        2        39         1.1534475        6
    17         4.3614877        2        40         4.5393674        6
    18         4.4311430        2        41         0.1701796        7
    19        -0.3318316        3        42         1.1534475        7
    20        -0.0532506        3        43         4.5393674        7
    21         0.4710424        3        44         1.1235852        8
    22         1.1132333        3        45         4.3873191        8
    23         1.1411461        3
------------------------------------------------------------------------
  @CHECKOUT-I, Total execution time (CPU/WALL):        0.09/       1.58 seconds.
--executable xvtran finished with status     0 in        1.73 seconds (walltime).
 --invoking executable--
/home/nike/cfour_v2.00beta/bin/xintprc
 @GETMEM-I,  Allocated   30517 MB of main memory.
  Processing integrals for CCSD calculation.
  @GMOIAA-I, Processing MO integrals for spin case AA.
  @GMOIAA-I, Generation of integral list completed.
                      TYPE                NUMBER
                      ----               --------
                      PPPP                 52994
                      PPPH                 14791
                      PPHH                  1132
                      PHPH                   803
                      PHHH                   124
                      HHHH                     9

                     TOTAL                 69853
  @GMOIAA-I, Processing MO integrals for spin case BB.
  @GMOIAA-I, Generation of integral list completed.
                      TYPE                NUMBER
                      ----               --------
                      PPPP                 63681
                      PPPH                  5814
                      PPHH                   174
                      PHPH                   174
                      PHHH                     9
                      HHHH                     1

                     TOTAL                 69853
  @GMOIAB-I, Processing MO integrals for spin case AB.
                      TYPE                NUMBER
                      ----               --------
                      PPPP                115208
                      PPPH1H               16262
                      PPPH2H                5313
                      PPHH                   768
                      PHPH1P                 158
                      PHPH2P                 890
                      PHHH1P                  23
                      PHHH2P                  46
                      HHHH                     3

                     TOTAL                138671
            ----------------------------------------------
                     Projected spin multiplicities: 
            ----------------------------------------------
             <0|S^2|0>                  =    2.0000000000.
             <0|S^2 T2|0>               =    0.0000000000.
             Projected <0|S^2 exp(T)|0> =    2.0000000000.
             Approximate spin mult.     =    3.0000000000.
            ----------------------------------------------
   Largest T2 amplitudes for spin case AA:
   i   j   a   b             i   j   a   b             i   j   a   b
-----------------------------------------------------------------------------
[  3   2  28   8]-0.01595 [  3   2  21  14]-0.01450 [  3   1  42  30]-0.01252
[  2   1  39  30]-0.01252 [  3   2  24  17]-0.01027 [  3   1  21   7]-0.00965
[  2   1  14   7]-0.00965 [  3   2  21  17]-0.00925 [  3   2  24  14]-0.00925
[  3   2  27   8]-0.00879 [  3   2  28   6]-0.00879 [  3   2  29  10]-0.00799
[  3   2  42  39]-0.00789 [  3   1  24   7]-0.00780 [  2   1  17   7]-0.00780
-----------------------------------------------------------------------------
   Norm of T2AA vector (      329 symmetry allowed elements):  0.0520210670.
-----------------------------------------------------------------------------
   Largest T2 amplitudes for spin case AB:
       _       _                 _       _                 _       _
   i   j   a   b             i   j   a   b             i   j   a   b
-----------------------------------------------------------------------------
[  1   1  30  30]-0.06313 [  3   1  42  30]-0.02421 [  2   1  39  30]-0.02421
[  3   1   8  19] 0.02332 [  2   1  28  19]-0.02332 [  3   1  28  11]-0.02332
[  2   1   8  11]-0.02332 [  1   1  30  32]-0.01768 [  3   1  21   5]-0.01691
[  2   1  14   5]-0.01691 [  1   1  32  30]-0.01510 [  1   1   7   5]-0.01505
[  1   1  30  31]-0.01505 [  2   1  38  30]-0.01378 [  3   1  41  30]-0.01378
-----------------------------------------------------------------------------
   Norm of T2AB vector (      768 symmetry allowed elements):  0.1284175164.
-----------------------------------------------------------------------------
  @CHECKOUT-I, Total execution time (CPU/WALL):        0.09/       1.01 seconds.
--executable xintprc finished with status     0 in        1.32 seconds (walltime).
 --invoking executable--
/home/nike/cfour_v2.00beta/bin/xint
 @GETMEM-I,  Allocated   30517 MB of main memory.
  @CHECKOUT-I, Total execution time (CPU/WALL):        1.09/       1.11 seconds.
--executable xint finished with status     0 in        1.86 seconds (walltime).
 --invoking executable--
/home/nike/MRCC/dmrcc
 **********************************************************************
                          MRCC program system
 **********************************************************************
 
                              Written by
    Mihaly Kallay, Zoltan Rolik, Jozsef Csontos, Istvan Ladjanszki,
       Lorant Szegedy, Bence Ladoczki, Gyula Samu, Klara Petrov,
        Mate Farkas, Peter Nagy, David Mester, and Bence Hegely
 
        Department of Physical Chemistry and Materials Science
            Budapest University of Technology and Economics
                  Budapest P.O.Box 91, H-1521 Hungary
 
                              www.mrcc.hu

 ************************ 2018-06-12 22:57:04 *************************
 Executing minp...

 Reading input from MINP...
 
 Input file:
 
# N+ 2Z
basis=aVTZ-EMSL
iface=cfour
uncontract=off
calc=CC(4)
mem=32GB
core=1
itol=18
scftol=13
cctol=7
ccmaxit=999
scfmaxit=9999
scfiguess=ao
scftype=ROHF
rohftype=semicanonical
rest=2
charge=+1
refdet=serialno
1,2
3,4

#symm=1
mult=3
#occ=3,0,0,0,0,1,0,0/1,0,0,0,0,1,0,0
geom
N

#Li 1 R

#R=3.065

#unit=angstroms

tprint=0.01
verbosity=3
nstate=4

 
 
 Checking keyword combinations...
 
 Keywords:
 
 active=none
 agrid=ld0006-ld0590
 basis=avtz-emsl
 basopt=off
 bpcompo=0.985
 bpcompv=0.98
 bpdfo=0.985
 bpocc=0.985
 bppdo=0.985
 bppdv=0.98
 bpedo=0.985
 bpedv=0.98
 calc=cc(4)
 ccmaxit=999
 ccprog=mrcc
 cctol=7
 charge=+1
 cialg=disk
 ciguess=off
 cmpgrp=auto
 core=1
 corembed=off
 dboc=off
 dendec=cholesky
 dens=0
 dfalg=invsqrt
 dfbasis_cor=none
 dfbasis_scf=none
 dfintran=ovirt
 dft=off
 diag=david
 domrad=10.d0
 drpaalg=fit
 ecp=auto
 edisp=off
 embed=off
 epert=none
 eps=0.975
 excrad=0.d0
 excrad_fin=0.000000000D+00
 freq=off
 gauss=spher
 geom=zmat
 gopt=off
 ghost=none
 gtol=7
 grtol=10
 hamilton=dc
 iface=cfour
 intalg=auto
 itol=18
 lcorthr=loose
 lccrest=off
 lmp2dens=on
 lnoepso=3e-5
 lnoepsv=1e-6
 localcc=off
 locintrf=disk
 maxact=off
 maxex=0
 bfbasis=none
 mem=32gb
 molden=on
 mulmet=0
 mult=3
 nacto=0
 nactv=0
 naf_cor=off
 naf_scf=off
 nafalg=albe
 naftyp=
 nchol=auto
 ndeps=1e-3
 nstate=4
 nsing=0
 ntrip=0
 occ=
 optalg=
 optmaxit=50
 optetol=1e-6
 optgtol=1e-4
 optstol=1e-3
 orblocc=off
 orbloco=off
 orblocv=off
 osveps=1e-3
 ovirt=off
 ovosnorb=80.0
 ptfreq=0.0
 popul=off
 pressure=100000
 qmmm=off
 refdet=serialno
 rest=2
 rgrid=log3
 rohftype=semicanonical
 scspe=1.d0
 scsps=1.2d0
 scspt=0.33333333333333
 scfalg=auto
 scfdamp=off
 scfdiis=on
 scfdiis_end=9999
 scfdiis_start=1
 scfdiis_step=1
 scfdtol=17
 scfext=10
 scfiguess=ao
 scflshift=off
 scfmaxit=9999
 scftype=rohf
 scftol=13
 spairtol=1e-4
 symm=
 talg=occ
 temp=298.15
 test=off
 tprint=0.01
 uncontract=off
 unit=angs
 verbosity=3
 wpairtol=0.100000000E-05

 ************************ 2018-06-12 22:57:05 *************************
 Executing goldstone...

 Generation of CC equations in terms of H and T...
 Generation of antisymmetrized Goldstone diagrams...
 Number of diagrams in T^1 equations:    15
 Number of diagrams in T^2 equations:    38
 Number of diagrams in T^3 equations:    53
 Number of diagrams in T^4 equations:    74
 Translation of diagrams to factorized equations...
 Optimizing intermediate calculation...
 Optimizing right-hand EOMCC calculation...
 Number of floating-point operations per iteration step:   1.4049E+09
 Probable CPU time per iteration step (hours):      0.01
 Required memory (Mbytes):     448.7
 Number of intermediates:                                 249
 Number of intermediates to be stored:                     96
 Length of intermediate file (Mbytes):      70.5

 ************************ 2018-06-12 22:57:06 *************************
 Executing xmrcc...

 **********************************************************************
 CC(                     4 ) calculation 
 
 
 Allocation of 448.7 Mbytes of memory...
 Number of spinorbitals:                    90
 Number of alpha electrons:                        4
 Number of beta electrons:                         2
 z-component of spin:  1.0
 Spatial symmetry:                      1
 Convergence criterion:  1.0E-07
 Spatial symmetry of ground state:                      6
 Construction of occupation graphs...
 Number of                     0 -fold excitations:                      0
 Number of                     1 -fold excitations:                     24
 Number of                     2 -fold excitations:                   2339
 Number of                     3 -fold excitations:                  76350
 Number of                     4 -fold excitations:                1025999
 Total number of configurations:                1104712
 Number of ground state excitations: 
 Number of                     0 -fold excitations:                      1
 Number of                     1 -fold excitations:                     46
 Number of                     2 -fold excitations:                   2631
 Number of                     3 -fold excitations:                  76779
 Number of                     4 -fold excitations:                1026709
 Total number of configurations:                1106166
 Calculation of coupling coefficients...
 Length of intermediate file (Mbytes):     121.3
 
 ======================================================================
 
 ======================================================================
 
 ======================================================================
 
 ======================================================================
 
 Memory requirements /Mbyte/: 
               Minimal        Optimal
 Real*8:        394.0861       408.9718
 Integer:        45.4416
 Total:         439.5277       454.4134
 

 ************************ 2018-06-12 22:57:19 *************************
 Executing goldstone...

 Generation of CC equations in terms of H and T...
 Generation of antisymmetrized Goldstone diagrams...
 Number of diagrams in T^1 equations:     8
 Translation of diagrams to factorized equations...
 Optimizing intermediate calculation...
 Optimizing right-hand EOMCC calculation...
 Number of floating-point operations per iteration step:   1.2258E+03
 Probable CPU time per iteration step (hours):      0.00
 Required memory (Mbytes):     448.7
 Number of intermediates:                                  19
 Number of intermediates to be stored:                      9
 Length of intermediate file (Mbytes):       0.1

 ************************ 2018-06-12 22:57:19 *************************
 Executing xmrcc...

 **********************************************************************
 CC(                     1 ) calculation 
 
 
 Allocation of 448.7 Mbytes of memory...
 Number of spinorbitals:                    90
 Number of alpha electrons:                        4
 Number of beta electrons:                         2
 z-component of spin:  1.0
 Spatial symmetry:                      1
 Convergence criterion:  1.0E-07
 Spatial symmetry of ground state:                      6
 Construction of occupation graphs...
 Number of                     0 -fold excitations:                      0
 Number of                     1 -fold excitations:                     24
 Total number of configurations:                     24
 Number of ground state excitations: 
 Number of                     0 -fold excitations:                      1
 Number of                     1 -fold excitations:                     46
 Total number of configurations:                     47
 Calculation of coupling coefficients...
 Length of intermediate file (Mbytes):       0.2
 
 ======================================================================
 
 ======================================================================
 
 ======================================================================
 
 ======================================================================
 
 Memory requirements /Mbyte/: 
               Minimal        Optimal
 Real*8:          0.7261        31.3201
 Integer:         3.3693
 Total:           4.0954        34.6894
 

 ************************ 2018-06-12 22:57:20 *************************
 Executing mrcc...

 **********************************************************************
 LR-CCS calculation                                                     
 
 
 OpenMP parallel version is running.
 Number of CPUs:  32
 Allocation of   31.3 Mbytes of memory...
 Number of spinorbitals:  90
 Number of alpha electrons:  4
 Number of beta  electrons:  2
 z-component of spin:  1.0
 Spatial symmetry: 1
 Convergence criterion:  1.0E-07
 Spatial symmetry of ground state:                      6
 Construction of occupation graphs...
 Number of excitations for irrep 1: 
 Number of 0-fold excitations: 1
 Number of 1-fold excitations: 46
 Total number of determinants: 47
 Number of excitations for irrep 6: 
 Number of 0-fold excitations: 0
 Number of 1-fold excitations: 24
 Total number of determinants: 24
 Calculation of coupling coefficients...
 Initial cluster amplitudes are generated.
 Length of intermediate file (Mbytes):       0.2
 Reading integral list from unit 55...
 Sorting integrals...
 Sorting integrals...
 Sorting integrals...
 Sorting integrals...
 Energy of reference determinant [au]:     -54.131570910845
 Calculation of diagonal elements of Hamiltonian...
 Calculation of MP denominators...
 
 Starting CC iteration...
 ======================================================================
 Norm of residual vector:     0.55664720
 CPU time [min]:     0.484                   Wall time [min]:     0.072
 
 Iteration  1  CC energy:   -54.50031613  Energy decrease:   0.36874522
 ======================================================================
 Norm of residual vector:     0.38255166
 CPU time [min]:     0.489                   Wall time [min]:     0.072
 
 Iteration  2  CC energy:   -54.35720259  Energy decrease:   0.14311354
 ======================================================================
 Norm of residual vector:     0.06334337
 CPU time [min]:     0.495                   Wall time [min]:     0.073
 
 Iteration  3  CC energy:   -54.37170873  Energy decrease:   0.01450614
 ======================================================================
 Norm of residual vector:     0.03584682
 CPU time [min]:     0.501                   Wall time [min]:     0.073
 
 Iteration  4  CC energy:   -54.39386502  Energy decrease:   0.02215629
 ======================================================================
 Norm of residual vector:     0.00893799
 CPU time [min]:     0.507                   Wall time [min]:     0.073
 
 Iteration  5  CC energy:   -54.38970438  Energy decrease:   0.00416064
 ======================================================================
 Norm of residual vector:     0.00090682
 CPU time [min]:     0.513                   Wall time [min]:     0.073
 
 Iteration  6  CC energy:   -54.38991987  Energy decrease:   0.00021550
 ======================================================================
 Norm of residual vector:     0.00017136
 CPU time [min]:     0.521                   Wall time [min]:     0.074
 
 Iteration  7  CC energy:   -54.38997817  Energy decrease:   0.00005830
 ======================================================================
 Norm of residual vector:     0.00011035
 CPU time [min]:     0.613                   Wall time [min]:     0.077
 
 Iteration  8  CC energy:   -54.38992611  Energy decrease:   0.00005206
 ======================================================================
 Norm of residual vector:     0.00000531
 CPU time [min]:     0.621                   Wall time [min]:     0.078
 
 Iteration  9  CC energy:   -54.38992296  Energy decrease:   0.00000315
 ======================================================================
 Norm of residual vector:     0.00000359
 CPU time [min]:     0.627                   Wall time [min]:     0.078
 
 Iteration 10  CC energy:   -54.38992499  Energy decrease:   0.00000203
 ======================================================================
 Norm of residual vector:     0.00000054
 CPU time [min]:     0.633                   Wall time [min]:     0.078
 
 Iteration 11  CC energy:   -54.38992474  Energy decrease:   0.00000025
 ======================================================================
 Norm of residual vector:     0.00000001
 CPU time [min]:     0.637                   Wall time [min]:     0.078
 
 Iteration 12  CC energy:   -54.38992474  Energy decrease:   4.4405E-09
 ======================================================================
 
 Iteration has converged in 12 steps.
 
 Final results:
 Total CCS energy [au]:              -54.389924735186
 Spin multiplicity:                     2
 
 
 
 Dominant cluster amplitudes
 Printing threshold:  1.00E-02
 
    1.000000  Reference determinant                                     
    0.187860  1b -> 5b                                                  
    0.020659  1b -> 9b                                                  
   -0.033914  1b -> 12b                                                 
   -0.099473  1b -> 17b                                                 
   -0.013677  1b -> 22b                                                 
   -0.566463  2b -> 7b                                                  
   -0.017503  2b -> 14b                                                 
    0.011375  2b -> 25b                                                 
    0.093879  1a -> 5a                                                  
    0.011139  1a -> 12a                                                 
   -0.062614  1a -> 17a                                                 
    0.012953  1a -> 18a                                                 
   -0.234040  3a -> 6a                                                  
   -0.142694  3a -> 15a                                                 
   -0.021591  3a -> 30a                                                 
   -0.287031  2a -> 7a                                                  
   -0.143781  2a -> 14a                                                 
   -0.010424  2a -> 29a                                                 
   -0.019051  2a -> 31a                                                 
   -0.156537  4a -> 8a                                                  
   -0.037661  4a -> 16a                                                 
 
 Starting right-hand LR-CC iteration for root                      2 ...
 ======================================================================
 Norm of residual vector:     0.05909713      Convergence:   1.00000000
 CPU time [min]:     0.677                   Wall time [min]:     0.080
 
 Iteration  1  CI energy:   -54.13223383  Energy decrease:   0.25769091
 ======================================================================
 Norm of residual vector:     0.00958183      Convergence:   0.08402407
 CPU time [min]:     0.688                   Wall time [min]:     0.080
 
 Iteration  2  CI energy:   -54.13637027  Energy decrease:   0.00413645
 ======================================================================
 Norm of residual vector:     0.00747727      Convergence:   0.00269417
 CPU time [min]:     0.699                   Wall time [min]:     0.081
 
 Iteration  3  CI energy:   -54.13638077  Energy decrease:   0.00001050
 ======================================================================
 Norm of residual vector:     0.00222849      Convergence:   0.02011235
 CPU time [min]:     0.705                   Wall time [min]:     0.081
 
 Iteration  4  CI energy:   -54.13629015  Energy decrease:   0.00009062
 ======================================================================
 Norm of residual vector:     0.00050351      Convergence:   0.00181476
 CPU time [min]:     0.712                   Wall time [min]:     0.081
 
 Iteration  5  CI energy:   -54.13628567  Energy decrease:   0.00000449
 ======================================================================
 Norm of residual vector:     0.00004402      Convergence:   0.00020335
 CPU time [min]:     0.720                   Wall time [min]:     0.081
 
 Iteration  6  CI energy:   -54.13628587  Energy decrease:   0.00000020
 ======================================================================
 Norm of residual vector:     0.00000533      Convergence:   0.00002561
 CPU time [min]:     0.727                   Wall time [min]:     0.082
 
 Iteration  7  CI energy:   -54.13628584  Energy decrease:   0.00000003
 ======================================================================
 Norm of residual vector:     0.00000028      Convergence:   0.00000304
 CPU time [min]:     0.737                   Wall time [min]:     0.082
 
 Iteration  8  CI energy:   -54.13628583  Energy decrease:   0.00000001
 ======================================================================
 Norm of residual vector:     0.0000E+00      Convergence:   1.5551E-07
 CPU time [min]:     0.747                   Wall time [min]:     0.082
 
 Iteration  9  CI energy:   -54.13628583  Energy decrease:   3.4760E-10
 ======================================================================
 
 Iteration has converged in  9 steps.
 
 Final results:
 Total LR-CCS energy [au]:           -54.136285828842
 Excitation energy [eV]:           6.9019
 Excitation energy [cm^-1]:    55667.31
 Absorption wavelength [nm]:     179.64
 Spin multiplicity:                     2
 
 
 
 Dominant CI coefficients
 Printing threshold:  1.00E-02
 
   -0.074929  4a -> 6a                                                  
    0.013612  4a -> 15a                                                 
    0.993639  3a -> 8a                                                  
   -0.081579  3a -> 16a                                                 
   -0.010544  1a -> 11a                                                 
 
 Starting right-hand LR-CC iteration for root                      3 ...
 ======================================================================
 Norm of residual vector:     0.08623648      Convergence:   1.00000000
 CPU time [min]:     0.751                   Wall time [min]:     0.083
 
 Iteration  1  CI energy:   -54.15724795  Energy decrease:   0.23267679
 ======================================================================
 Norm of residual vector:     0.01027666      Convergence:   0.13286801
 CPU time [min]:     0.757                   Wall time [min]:     0.083
 
 Iteration  2  CI energy:   -54.17039409  Energy decrease:   0.01314614
 ======================================================================
 Norm of residual vector:     0.01226892      Convergence:   0.00319871
 CPU time [min]:     0.762                   Wall time [min]:     0.083
 
 Iteration  3  CI energy:   -54.17039671  Energy decrease:   0.00000262
 ======================================================================
 Norm of residual vector:     0.00424874      Convergence:   0.02546543
 CPU time [min]:     0.769                   Wall time [min]:     0.083
 
 Iteration  4  CI energy:   -54.17068097  Energy decrease:   0.00028425
 ======================================================================
 Norm of residual vector:     0.00050952      Convergence:   0.00345737
 CPU time [min]:     0.777                   Wall time [min]:     0.084
 
 Iteration  5  CI energy:   -54.17067410  Energy decrease:   0.00000686
 ======================================================================
 Norm of residual vector:     0.00004750      Convergence:   0.00028870
 CPU time [min]:     0.785                   Wall time [min]:     0.084
 
 Iteration  6  CI energy:   -54.17067179  Energy decrease:   0.00000232
 ======================================================================
 Norm of residual vector:     0.00000402      Convergence:   0.00003404
 CPU time [min]:     0.794                   Wall time [min]:     0.084
 
 Iteration  7  CI energy:   -54.17067175  Energy decrease:   0.00000004
 ======================================================================
 Norm of residual vector:     0.00000066      Convergence:   0.00000236
 CPU time [min]:     0.805                   Wall time [min]:     0.085
 
 Iteration  8  CI energy:   -54.17067174  Energy decrease:   3.0181E-09
 ======================================================================
 Norm of residual vector:     0.0000E+00      Convergence:   3.4576E-07
 CPU time [min]:     0.816                   Wall time [min]:     0.085
 
 Iteration  9  CI energy:   -54.17067174  Energy decrease:   3.0238E-09
 ======================================================================
 
 Iteration has converged in  9 steps.
 
 Final results:
 Total LR-CCS energy [au]:           -54.170671740539
 Excitation energy [eV]:           5.9662
 Excitation energy [cm^-1]:    48120.47
 Absorption wavelength [nm]:     207.81
 Spin multiplicity:                     2
 
 
 
 Dominant CI coefficients
 Printing threshold:  1.00E-02
 
    0.988271  4a -> 6a                                                  
   -0.132186  4a -> 15a                                                 
    0.074614  3a -> 8a                                                  
   -0.014861  1a -> 11a                                                 
 
 Starting right-hand LR-CC iteration for root                      4 ...
 ======================================================================
 Norm of residual vector:     0.08182685      Convergence:   1.00000000
 CPU time [min]:     0.821                   Wall time [min]:     0.085
 
 Iteration  1  CI energy:   -53.55123767  Energy decrease:   0.83868707
 ======================================================================
 Norm of residual vector:     0.01470289      Convergence:   0.08886556
 CPU time [min]:     0.826                   Wall time [min]:     0.085
 
 Iteration  2  CI energy:   -53.55687199  Energy decrease:   0.00563432
 ======================================================================
 Norm of residual vector:     0.00566165      Convergence:   0.03088198
 CPU time [min]:     0.834                   Wall time [min]:     0.086
 
 Iteration  3  CI energy:   -53.55723694  Energy decrease:   0.00036496
 ======================================================================
 Norm of residual vector:     0.00614840      Convergence:   0.00083461
 CPU time [min]:     0.841                   Wall time [min]:     0.086
 
 Iteration  4  CI energy:   -53.55723808  Energy decrease:   0.00000114
 ======================================================================
 Norm of residual vector:     0.02909560      Convergence:   0.12318570
 CPU time [min]:     0.850                   Wall time [min]:     0.086
 
 Iteration  5  CI energy:   -53.55815759  Energy decrease:   0.00091951
 ======================================================================
 Norm of residual vector:     0.02520491      Convergence:   0.00469007
 CPU time [min]:     0.863                   Wall time [min]:     0.087
 
 Iteration  6  CI energy:   -53.55817286  Energy decrease:   0.00001527
 ======================================================================
 Norm of residual vector:     0.01899058      Convergence:   0.04647200
 CPU time [min]:     0.877                   Wall time [min]:     0.087
 
 Iteration  7  CI energy:   -53.55701453  Energy decrease:   0.00115832
 ======================================================================
 Norm of residual vector:     0.29810664      Convergence:   0.25315443
 CPU time [min]:     0.893                   Wall time [min]:     0.088
 
 Iteration  8  CI energy:   -53.55961249  Energy decrease:   0.00259796
 ======================================================================
 Norm of residual vector:     0.00048694      Convergence:   0.00360378
 CPU time [min]:     0.911                   Wall time [min]:     0.088
 
 Iteration  9  CI energy:   -53.55675654  Energy decrease:   0.00285595
 ======================================================================
 Norm of residual vector:     0.00009972      Convergence:   0.00034444
 CPU time [min]:     0.931                   Wall time [min]:     0.089
 
 Iteration 10  CI energy:   -53.55675643  Energy decrease:   0.00000011
 ======================================================================
 Norm of residual vector:     0.00003173      Convergence:   0.00009171
 CPU time [min]:     0.947                   Wall time [min]:     0.090
 
 Iteration 11  CI energy:   -53.55675609  Energy decrease:   0.00000034
 ======================================================================
 Norm of residual vector:     0.00000118      Convergence:   0.00000888
 CPU time [min]:     0.971                   Wall time [min]:     0.090
 
 Iteration 12  CI energy:   -53.55675611  Energy decrease:   0.00000002
 ======================================================================
 Norm of residual vector:     0.0000E+00      Convergence:   6.7809E-07
 CPU time [min]:     0.986                   Wall time [min]:     0.091
 
 Iteration 13  CI energy:   -53.55675611  Energy decrease:   1.5911E-10
 ======================================================================
 
 Iteration has converged in 13 steps.
 
 Final results:
 Total LR-CCS energy [au]:           -53.556756112867
 Excitation energy [eV]:          22.6717
 Excitation energy [cm^-1]:   182859.39
 Absorption wavelength [nm]:      54.69
 Spin multiplicity:                     2
 
 Dominant CI coefficients
 Printing threshold:  1.00E-02
 
   -0.983909  1b -> 11b                                                 
    0.060502  1b -> 21b                                                 
    0.035897  2b -> 26b                                                 
    0.020098  4a -> 6a                                                  
    0.145504  4a -> 15a                                                 
   -0.010180  4a -> 24a                                                 
    0.070863  3a -> 16a                                                 

 ************************ 2018-06-12 22:57:26 *************************
 Executing goldstone...

 Generation of CC equations in terms of H and T...
 Generation of antisymmetrized Goldstone diagrams...
 Number of diagrams in T^1 equations:    14
 Number of diagrams in T^2 equations:    31
 Translation of diagrams to factorized equations...
 Optimizing intermediate calculation...
 Optimizing right-hand EOMCC calculation...
 Number of floating-point operations per iteration step:   2.3528E+06
 Probable CPU time per iteration step (hours):      0.00
 Required memory (Mbytes):     448.7
 Number of intermediates:                                  84
 Number of intermediates to be stored:                     36
 Length of intermediate file (Mbytes):       8.4

 ************************ 2018-06-12 22:57:26 *************************
 Executing xmrcc...

 **********************************************************************
 CC(                     2 ) calculation 
 
 
 Allocation of 448.7 Mbytes of memory...
 Number of spinorbitals:                    90
 Number of alpha electrons:                        4
 Number of beta electrons:                         2
 z-component of spin:  1.0
 Spatial symmetry:                      1
 Convergence criterion:  1.0E-07
 Spatial symmetry of ground state:                      6
 Construction of occupation graphs...
 Number of                     0 -fold excitations:                      0
 Number of                     1 -fold excitations:                     24
 Number of                     2 -fold excitations:                   2339
 Total number of configurations:                   2363
 Number of ground state excitations: 
 Number of                     0 -fold excitations:                      1
 Number of                     1 -fold excitations:                     46
 Number of                     2 -fold excitations:                   2631
 Total number of configurations:                   2678
 Calculation of coupling coefficients...
 Length of intermediate file (Mbytes):       7.1
 
 ======================================================================
 
 ======================================================================
 
 ======================================================================
 
 ======================================================================
 
 Memory requirements /Mbyte/: 
               Minimal        Optimal
 Real*8:         12.5601        40.5689
 Integer:         3.7364
 Total:          16.2965        44.3052
 

 ************************ 2018-06-12 22:57:27 *************************
 Executing mrcc...

 **********************************************************************
 LR-CCSD calculation                                                    
 
 
 OpenMP parallel version is running.
 Number of CPUs:  32
 Allocation of   40.6 Mbytes of memory...
 Number of spinorbitals:  90
 Number of alpha electrons:  4
 Number of beta  electrons:  2
 z-component of spin:  1.0
 Spatial symmetry: 1
 Convergence criterion:  1.0E-07
 Spatial symmetry of ground state:                      6
 Construction of occupation graphs...
 Number of excitations for irrep 1: 
 Number of 0-fold excitations: 1
 Number of 1-fold excitations: 46
 Number of 2-fold excitations: 2631
 Total number of determinants: 2678
 Number of excitations for irrep 6: 
 Number of 0-fold excitations: 0
 Number of 1-fold excitations: 24
 Number of 2-fold excitations: 2339
 Total number of determinants: 2363
 Calculation of coupling coefficients...
 Initial cluster amplitudes are read from unit 16.
 Length of intermediate file (Mbytes):       7.1
 Reading integral list from unit 55...
 Sorting integrals...
 Sorting integrals...
 Sorting integrals...
 Sorting integrals...
 Energy of reference determinant [au]:     -54.131570910845
 Calculation of diagonal elements of Hamiltonian...
 Calculation of MP denominators...
 
 Starting CC iteration...
 ======================================================================
 Norm of residual vector:     0.83768339
 CPU time [min]:     1.024                   Wall time [min]:     0.084
 
 Iteration  1  CC energy:   -54.55871891  Energy decrease:   0.20906976
 ======================================================================
 Norm of residual vector:     0.33243153
 CPU time [min]:     1.442                   Wall time [min]:     0.098
 
 Iteration  2  CC energy:   -54.50916561  Energy decrease:   0.04955330
 ======================================================================
 Norm of residual vector:     0.11268823
 CPU time [min]:     1.914                   Wall time [min]:     0.114
 
 Iteration  3  CC energy:   -54.50795401  Energy decrease:   0.00121160
 ======================================================================
 Norm of residual vector:     0.03817249
 CPU time [min]:     2.446                   Wall time [min]:     0.131
 
 Iteration  4  CC energy:   -54.50336485  Energy decrease:   0.00458916
 ======================================================================
 Norm of residual vector:     0.02016058
 CPU time [min]:     2.857                   Wall time [min]:     0.144
 
 Iteration  5  CC energy:   -54.50585985  Energy decrease:   0.00249501
 ======================================================================
 Norm of residual vector:     0.00974963
 CPU time [min]:     3.383                   Wall time [min]:     0.161
 
 Iteration  6  CC energy:   -54.50583031  Energy decrease:   0.00002955
 ======================================================================
 Norm of residual vector:     0.00558544
 CPU time [min]:     3.739                   Wall time [min]:     0.172
 
 Iteration  7  CC energy:   -54.50579874  Energy decrease:   0.00003157
 ======================================================================
 Norm of residual vector:     0.00375345
 CPU time [min]:     4.097                   Wall time [min]:     0.183
 
 Iteration  8  CC energy:   -54.50594358  Energy decrease:   0.00014485
 ======================================================================
 Norm of residual vector:     0.00211692
 CPU time [min]:     4.727                   Wall time [min]:     0.208
 
 Iteration  9  CC energy:   -54.50616816  Energy decrease:   0.00022458
 ======================================================================
 Norm of residual vector:     0.00087801
 CPU time [min]:     5.218                   Wall time [min]:     0.224
 
 Iteration 10  CC energy:   -54.50624805  Energy decrease:   0.00007988
 ======================================================================
 Norm of residual vector:     0.00042460
 CPU time [min]:     5.661                   Wall time [min]:     0.238
 
[...]
    0.013990  2a 1b 2b -> 12a 3b 4b                                     
   -0.014846  2a 1b 2b -> 5a 4b 6b                                      
    0.014966  2a 1b 2b -> 5a 5b 11b                                     
    0.011986  2a 1b 2b -> 5a 4b 15b                                     
   -0.011925  2a 1b 2b -> 5a 3b 16b                                     
    0.010176  2a 1b 2b -> 5a 6b 16b                                     
    0.010226  2a 1b 2b -> 5a 15b 16b                                    
    0.015112  2a 1b 2b -> 6a 4b 5b                                      
    0.010205  2a 1b 2b -> 6a 4b 12b                                     
   -0.025568  2a 1b 2b -> 7a 3b 10b                                     
    0.047826  2a 1b 2b -> 7a 7b 11b                                     
   -0.020340  2a 1b 2b -> 7a 4b 13b                                     
    0.036543  2a 1b 2b -> 13a 4b 7b                                     
    0.013500  2a 1b 2b -> 8a 3b 9b                                      
    0.015074  2a 1b 2b -> 8a 4b 11b                                     
    0.051338  2a 1b 2b -> 10a 3b 7b                                     
    0.014798  2a 1b 2b -> 10a 3b 14b                                    
    0.032684  3a 1b 2b -> 5a 4b 7b                                      
    0.031509  3a 1b 2b -> 6a 7b 11b                                     
   -0.018942  3a 1b 2b -> 6a 4b 13b                                     
    0.012125  3a 1b 2b -> 7a 4b 5b                                      
   -0.093236  3a 1b 2b -> 13a 3b 4b                                     
    0.013729  3a 1b 2b -> 8a 3b 13b                                     
    0.053892  3a 1b 2b -> 11a 3b 7b                                     
    0.017816  3a 1b 2b -> 10a 3b 6b                                     
   -0.019928  1a 1b 2b -> 5a 7b 11b                                     
    0.025686  1a 1b 2b -> 5a 4b 13b                                     
    0.014716  1a 1b 2b -> 5a 4b 19b                                     
   -0.019222  1a 1b 2b -> 5a 3b 20b                                     
    0.020185  1a 1b 2b -> 7a 3b 4b                                      
   -0.018633  1a 1b 2b -> 10a 3b 5b                                     
   -0.020375  3a 4a 1b -> 5a 9a 5b                                      
    0.012157  3a 4a 1b -> 5a 9a 17b                                     
    0.013480  3a 4a 1b -> 5a 6a 3b                                      
   -0.029466  3a 4a 1b -> 8a 11a 3b                                     
    0.012568  3a 4a 1b -> 5a 15a 3b                                     
    0.013663  3a 4a 1b -> 11a 16a 3b                                    
   -0.013462  3a 4a 1b -> 5a 6a 6b                                      
   -0.010269  3a 4a 1b -> 5a 6a 15b                                     
    0.037187  3a 4a 1b -> 6a 11a 4b                                     
   -0.015020  3a 4a 1b -> 11a 15a 4b                                    
   -0.022264  3a 4a 1b -> 6a 8a 11b                                     
    0.012995  1a 4a 1b -> 5a 9a 3b                                      
    0.013134  1a 4a 1b -> 5a 17a 3b                                     
    0.051446  2a 4a 2b -> 5a 9a 3b                                      
    0.013579  2a 4a 2b -> 5a 12a 3b                                     
    0.017518  2a 4a 2b -> 7a 14a 3b                                     
   -0.011484  2a 4a 2b -> 5a 18a 3b                                     
   -0.034113  2a 4a 2b -> 5a 22a 3b                                     
    0.070691  2a 4a 2b -> 6a 7a 7b                                      
   -0.014624  2a 4a 2b -> 10a 11a 7b                                    
    0.031651  2a 4a 2b -> 5a 13a 7b                                     
    0.025333  2a 4a 2b -> 6a 7a 14b                                     
    0.013145  2a 4a 2b -> 5a 13a 14b                                    
    0.012413  1a 4a 1b -> 5a 8a 11b                                     
   -0.013574  2a 4a 2b -> 5a 8a 11b                                     
   -0.016187  2a 4a 2b -> 7a 10a 11b                                    
   -0.032008  1a 4a 1b -> 5a 11a 4b                                     
    0.034434  2a 4a 2b -> 5a 11a 4b                                     
    0.014746  2a 4a 2b -> 9a 11a 4b                                     
    0.030567  2a 4a 2b -> 11a 12a 4b                                    
   -0.010931  2a 4a 2b -> 11a 17a 4b                                    
    0.019302  2a 4a 2b -> 5a 21a 4b                                     
    0.025987  2a 4a 2b -> 5a 11a 8b                                     
    0.027665  2a 4a 2b -> 5a 11a 16b                                    
    0.054183  3a 4a 2b -> 5a 9a 7b                                      
   -0.039766  3a 4a 2b -> 5a 12a 7b                                     
    0.022102  3a 4a 2b -> 5a 9a 14b                                     
   -0.015020  3a 4a 2b -> 5a 12a 14b                                    
    0.012777  3a 4a 2b -> 5a 7a 5b                                      
    0.011980  3a 4a 2b -> 8a 10a 5b                                     
   -0.035719  3a 4a 2b -> 10a 11a 3b                                    
    0.153185  3a 4a 2b -> 5a 13a 3b                                     
    0.025695  3a 4a 2b -> 5a 13a 6b                                     
    0.025231  3a 4a 2b -> 5a 13a 15b                                    
    0.012413  3a 4a 2b -> 7a 8a 4b                                      
    0.012952  3a 4a 2b -> 5a 10a 4b                                     
    0.011091  3a 4a 2b -> 10a 12a 4b                                    
   -0.040315  3a 4a 2b -> 11a 13a 4b                                    
    0.018563  3a 4a 2b -> 5a 10a 8b                                     
    0.021632  3a 4a 2b -> 5a 10a 16b                                    
    0.010870  3a 4a 2b -> 8a 13a 11b                                    
   -0.016191  1a 4a 2b -> 5a 6a 7b                                      
   -0.020786  1a 4a 2b -> 8a 11a 7b                                     
    0.032637  1a 4a 2b -> 5a 7a 3b                                      
    0.015702  1a 4a 2b -> 8a 10a 3b                                     
    0.039223  2a 4a 1b -> 5a 7a 3b                                      
   -0.013817  2a 4a 1b -> 8a 10a 3b                                     
    0.018657  2a 4a 1b -> 5a 14a 3b                                     
   -0.011896  2a 4a 1b -> 5a 7a 6b                                      
   -0.014806  2a 4a 1b -> 6a 7a 5b                                      
   -0.011458  1a 4a 2b -> 7a 8a 11b                                     
   -0.025112  2a 4a 1b -> 7a 8a 11b                                     
   -0.011303  2a 4a 1b -> 7a 16a 11b                                    
   -0.011910  1a 4a 2b -> 6a 10a 4b                                     
    0.041729  2a 4a 1b -> 7a 11a 4b                                     
   -0.012410  2a 4a 1b -> 8a 13a 4b                                     
   -0.034940  2a 3a 2b -> 5a 9a 4b                                      
   -0.024845  2a 3a 2b -> 5a 12a 4b                                     
    0.012208  2a 3a 2b -> 6a 15a 4b                                     
    0.022025  2a 3a 2b -> 5a 18a 4b                                     
    0.012787  1a 3a 1b -> 5a 6a 11b                                     
   -0.012319  2a 3a 2b -> 5a 6a 11b                                     
   -0.012697  2a 3a 2b -> 7a 13a 11b                                    
   -0.010876  2a 3a 2b -> 5a 7a 10b                                     
   -0.018336  2a 3a 2b -> 7a 10a 5b                                     
   -0.011452  1a 3a 1b -> 6a 8a 3b                                      
   -0.048681  1a 3a 1b -> 5a 11a 3b                                     
    0.058893  2a 3a 2b -> 6a 8a 3b                                      
    0.253121  2a 3a 2b -> 5a 11a 3b                                     
    0.011815  2a 3a 2b -> 9a 11a 3b                                     
    0.032006  2a 3a 2b -> 11a 12a 3b                                    
   -0.012792  2a 3a 2b -> 8a 15a 3b                                     
   -0.017326  2a 3a 2b -> 6a 16a 3b                                     
   -0.011891  2a 3a 2b -> 11a 17a 3b                                    
   -0.022532  2a 3a 2b -> 5a 21a 3b                                     
    0.023779  2a 3a 2b -> 6a 8a 6b                                      
    0.062844  2a 3a 2b -> 5a 11a 6b                                     
    0.017560  2a 3a 2b -> 6a 8a 15b                                     
    0.059161  2a 3a 2b -> 5a 11a 15b                                    
    0.012521  2a 3a 2b -> 5a 11a 30b                                    
    0.096095  2a 3a 2b -> 7a 8a 7b                                      
   -0.115101  2a 3a 2b -> 5a 10a 7b                                     
    0.015236  2a 3a 2b -> 11a 13a 7b                                    
    0.023465  2a 3a 2b -> 7a 16a 7b                                     
    0.034056  2a 3a 2b -> 7a 8a 14b                                     
   -0.050222  2a 3a 2b -> 5a 10a 14b                                    
    0.016148  2a 3a 2b -> 7a 11a 13b                                    
   -0.023812  1a 2a 2b -> 5a 6a 4b                                      
    0.018980  1a 2a 2b -> 7a 13a 4b                                     
    0.051008  1a 2a 2b -> 5a 8a 3b                                      
    0.030567  1a 2a 2b -> 7a 10a 3b                                     
    0.019620  1a 2a 2b -> 5a 16a 3b                                     
   -0.010204  1a 2a 2b -> 5a 11a 22b                                    
   -0.031029  1a 2a 2b -> 7a 11a 7b                                     
    0.013589  1a 3a 2b -> 5a 7a 4b                                      
    0.012574  1a 3a 2b -> 6a 13a 4b                                     
   -0.045025  2a 3a 1b -> 5a 7a 4b                                      
   -0.010576  2a 3a 1b -> 8a 10a 4b                                     
   -0.012368  2a 3a 1b -> 6a 13a 4b                                     
    0.025557  2a 3a 1b -> 6a 7a 11b                                     
   -0.010128  2a 3a 1b -> 7a 15a 11b                                    
   -0.023029  1a 3a 2b -> 6a 11a 7b                                     
    0.010357  1a 3a 2b -> 5a 11a 19b                                    
    0.010058  1a 3a 2b -> 5a 10a 5b                                     
   -0.019184  2a 3a 1b -> 7a 8a 5b                                      
    0.034989  2a 3a 1b -> 5a 10a 5b                                     
    0.013184  2a 3a 1b -> 7a 8a 17b                                     
   -0.023975  2a 3a 1b -> 5a 10a 17b                                    
    0.012809  1a 3a 2b -> 6a 10a 3b                                     
   -0.029744  2a 3a 1b -> 6a 10a 3b                                     
    0.036657  2a 3a 1b -> 7a 11a 3b                                     
    0.015260  2a 3a 1b -> 10a 15a 3b                                    
   -0.011387  2a 3a 1b -> 5a 26a 3b                                     
    0.015348  1a 2a 1b -> 5a 7a 11b                                     
   -0.022693  1a 2a 1b -> 7a 8a 3b                                      
    0.010070  1a 2a 1b -> 5a 10a 6b                                     
    0.010236  1a 2a 1b -> 5a 10a 15b                                    
    0.012925  1a 3a 4a -> 6a 8a 11a                                     
   -0.031932  2a 3a 4a -> 5a 7a 9a                                      
    0.040077  2a 3a 4a -> 5a 8a 10a                                     
    0.010042  2a 3a 4a -> 5a 7a 12a                                     
    0.015595  2a 3a 4a -> 5a 6a 13a                                     
    0.010681  2a 3a 4a -> 5a 9a 14a                                     
    0.020241  2a 3a 4a -> 7a 8a 16a                                     
   -0.029686  2a 3a 4a -> 5a 10a 16a                                    
    0.013414  1a 2a 4a -> 7a 8a 11a                                     
   -0.015321  1a 2a 3a -> 5a 7a 8a                                      
   -0.016964  1a 2a 3a -> 6a 7a 11a                                     
    0.010921  1a 2a 3a -> 7a 8a 17a                                     
   -0.017150  1a 2a 3a -> 5a 10a 17a                                    
    0.039175  2a 4a 1b 2b -> 5a 7a 3b 7b                                
   -0.012310  2a 4a 1b 2b -> 8a 10a 3b 7b                               
    0.013853  2a 4a 1b 2b -> 5a 14a 3b 7b                               
   -0.013862  2a 4a 1b 2b -> 5a 7a 6b 7b                                
    0.010999  2a 4a 1b 2b -> 5a 7a 7b 15b                               
   -0.028968  2a 4a 1b 2b -> 5a 8a 3b 4b                                
   -0.023508  2a 4a 1b 2b -> 5a 16a 3b 4b                               
   -0.011031  2a 4a 1b 2b -> 5a 8a 4b 6b                                
   -0.010928  2a 4a 1b 2b -> 5a 16a 4b 6b                               
    0.011198  2a 4a 1b 2b -> 5a 8a 3b 8b                                
    0.010590  2a 4a 1b 2b -> 5a 16a 3b 8b                               
    0.011772  2a 4a 1b 2b -> 5a 8a 3b 16b                               
    0.014724  2a 4a 1b 2b -> 5a 16a 3b 16b                              
    0.024524  2a 4a 1b 2b -> 5a 11a 4b 5b                               
   -0.013765  2a 4a 1b 2b -> 5a 11a 4b 17b                              
    0.028400  2a 4a 1b 2b -> 7a 8a 7b 11b                               
    0.031285  2a 4a 1b 2b -> 7a 11a 4b 7b                               
   -0.010156  2a 4a 1b 2b -> 8a 13a 4b 7b                               
   -0.014248  3a 4a 1b 2b -> 5a 9a 5b 7b                                
    0.023758  3a 4a 1b 2b -> 5a 6a 3b 7b                                
   -0.022171  3a 4a 1b 2b -> 8a 11a 3b 7b                               
    0.012349  3a 4a 1b 2b -> 5a 15a 3b 7b                               
    0.019048  3a 4a 1b 2b -> 5a 13a 3b 5b                               
   -0.011874  3a 4a 1b 2b -> 5a 13a 3b 17b                              
    0.019817  3a 4a 1b 2b -> 5a 8a 4b 7b                                
    0.025255  3a 4a 1b 2b -> 6a 11a 4b 7b                               
    0.020446  3a 4a 1b 2b -> 6a 8a 7b 11b                               
    0.017886  3a 4a 1b 2b -> 5a 10a 4b 5b                               
   -0.012896  3a 4a 1b 2b -> 5a 10a 4b 17b                              
    0.012623  3a 4a 1b 2b -> 6a 10a 3b 4b                               
   -0.019831  3a 4a 1b 2b -> 7a 11a 3b 4b                               
   -0.011342  1a 4a 1b 2b -> 5a 8a 7b 11b                               
   -0.018236  1a 4a 1b 2b -> 5a 11a 4b 7b                               
   -0.054962  2a 3a 1b 2b -> 5a 6a 3b 4b                                
   -0.017631  2a 3a 1b 2b -> 7a 13a 3b 4b                               
   -0.035211  2a 3a 1b 2b -> 5a 15a 3b 4b                               
    0.010389  2a 3a 1b 2b -> 11a 16a 3b 4b                              
   -0.010893  2a 3a 1b 2b -> 5a 6a 4b 6b                                
   -0.011717  2a 3a 1b 2b -> 5a 15a 4b 15b                              
   -0.044714  2a 3a 1b 2b -> 5a 7a 4b 7b                                
   -0.010430  2a 3a 1b 2b -> 6a 13a 4b 7b                               
   -0.014360  2a 3a 1b 2b -> 5a 14a 4b 7b                               
   -0.012246  2a 3a 1b 2b -> 5a 7a 4b 14b                               
   -0.027476  2a 3a 1b 2b -> 6a 7a 7b 11b                               
    0.043196  2a 3a 1b 2b -> 5a 11a 3b 5b                               
   -0.028810  2a 3a 1b 2b -> 5a 11a 3b 17b                              
   -0.010692  2a 3a 1b 2b -> 5a 11a 4b 21b                              
   -0.014379  2a 3a 1b 2b -> 7a 8a 5b 7b                                
    0.018320  2a 3a 1b 2b -> 5a 10a 5b 7b                               
   -0.010120  2a 3a 1b 2b -> 7a 8a 7b 17b                               
    0.011197  2a 3a 1b 2b -> 5a 10a 7b 17b                              
   -0.019422  2a 3a 1b 2b -> 6a 10a 3b 7b                               
    0.031149  2a 3a 1b 2b -> 7a 11a 3b 7b                               
    0.010620  1a 2a 1b 2b -> 5a 9a 3b 4b                                
    0.020199  1a 2a 1b 2b -> 5a 17a 3b 4b                               
   -0.016173  1a 2a 1b 2b -> 5a 7a 7b 11b                               
   -0.011391  1a 3a 1b 2b -> 5a 6a 7b 11b                               
    0.012751  1a 3a 1b 2b -> 5a 13a 3b 4b                               
   -0.027167  1a 3a 1b 2b -> 5a 11a 3b 7b                               
   -0.012542  1a 3a 1b 2b -> 5a 11a 3b 14b                              
   -0.048790  2a 3a 4a 2b -> 5a 8a 11a 3b                               
   -0.012223  2a 3a 4a 2b -> 7a 10a 11a 3b                              
   -0.032256  2a 3a 4a 2b -> 5a 7a 13a 3b                               
    0.017028  2a 3a 4a 2b -> 5a 13a 14a 3b                              
    0.020936  2a 3a 4a 2b -> 6a 8a 16a 3b                               
    0.037694  2a 3a 4a 2b -> 5a 11a 16a 3b                              
    0.010085  2a 3a 4a 2b -> 5a 11a 32a 3b                              
   -0.010600  2a 3a 4a 2b -> 5a 8a 11a 6b                               
   -0.032471  2a 3a 4a 2b -> 5a 7a 9a 7b                                
    0.029215  2a 3a 4a 2b -> 5a 8a 10a 7b                               
    0.011031  2a 3a 4a 2b -> 5a 6a 13a 7b                               
    0.011654  2a 3a 4a 2b -> 5a 9a 14a 7b                               
    0.018846  2a 3a 4a 2b -> 7a 8a 16a 7b                               
   -0.016412  2a 3a 4a 2b -> 5a 10a 16a 7b                              
   -0.010426  2a 3a 4a 2b -> 5a 7a 9a 14b                               
   -0.015142  2a 3a 4a 2b -> 5a 7a 10a 4b                               
    0.030659  2a 3a 4a 2b -> 5a 6a 11a 4b                               
   -0.010298  2a 3a 4a 2b -> 7a 11a 13a 4b                              
    0.013664  2a 3a 4a 2b -> 5a 10a 14a 4b                              
   -0.020222  2a 3a 4a 2b -> 5a 11a 15a 4b                              
    0.012180  1a 2a 4a 2b -> 7a 8a 11a 7b                               
    0.011242  1a 2a 4a 2b -> 5a 11a 17a 4b                              
    0.011570  1a 3a 4a 2b -> 6a 8a 11a 7b                               
    0.010398  1a 3a 4a 2b -> 5a 13a 17a 3b                              
   -0.011975  2a 3a 4a 1b -> 5a 7a 8a 4b                                
   -0.014943  2a 3a 4a 1b -> 6a 7a 11a 4b                               
    0.011670  2a 3a 4a 1b -> 6a 7a 8a 11b                               
   -0.010504  1a 2a 4a 1b -> 5a 7a 11a 4b                               
   -0.020618  1a 2a 3a 2b -> 5a 6a 8a 3b                                
    0.020540  1a 2a 3a 2b -> 5a 11a 17a 3b                              
   -0.015683  1a 2a 3a 2b -> 5a 7a 8a 7b                                
   -0.014397  1a 2a 3a 2b -> 6a 7a 11a 7b                               
    0.012062  1a 2a 3a 2b -> 7a 8a 17a 7b                               
   -0.010156  1a 2a 3a 2b -> 5a 10a 17a 7b                              
   -0.015742  1a 2a 3a 1b -> 5a 7a 11a 3b                               
 
 ************************ 2018-06-14 07:19:36 *************************
                      Normal termination of mrcc.
 **********************************************************************
--- SharcNET Job Epilogue ---
Job completed successfully.
               jobid: 1548544
               resid: 3028161
         exit status: 0
      allocated time: 33855.7
           user time: 359957
         system time: 72419.8
peak rss=1681362944; peak vsz=1681362944 (bytes)
atime=33855.7; utime=359957; stime=72419.8; exit=0
