 --invoking executable--
/project1/nike/cfour_v2.00beta_May2019xnmol_noLABBASIS/bin/xjoda


   *************************************************************************
         <<<     CCCCCC     CCCCCC   |||     CCCCCC     CCCCCC   >>>
       <<<      CCC        CCC       |||    CCC        CCC         >>>
      <<<      CCC        CCC        |||   CCC        CCC            >>>
    <<<        CCC        CCC        |||   CCC        CCC              >>>
      <<<      CCC        CCC        |||   CCC        CCC            >>>
       <<<      CCC        CCC       |||    CCC        CCC         >>>
         <<<     CCCCCC     CCCCCC   |||     CCCCCC     CCCCCC   >>>
   *************************************************************************

     ****************************************************************
     * CFOUR Coupled-Cluster techniques for Computational Chemistry *
     ****************************************************************
 

   Department of Chemistry                Institut fuer Physikalische Chemie
   University of Texas at Austin          Universitaet Mainz
   Austin, TX  78712, USA                 D-55099 Mainz, Germany
 
                       Version 2.00beta
 
                     wob144                                            
                     Tue Mar 10 00:23:34 EDT 2020                      
                     integer*8 version is running
 
********************************************************************************
*                          Input from ZMAT file                                *
********************************************************************************
TITLE                                                                           
F                                                                               
F 1 R                                                                           
                                                                                
R=2.66810431536                                                                 
                                                                                
*ACES2(CALC=CCSD(T)                                                             
UNITS=BOHR                                                                      
#GEOM=1.4119*10/5.29177210903_in9-23ofCRC2016                                   
#COORD=CARTESIAN                                                                
COORD=INTERNAL                                                                  
PRINT=4                                                                         
JODA_PRINT=4                                                                    
INPUT_MRCC=OFF                                                                  
#CC_PROG=MRCC                                                                   
FROZEN_CORE=ON                                                                  
#DROPMO=1>5                                                                     
CONTRACTION=GENERAL                                                             
#CONTRACTION=SEGMENTED                                                          
RELATIVISTIC=OFF                                                                
#EXCITE=EOMEE                                                                   
#ESTATE_CONV=5                                                                  
#ESTATE_SYM=2/2/2/2/2/2/2/2                                                     
XFORM_TOL=18                                                                    
SAVE_INTS=ON                                                                    
SCF_EXPORDER=6                                                                  
SCF_EXPSTART=5                                                                  
#SCF_DAMPING=1000                                                               
SCF_EXTRAPOLATION=ON                                                            
SCF_CONV=14                                                                     
SCF_MAXCYC=9999                                                                 
CC_CONV=9                                                                       
CC_MAXCYC=999                                                                   
T3_EXTRAPOL=ON                                                                  
REFERENCE=ROHF                                                                  
CHARGE=+1                                                                       
MULT=2                                                                          
ABCDTYPE=STANDARD                                                               
#OCCUPATION=3-2-2-0-1-0-0-0/3-1-1-0-1-0-0-0                                     
MEM=4                                                                           
MEM_UNIT=GB                                                                     
BASIS=SPECIAL)                                                                  
                                                                                
F:def2-TZVPP                                                                    
F:def2-TZVPP                                                                    
                                                                                
********************************************************************************
  @GTFLGS-W, Keyword #GEOM not known and is ignored.
  @GTFLGS-W, Keyword #COORD not known and is ignored.
  @GTFLGS-W, Keyword #CC_PROG not known and is ignored.
  @GTFLGS-W, Keyword #DROPMO not known and is ignored.
  @GTFLGS-W, Keyword #CONTRACTION not known and is ignored.
  @GTFLGS-W, Keyword #EXCITE not known and is ignored.
  @GTFLGS-W, Keyword #ESTATE_CONV not known and is ignored.
  @GTFLGS-W, Keyword #ESTATE_SYM not known and is ignored.
  @GTFLGS-W, Keyword #SCF_DAMPING not known and is ignored.
  @GTFLGS-W, Keyword #OCCUPATION not known and is ignored.
    -------------------------------------------------------------------
                    CFOUR Control Parameters 
    -------------------------------------------------------------------
        External           Internal           Value            Units
          Name               Name
    -------------------------------------------------------------------
       ABCDTYPE             IABCDT         STANDARD     [  0]   ***   
       ANHARMONIC           IANHAR         OFF          [  0]   ***   
       ANH_ALGORIT          IANALG         STANDARD     [  0]   ***   
       ANH_DERIVAT          IANDER         SECOND       [  1]   ***   
       ANH_STEPSIZ          ICUBST             50000          x 10-6  
       ANH_SYMMETR          IANHSM         ABELIAN      [  0]   ***   
       AO_LADDERS           IAOLAD         SINGLEPASS   [  1]   ***   
       BASIS                IBASIS         SPECIAL      [  0]   ***   
       BREIT                IBREIT         OFF          [  0]   ***   
       BRUCK_CONV           IBRTOL          10D-  4             ***   
       BRUECKNER            IBRKNR             OFF      [  0]   ***   
       BUFFERSIZE           IBUFFS            600               ***   
       CACHE_RECS           ICHREC             10               ***   
       CALCLEVEL            ICLLVL           CCSD(T)    [ 22]   ***   
       CCORBOPT             ICCORB             OFF      [  0] x 0.01  
       CC_CONV              ICCCNV          10D-  9             ***   
       CC_EXPORDER          ICCEOR              5               ***   
       CC_EXTRAPOL          ICCEXT             DIIS     [  1]   ***   
       CC_MAXCYC            ICCCYC            999              cycles 
       CC_PROGRAM           ICCPRO         VCC          [  0]   ***   
       CHARGE               ICHRGE              1               ***   
       CHOLESKY             ICHOLE         OFF          [  0]   ***   
       CIS_CONV             ICISTL              5               ***   
       COMM_SIZE            IPSIZE            ***               ***   
       CONSTANT             ICONST         OLD          [  1]   ***   
       CONTINUUM            ICONTU         NONE         [  0]   ***   
       CONTRACTION          ICNTYP          GENERAL     [  1]   ***   
       COORDINATES          ICOORD         INTERNAL     [  0]   ***   
       CPHF_CONVER          ICPHFT          10D- 16             ***   
       CPHF_MAXCYC          ICPHFC             64              cycles 
       CUBIC                ICUBIC         OFF          [  0]   ***   
       CURVILINEAR          ICURVY            OFF       [  0]   ***   
       DBOC                 IDBOC          OFF          [  0]   ***   
       DCT                  IDCT           OFF          [  0]   ***   
       DERIV_LEV            IDRLVL            ZERO      [  0]   ***   
       DIAG_MRCC            IEOMST          10D-  0             ***   
       DIFF_TYPE            IDIFTY         RELAXED      [  0]   ***   
       DIRECT               IDIRCT         OFF          [  0]   ***   
       DROPMO               IDRPMO      NONE         
       ECP                  IECP           OFF          [  0]   ***   
       EIGENVECTOR          IVEC                1               ***   
       EL_ANHARM            IELANH         OFF          [  0]   ***   
       EOMFOLLOW            IEOMSR         ENERGY       [  0]   ***   
       EOM_MRCC             IMRCCE         NEW          [  1]   ***   
       EOM_NONIT            EOMNON         OFF          [  0]   ***   
       EOM_NSING            IEOMSI          10D-  0             ***   
       EOM_NSTATES          IMRCCD         DAVIDSON     [  0]   ***   
       EOM_NTRIP            IEOMTR          10D-  0             ***   
       EOM_ORDER            IEXORD         ENERGY       [  0]   ***   
       ESTATE_CONV          IEXTOL          10D-  5             ***   
       ESTATE_DIAG          IEXDIG         ITERATIVE    [  0]   ***   
       ESTATE_LOCK          IESLOC         ON           [  1]   ***   
       ESTATE_MAXC          IEXMXC             20               ***   
       ESTATE_PROP          IEXPRP         OFF          [  0]   ***   
       EVAL_HESS            IRECAL              0            # of cyc.
       EXCITATION           IEXCIT              0               ***   
       EXCITE               IEXCIT         NONE         [  0]   ***   
       FCGRADNEW            IFCGNW         OFF          [  0]   ***   
       FC_FIELD             IFINFC              0             x 10-6  
       FD_CALTYPE           IFDCAL         GRADONLY     [  0]   ***   
       FD_PROJECT           IFDPRJ         OFF          [  1]   ***   
       FD_STEPSIZE          IDISFD              0            10-4 bohr
       FD_USEGROUP          IFDGRP         FULL         [  0]   ***   
       FILE_RECSIZ          IFLREC              4096           words  
       FINITE_PERT          IFIPER              0             x 10-6  
       FIXGEOM              IFIXGM         OFF          [  0]   ***   
       FOCK                 IFOCK          AO           [  1]   ***   
       FREQ_ALGORI          IVIALG         STANDARD     [  0]   ***   
       FROZEN_CORE          IFROCO         ON           [  1]   ***   
       FROZEN_VIRT          IFROVI         OFF          [  0]   ***   
       GAMMA_ABCD           IGABCD         STORE        [  0]   ***   
       GAMMA_ABCI           IGABCI         STORE        [  0]   ***   
       GENBAS_1             IGNBS1              0               ***   
       GENBAS_2             IGNBS2              0               ***   
       GENBAS_3             IGNBS3              0               ***   
       GENBAS_4             IGNBS4              0               ***   
       GEO_CONV             ICONTL              5              H/bohr 
       GEO_MAXCYC           IOPTCY             50               ***   
       GEO_MAXSTEP          IMXSTP            300            millibohr
       GEO_METHOD           INR            SINGLE_POINT [  5]   ***   
       GIAO                 IGIAO          OFF          [  1]   ***   
       GIMIC                IGIMIC         OFF          [  0]   ***   
       GRID                 IGRID          OFF          [  0]   ***   
       GRID_ALGO            IGALGO         SERIAL       [  0]   ***   
       GUESS                IGUESS            MOREAD    [  0]   ***   
       HBAR                 IHBAR              OFF      [  0]   ***   
       HESS_TYPE            IHESTP         SCF          [  0]   ***   
       HF2_FILE             IHF2Fl         USE          [  1]   ***   
       HFSTABILITY          ISTABL         OFF          [  0]   ***   
       INCORE               INCORE             OFF      [  0]   ***   
       INPUT_MRCC           IMRCC          OFF          [  0]   ***   
       INTEGRALS            INTTYP             VMOL     [  1]   ***   
       JODA_PRINT           IJPRNT              4               ***   
       LINDEP_TOL           ILINDP              8               ***   
       LINEQ_CONV           IZTACN          10D-  7           cycles  
       LINEQ_EXPOR          ILMAXD              5               ***   
       LINEQ_MAXCY          ILMAXC             50               ***   
       LINEQ_TYPE           ILTYPE         DIIS         [  1]   ***   
       LOCK_ORBOCC          ILOCOC             OFF      [  0]   ***   
       MEMORY_SIZE          IMEMSZ         500000000           words  
       MEM_UNIT             IMEMU          GB           [  3]   ***   
       MRCC                 IMRCCC         OFF          [  0]   ***   
       MULTIPLICTY          IMULTP              2               ***   
       NEGEVAL              IDIE             ABORT      [  0]   ***   
       NEWNORM              INEWNO         OFF          [  0]   ***   
       NON-HF               INONHF              ON      [  1]   ***   
       NTOP_TAMP            ITOPT2             15               ***   
       NUC_MODEL            INUCMO         POINT        [  0]   ***   
       OCCUPATION           IOCCU   ESTIMATED BY SCF 
       OPEN-SHELL           IOPEN          SPIN-ORBITAL [  0]   ***   
       ORBITALS             IORBTP         SEMICANONICAL[  1]   ***   
       PARALLEL             IPARAL         ON           [  1]   ***   
       PARA_INT             IPINTS         ON           [  1]   ***   
       PARA_PRINT           IPPRIN              0               ***   
       PERT_ORB             IPTORB         STANDARD     [  0]   ***   
       POINTS               IGRDFD              0               ***   
       PRINT                IPRNT               4               ***   
       PROPS                IPROPS             OFF      [  0]   ***   
       PROP_INTEGR          IINTYP         INTERNAL     [  0]   ***   
       PSI                  IPSI           OFF          [  0]   ***   
       QUARTIC              IQUART         OFF          [  0]   ***   
       RAMAN_INT            IRAMIN         OFF          [  0]   ***   
       RAMAN_ORB            IRAMRE         UNRELAXED    [  0]   ***   
       RDO                  IRDOFM             OFF      [  0]   ***   
       REFERENCE            IREFNC             ROHF     [  2]   ***   
       RELATIVIST           IRELAT         OFF          [  0]   ***   
       RELAX_DENS           IRDENS             OFF      [  0]   ***   
       RESET_FLAGS          IRESET             OFF      [  0]   ***   
       RESTART_CC           ICCRES         OFF          [  0]   ***   
       ROT_EVEC             ROTVEC              0               ***   
       SAVE_INTS            ISVINT              ON      [  1]   ***   
       SCALE_ON             ISTCRT              0               ***   
       SCF_CONV             ISCFCV          10D- 14             ***   
       SCF_DAMPING          IDAMP               0             x 10-3  
       SCF_EXPORDE          IRPPOR              6               ***   
       SCF_EXPSTAR          IRPPLS              5               ***   
       SCF_EXTRAPO          IRPP                ON      [  1]   ***   
       SCF_MAXCYC           ISCFCY            ***              cycles 
       SCF_NOSTOP           ISCFST         OFF          [  0]   ***   
       SCF_PRINT            ISCFPR              0               ***   
       SD_FIELD             IFINSD              0             x 10-6  
       SEQUENCE             ISEQUE         OFF          [  0]   ***   
       SOPERT               IPERSO         OFF          [  0]   ***   
       SPHERICAL            IDFGHI             ON       [  1]   ***   
       SPINORBIT            ISOCAL         OFF          [  0]   ***   
       SPINROTATIO          ISRCON         OFF          [  0]   ***   
       SPIN_FLIP            ISPFLP         OFF          [  0]   ***   
       SPIN_ORBIT           ISPORB         OFF          [  0]   ***   
       SPIN_SCAL            ISCSMP         OFF          [  0]   ***   
       SUBGROUP             ISUBGP         DEFAULT      [  0]   ***   
       SUBGRPAXIS           ISBXYZ         X            [  0]   ***   
       SYMMETRY             ISYM             ON         [  0]   ***   
       SYM_CHECK            ISYMCK         OVERRIDE     [  1]   ***   
       T3_EXTRAPOL          IT3EXT         ON           [  1]   ***   
       TAMP_SUM             IEVERY              5               ***   
       TESTSUITE            ITESTS         OFF          [  0]   ***   
       THERMOCH             ITHERM         OFF          [  0]   ***   
       TOL_CHOLESK          ITOLCH          10D-  4             ***   
       TRANGRAD             IRESRM         OFF          [  0]   ***   
       TRANS_INV            ITRAIN         USE          [  0]   ***   
       TREAT_PERT           ITREAT         SIMULTANEOUS [  0]   ***   
       UIJ_THRESHO          IUIJTH              1               ***   
       UNITS                IUNITS         BOHR         [  1]   ***   
       UNOS                 IUNOS          OFF          [  0]   ***   
       UPDATE_HESS          IHUPDT         ON           [  1]   ***   
       VIBPHASE             ISETPH         STANDARD     [  0]   ***   
       VIBRATION            IVIB              NO        [  0]   ***   
       VIB_ALGORIT          IGEALG         STANDARD     [  0]   ***   
       VNATORB              IVNORB         OFF          [  0]   ***   
       VTRAN                IVTRAN         FULL/PARTIAL [  0]   ***   
       XFIELD               IXEFLD              0             x 10-6  
       XFORM_TOL            IXFTOL          10D- 18             ***   
       YFIELD               IYEFLD              0             x 10-6  
       ZFIELD               IZEFLD              0             x 10-6  
    -------------------------------------------------------------------
   2 entries found in Z-matrix 
   Job Title : TITLE                                                                           
 Variable names read by FETCHZ
  1           
  2           
  3           
  4 R         
  5           
  6           
 Atomic symbols read by FETCHZ
  1 F    
  2 F    
 Connectivity matrix read by FETCHZ
  1   0
  2   0
  3   0
  4   1
  5   0
  6   0
   There are  1 unique internal coordinates.
   Of these,  0 will be optimized.
   User supplied Z-matrix: 
--------------------------------------------------------------------------------
       SYMBOL    BOND      LENGTH    ANGLE     ANGLE     DIHED     ANGLE
                  TO      (ANGST)    WRT      (DEG)      WRT      (DEG)
--------------------------------------------------------------------------------
        F    
        F          1         R    
                  *Initial values for internal coordinates* 
                      Name             Value
                        R               2.6681043154
--------------------------------------------------------------------------------
  1  F          9    18.99840
  2  F          9    18.99840
   18.9984032200
   18.9984032200
 After translation to center of mass coordinates 
        0.000000000000    0.000000000000   -1.334052157680
        0.000000000000    0.000000000000    1.334052157680
  Inertia tensor (amu*bohr**2)
   67.62273    0.00000    0.00000
    0.00000   67.62273    0.00000
    0.00000    0.00000    0.00000
    Inertia tensor:
       67.622732494332    0.000000000000    0.000000000000
        0.000000000000   67.622732494332    0.000000000000
        0.000000000000    0.000000000000    0.000000000000
    Principal axis orientation for molecular system: 
        0.000000000000    0.000000000000    1.334052157680
        0.000000000000    0.000000000000   -1.334052157680
    Diagonalized inertia tensor:
       67.622732494332    0.000000000000    0.000000000000
        0.000000000000   67.622732494332    0.000000000000
        0.000000000000    0.000000000000    0.000000000000
    Eigenvectors of inertia tensor: 
        1.000000000000    0.000000000000    0.000000000000
        0.000000000000    1.000000000000    0.000000000000
        0.000000000000    0.000000000000   -1.000000000000
 factor:   60.1997200000000     
   Rotational constants (in cm-1): 
          0.8902290366             0.8902290366
   Rotational constants (in MHz): 
      26688.3988451853         26688.3988451853
  @SYMMETRY-I, Handedness of inertial frame:-1.00000
  @SYMMETRY-I, Sense of inertial frame y-axis will be changed.
  @SYMMETRY-I, The symmetry group is 2-fold degenerate.
  @SYMMETRY-I, The molecule belongs to a point group with doubly degenerate representations.
  @SYMMETRY-I, The molecule is linear.
   Principal axis orientation for molecule:
        0.000000000000    0.000000000000    1.334052157680
        0.000000000000    0.000000000000   -1.334052157680
   Reflection in plane  3 is a valid symmetry operation.
   Rotation about  3 is a valid symmetry operation 
   Reflection in plane  2 is a valid symmetry operation.
   Rotation about  2 is a valid symmetry operation 
   Reflection in plane  1 is a valid symmetry operation.
   Rotation about  1 is a valid symmetry operation 
   The molecule possesses an inversion center. 
  Symmetry bits:    7   7   1
********************************************************************************
   The full molecular point group is DXh .
   The largest Abelian subgroup of the full molecular point group is D2h .
   The computational point group is D2h .
********************************************************************************
--------------------------------------------------------------------------------
   Analysis of internal coordinates specified by Z-matrix 
--------------------------------------------------------------------------------
   *The nuclear repulsion energy is   30.358633106543621 a.u.
   *There is   1 degree of freedom within the tot. symm. molecular subspace.
   *Z-matrix requests optimization of   0 coordinates.
   *The optimization is constrained.
   *The following   1 parameters can have non-zero 
    derivatives within the totally symmetric subspace:
             R    [ 1]
   *The following   0 parameters are to be optimized:

   *The following coordinates must be varied in an  unconstrained optimization.
             R    [ 1]
--------------------------------------------------------------------------------
 ----------------------------------------------------------------
 Z-matrix   Atomic            Coordinates (in bohr)
  Symbol    Number           X              Y              Z
 ----------------------------------------------------------------
     F         9         0.00000000     0.00000000     1.33405216
     F         9         0.00000000     0.00000000    -1.33405216
 ----------------------------------------------------------------
   Interatomic distance matrix (Angstroms) 
 
                 F             F    
                [ 1]        [ 2]
  F    [ 1]     0.00000
  F    [ 2]     1.41190     0.00000
  Inertia tensor (amu*bohr**2)
   67.62273    0.00000    0.00000
    0.00000   67.62273    0.00000
    0.00000    0.00000    0.00000
   Rotational constants (in cm-1): 
          0.8902290366             0.0000000000
   Rotational constants (in MHz): 
      26688.3988451853             0.0000000000
  @GTFLGS-W, Keyword #GEOM not known and is ignored.
  @GTFLGS-W, Keyword #COORD not known and is ignored.
  @GTFLGS-W, Keyword #CC_PROG not known and is ignored.
  @GTFLGS-W, Keyword #DROPMO not known and is ignored.
  @GTFLGS-W, Keyword #CONTRACTION not known and is ignored.
  @GTFLGS-W, Keyword #EXCITE not known and is ignored.
  @GTFLGS-W, Keyword #ESTATE_CONV not known and is ignored.
  @GTFLGS-W, Keyword #ESTATE_SYM not known and is ignored.
  @GTFLGS-W, Keyword #SCF_DAMPING not known and is ignored.
  @GTFLGS-W, Keyword #OCCUPATION not known and is ignored.
  There are   2 frozen-core orbitals.
  There are   2 frozen-core orbitals.
  There are   62 basis functions.
 @GEOPT-W, Archive file not created for single-point calculation.
  @CHECKOUT-I, Total execution time (CPU/WALL):        0.18/       0.23 seconds.
--executable xjoda finished with status     0 in        0.25 seconds (walltime).
 --invoking executable--
/project1/nike/cfour_v2.00beta_May2019xnmol_noLABBASIS/bin/xvmol
Running with 1 threads/proc

********************************************************************************
                   INPUT FROM MOL FILE                                          
********************************************************************************
INTGRL        1    0    1    0    0    0    0    0    0
         *** CFOUR Program System (Release V0.1) *** 
TITLE
    1    3 X  Y   Z   0.10E-08              0    0
   9999.00      3.00
          9.00000000    1    4    1    1    1    1
F #1   0.000000000000000   0.000000000000000   1.334052157680000
   11    5
   35479.1004410000       2.154501488800000E-004  0.000000000000000E+000
  0.000000000000000E+000  0.000000000000000E+000  0.000000000000000E+000
   5318.47289830000       1.670068652700000E-003  0.000000000000000E+000
  0.000000000000000E+000  0.000000000000000E+000  0.000000000000000E+000
   1210.48109750000       8.673321147599999E-003  0.000000000000000E+000
  0.000000000000000E+000  0.000000000000000E+000  0.000000000000000E+000
   342.855181400000       3.504993317500000E-002  0.000000000000000E+000
  0.000000000000000E+000  0.000000000000000E+000  0.000000000000000E+000
   112.019431810000       0.111653201330000       0.000000000000000E+000
  0.000000000000000E+000  0.000000000000000E+000  0.000000000000000E+000
   40.7147402480000       0.259885066470000       0.000000000000000E+000
  0.000000000000000E+000  0.000000000000000E+000  0.000000000000000E+000
   16.0396781110000       0.000000000000000E+000  0.394229668800000     
  0.000000000000000E+000  0.000000000000000E+000  0.000000000000000E+000
   6.50381867400000       0.000000000000000E+000  0.249982385510000     
  0.000000000000000E+000  0.000000000000000E+000  0.000000000000000E+000
   1.54404775090000       0.000000000000000E+000  0.000000000000000E+000
   1.00000000000000       0.000000000000000E+000  0.000000000000000E+000
  0.612234528620000       0.000000000000000E+000  0.000000000000000E+000
  0.000000000000000E+000   1.00000000000000       0.000000000000000E+000
  0.240279796980000       0.000000000000000E+000  0.000000000000000E+000
  0.000000000000000E+000  0.000000000000000E+000   1.00000000000000     
    6    3
   80.2339004830000       6.368599913400000E-003  0.000000000000000E+000
  0.000000000000000E+000
   18.5940107430000       4.430314353000000E-002  0.000000000000000E+000
  0.000000000000000E+000
   5.68679026530000       0.168672487080000       0.000000000000000E+000
  0.000000000000000E+000
   1.95110062940000       0.361663462550000       0.000000000000000E+000
  0.000000000000000E+000
  0.669702112980000       0.000000000000000E+000  0.442029014910000     
  0.000000000000000E+000
  0.216513004100000       0.000000000000000E+000  0.000000000000000E+000
  0.243198757300000     
    2    2
   3.10700000000000        1.00000000000000       0.000000000000000E+000
  0.855000000000000       0.000000000000000E+000   1.00000000000000     
    1    1
   1.91700000000000        1.00000000000000     
FINISH
                                                                                
********************************************************************************

ONE- AND TWO-ELECTRON INTEGRALS OVER SYMMETRY-ADAPTED AOS ARE CALCULATED.


    BASIS FUNCTION NOT NORMALIZED:
    CENTER (AS ORDERED IN MOL FILE): ?
    ANGULAR MOMENTUM TYPE:           S
    OFFSET WITHIN ANGULAR MOMENTUM:  1
    <CHI|CHI>:                       0.1470459150

    BASIS FUNCTION NOT NORMALIZED:
    CENTER (AS ORDERED IN MOL FILE): ?
    ANGULAR MOMENTUM TYPE:           S
    OFFSET WITHIN ANGULAR MOMENTUM:  2
    <CHI|CHI>:                       0.3879183687

    BASIS FUNCTION NOT NORMALIZED:
    CENTER (AS ORDERED IN MOL FILE): ?
    ANGULAR MOMENTUM TYPE:           P
    OFFSET WITHIN ANGULAR MOMENTUM:  1
    <CHI|CHI>:                       0.2671601553

    BASIS FUNCTION NOT NORMALIZED:
    CENTER (AS ORDERED IN MOL FILE): ?
    ANGULAR MOMENTUM TYPE:           P
    OFFSET WITHIN ANGULAR MOMENTUM:  2
    <CHI|CHI>:                       0.1953896500

    BASIS FUNCTION NOT NORMALIZED:
    CENTER (AS ORDERED IN MOL FILE): ?
    ANGULAR MOMENTUM TYPE:           P
    OFFSET WITHIN ANGULAR MOMENTUM:  3
    <CHI|CHI>:                       0.0591456356
CARTESIAN GAUSSIANS ARE USED.

1 TYPES OF ATOMS
3 SYMMETRY OPERATIONS

REFLECTION IN THE YZ-PLANE
REFLECTION IN THE XZ-PLANE
REFLECTION IN THE XY-PLANE

INTEGRALS LESS THAN 1e-14 ARE NEGLECTED.

ATOMIC TYPE NUMBER 1:
---------------------

    NUCLEAR CHARGE:                       9
    NUMBER OF SYMMETRY INDEPENDENT ATOMS: 1
    HIGHEST ORBITAL TYPE:                 F

    1 GROUPS OF CGTOS OF S TYPE
    1 GROUPS OF CGTOS OF P TYPE
    1 GROUPS OF CGTOS OF D TYPE
    1 GROUPS OF CGTOS OF F TYPE

    NUCLEAR COORDINATES (IN A.U.) ARE:

    F #1   0.000000000000000   0.000000000000000   1.334052157680000

INTERNUCLEAR DISTANCES (A):

    FOR ATOM F #1 (COORDINATES:   0.00000   0.00000   1.33405)

    F #1 5 DISTANCE IS   1.41190

GROUP MULTIPLICATION TABLE:

    1 2 3 4 5 6 7 8
    2 1 4 3 6 5 8 7
    3 4 1 2 7 8 5 6
    4 3 2 1 8 7 6 5
    5 6 7 8 1 2 3 4
    6 5 8 7 2 1 4 3
    7 8 5 6 3 4 1 2
    8 7 6 5 4 3 2 1

GAUSSIAN BASIS INFORMATION:

ATOM                EXPONENT       COEFFICIENTS

F #1  1  S   
                  1   35479.100441   1.0351657   0.0000000   0.0000000   0.0000000   0.0000000
                  2    5318.472898   1.9331170   0.0000000   0.0000000   0.0000000   0.0000000
                  3    1210.481098   3.3081679   0.0000000   0.0000000   0.0000000   0.0000000
                  4     342.855181   5.1904360   0.0000000   0.0000000   0.0000000   0.0000000
                  5     112.019432   7.1453715   0.0000000   0.0000000   0.0000000   0.0000000
                  6      40.714740   7.7853598   0.0000000   0.0000000   0.0000000   0.0000000
                  7      16.039678   0.0000000   3.6156465   0.0000000   0.0000000   0.0000000
                  8       6.503819   0.0000000   1.1649993   0.0000000   0.0000000   0.0000000
                  9       1.544048   0.0000000   0.0000000   0.9872011   0.0000000   0.0000000
                 10       0.612235   0.0000000   0.0000000   0.0000000   0.4932856   0.0000000
                 11       0.240280   0.0000000   0.0000000   0.0000000   0.0000000   0.2445953

F #1  5  S   
                 12   35479.100441   1.0351657   0.0000000   0.0000000   0.0000000   0.0000000
                 13    5318.472898   1.9331170   0.0000000   0.0000000   0.0000000   0.0000000
                 14    1210.481098   3.3081679   0.0000000   0.0000000   0.0000000   0.0000000
                 15     342.855181   5.1904360   0.0000000   0.0000000   0.0000000   0.0000000
                 16     112.019432   7.1453715   0.0000000   0.0000000   0.0000000   0.0000000
                 17      40.714740   7.7853598   0.0000000   0.0000000   0.0000000   0.0000000
                 18      16.039678   0.0000000   3.6156465   0.0000000   0.0000000   0.0000000
                 19       6.503819   0.0000000   1.1649993   0.0000000   0.0000000   0.0000000
                 20       1.544048   0.0000000   0.0000000   0.9872011   0.0000000   0.0000000
                 21       0.612235   0.0000000   0.0000000   0.0000000   0.4932856   0.0000000
                 22       0.240280   0.0000000   0.0000000   0.0000000   0.0000000   0.2445953

F #1  1  X   
                 23      80.233900   4.2174078   0.0000000   0.0000000
                 24      18.594011   4.7174264   0.0000000   0.0000000
                 25       5.686790   4.0849101   0.0000000   0.0000000
                 26       1.951101   2.2998974   0.0000000   0.0000000
                 27       0.669702   0.0000000   0.8635593   0.0000000
                 28       0.216513   0.0000000   0.0000000   0.2105208

F #1  5  X   
                 29      80.233900   4.2174078   0.0000000   0.0000000
                 30      18.594011   4.7174264   0.0000000   0.0000000
                 31       5.686790   4.0849101   0.0000000   0.0000000
                 32       1.951101   2.2998974   0.0000000   0.0000000
                 33       0.669702   0.0000000   0.8635593   0.0000000
                 34       0.216513   0.0000000   0.0000000   0.2105208

F #1  1  Y   
                 35      80.233900   4.2174078   0.0000000   0.0000000
                 36      18.594011   4.7174264   0.0000000   0.0000000
                 37       5.686790   4.0849101   0.0000000   0.0000000
                 38       1.951101   2.2998974   0.0000000   0.0000000
                 39       0.669702   0.0000000   0.8635593   0.0000000
                 40       0.216513   0.0000000   0.0000000   0.2105208

F #1  5  Y   
                 41      80.233900   4.2174078   0.0000000   0.0000000
                 42      18.594011   4.7174264   0.0000000   0.0000000
                 43       5.686790   4.0849101   0.0000000   0.0000000
                 44       1.951101   2.2998974   0.0000000   0.0000000
                 45       0.669702   0.0000000   0.8635593   0.0000000
                 46       0.216513   0.0000000   0.0000000   0.2105208

F #1  1  Z   
                 47      80.233900   4.2174078   0.0000000   0.0000000
                 48      18.594011   4.7174264   0.0000000   0.0000000
                 49       5.686790   4.0849101   0.0000000   0.0000000
                 50       1.951101   2.2998974   0.0000000   0.0000000
                 51       0.669702   0.0000000   0.8635593   0.0000000
                 52       0.216513   0.0000000   0.0000000   0.2105208

F #1  5  Z   
                 53      80.233900   4.2174078   0.0000000   0.0000000
                 54      18.594011   4.7174264   0.0000000   0.0000000
                 55       5.686790   4.0849101   0.0000000   0.0000000
                 56       1.951101   2.2998974   0.0000000   0.0000000
                 57       0.669702   0.0000000   0.8635593   0.0000000
                 58       0.216513   0.0000000   0.0000000   0.2105208

F #1  1  XX  
                 59       3.107000  20.7284714   0.0000000
                 60       0.855000   0.0000000   2.1672588

F #1  5  XX  
                 61       3.107000  20.7284714   0.0000000
                 62       0.855000   0.0000000   2.1672588

F #1  1  XY  
                 63       3.107000  20.7284714   0.0000000
                 64       0.855000   0.0000000   2.1672588

F #1  5  XY  
                 65       3.107000  20.7284714   0.0000000
                 66       0.855000   0.0000000   2.1672588

F #1  1  XZ  
                 67       3.107000  20.7284714   0.0000000
                 68       0.855000   0.0000000   2.1672588

F #1  5  XZ  
                 69       3.107000  20.7284714   0.0000000
                 70       0.855000   0.0000000   2.1672588

F #1  1  YY  
                 71       3.107000  20.7284714   0.0000000
                 72       0.855000   0.0000000   2.1672588

F #1  5  YY  
                 73       3.107000  20.7284714   0.0000000
                 74       0.855000   0.0000000   2.1672588

F #1  1  YZ  
                 75       3.107000  20.7284714   0.0000000
                 76       0.855000   0.0000000   2.1672588

F #1  5  YZ  
                 77       3.107000  20.7284714   0.0000000
                 78       0.855000   0.0000000   2.1672588

F #1  1  ZZ  
                 79       3.107000  20.7284714   0.0000000
                 80       0.855000   0.0000000   2.1672588

F #1  5  ZZ  
                 81       3.107000  20.7284714   0.0000000
                 82       0.855000   0.0000000   2.1672588

F #1  1  F300
                 83       1.917000  24.6547063

F #1  5  F300
                 84       1.917000  24.6547063

F #1  1  F210
                 85       1.917000  24.6547063

F #1  5  F210
                 86       1.917000  24.6547063

F #1  1  F201
                 87       1.917000  24.6547063

F #1  5  F201
                 88       1.917000  24.6547063

F #1  1  F120
                 89       1.917000  24.6547063

F #1  5  F120
                 90       1.917000  24.6547063

F #1  1  F111
                 91       1.917000  24.6547063

F #1  5  F111
                 92       1.917000  24.6547063

F #1  1  F102
                 93       1.917000  24.6547063

F #1  5  F102
                 94       1.917000  24.6547063

F #1  1  F030
                 95       1.917000  24.6547063

F #1  5  F030
                 96       1.917000  24.6547063

F #1  1  F021
                 97       1.917000  24.6547063

F #1  5  F021
                 98       1.917000  24.6547063

F #1  1  F012
                 99       1.917000  24.6547063

F #1  5  F012
                100       1.917000  24.6547063

F #1  1  F003
                101       1.917000  24.6547063

F #1  5  F003
                102       1.917000  24.6547063

SYMMETRY TRANSFORMATION INTO 62 SYMMETRY-ADAPTED BASIS FUNCTIONS

    IRREDUCIBLE REPRESENTATION NUMBER 1

    1    1 F #1 S      1   1.0   2   1.0
    2    2 F #1 S      3   1.0   4   1.0
    3    3 F #1 S      5   1.0   6   1.0
    4    4 F #1 S      7   1.0   8   1.0
    5    5 F #1 S      9   1.0  10   1.0
    6    6 F #1 Z     23   1.0  24  -1.0
    7    7 F #1 Z     25   1.0  26  -1.0
    8    8 F #1 Z     27   1.0  28  -1.0
    9    9 F #1 XX    29  -1.0  30  -1.0  41  -1.0  42  -1.0  49   2.0  50   2.0
   10   10 F #1 XX    31  -1.0  32  -1.0  43  -1.0  44  -1.0  51   2.0  52   2.0
   11   11 F #1 YY    29   1.0  30   1.0  41  -1.0  42  -1.0
   12   12 F #1 YY    31   1.0  32   1.0  43  -1.0  44  -1.0
   13   13 F #1 ZZ    57  -3.0  58   3.0  67  -3.0  68   3.0  71   2.0  72  -2.0
   14   14 F #1 ZZ    57   1.0  58  -1.0  67  -1.0  68   1.0
   15   15 F #1 F201  11   1.0  12   1.0
   16   16 F #1 F021  13   1.0  14   1.0
   17   17 F #1 F003  15   1.0  16   1.0

    IRREDUCIBLE REPRESENTATION NUMBER 2

   18    1 F #1 X     37   1.0  38  -1.0
   19    2 F #1 X     39   1.0  40  -1.0
   20    3 F #1 X     53  -1.0  54  -1.0  59  -1.0  60  -1.0  63   4.0  64   4.0
   21    4 F #1 XZ    53   1.0  54   1.0  59  -3.0  60  -3.0
   22    5 F #1 XZ    17   1.0  18   1.0
   23    6 F #1 F300  19   1.0  20   1.0
   24    7 F #1 F120  21   1.0  22   1.0
   25    8 F #1 F102  45   1.0  46  -1.0

    IRREDUCIBLE REPRESENTATION NUMBER 3

   26    1 F #1 Y     47   1.0  48  -1.0
   27    2 F #1 Y     55  -1.0  56  -1.0  65  -1.0  66  -1.0  69   4.0  70   4.0
   28    3 F #1 Y     55   3.0  56   3.0  65  -1.0  66  -1.0
   29    4 F #1 YZ    33   1.0  34   1.0
   30    5 F #1 YZ    35   1.0  36   1.0
   31    6 F #1 F210  61   1.0  62  -1.0
   32    7 F #1 F030   1   1.0   2  -1.0
   33    8 F #1 F012   3   1.0   4  -1.0

    IRREDUCIBLE REPRESENTATION NUMBER 4

   34    1 F #1 XY     5   1.0   6  -1.0
   35    2 F #1 XY     7   1.0   8  -1.0
   36    3 F #1 F111   9   1.0  10  -1.0

    IRREDUCIBLE REPRESENTATION NUMBER 5

   37    1 F #1 S     23   1.0  24   1.0
   38    2 F #1 S     25   1.0  26   1.0
   39    3 F #1 S     27   1.0  28   1.0
   40    4 F #1 S     29  -1.0  30   1.0  41  -1.0  42   1.0  49   2.0  50  -2.0
   41    5 F #1 S     31  -1.0  32   1.0  43  -1.0  44   1.0  51   2.0  52  -2.0
   42    6 F #1 Z     29   1.0  30  -1.0  41  -1.0  42   1.0
   43    7 F #1 Z     31   1.0  32  -1.0  43  -1.0  44   1.0
   44    8 F #1 Z     57  -3.0  58  -3.0  67  -3.0  68  -3.0  71   2.0  72   2.0
   45    9 F #1 XX    57   1.0  58   1.0  67  -1.0  68  -1.0
   46   10 F #1 XX    11   1.0  12  -1.0
   47   11 F #1 YY    13   1.0  14  -1.0
   48   12 F #1 YY    15   1.0  16  -1.0
   49   13 F #1 ZZ    37   1.0  38   1.0
   50   14 F #1 ZZ    39   1.0  40   1.0
   51   15 F #1 F201  53  -1.0  54   1.0  59  -1.0  60   1.0  63   4.0  64  -4.0
   52   16 F #1 F021  53   1.0  54  -1.0  59  -3.0  60   3.0
   53   17 F #1 F003  17   1.0  18  -1.0

    IRREDUCIBLE REPRESENTATION NUMBER 6

   54    1 F #1 X     19   1.0  20  -1.0
   55    2 F #1 X     21   1.0  22  -1.0
   56    3 F #1 X     45   1.0  46   1.0
   57    4 F #1 XZ    47   1.0  48   1.0
   58    5 F #1 XZ    55  -1.0  56   1.0  65  -1.0  66   1.0  69   4.0  70  -4.0
   59    6 F #1 F300  55   3.0  56  -3.0  65  -1.0  66   1.0
   60    7 F #1 F120  33   1.0  34  -1.0
   61    8 F #1 F102  35   1.0  36  -1.0

    IRREDUCIBLE REPRESENTATION NUMBER 7

   62    1 F #1 Y     61   1.0  62   1.0
   63    2 F #1 Y   
   64    3 F #1 Y   
   65    4 F #1 YZ  
   66    5 F #1 YZ  
   67    6 F #1 F210
   68    7 F #1 F030
   69    8 F #1 F012

    IRREDUCIBLE REPRESENTATION NUMBER 8

   70    1 F #1 XY  
   71    2 F #1 XY  
   72    3 F #1 F111

NUCLEAR REPULSION ENERGY:   30.3586331065 A.U.

One-electron integrals took 0.004542 seconds

  @TWOEL-I,       8038 INTEGRALS OF SYMMETRY TYPE  I I I I
  @TWOEL-I,      54976 INTEGRALS OF SYMMETRY TYPE  I J I J
  @TWOEL-I,      34299 INTEGRALS OF SYMMETRY TYPE  I I J J
  @TWOEL-I,     107739 INTEGRALS OF SYMMETRY TYPE  I J K L
  @TWOEL-I, TOTAL NUMBER OF 2-E INTEGRALS     205052

Two-electron integrals took 0.843901 seconds

Nuclear repulsion energy: 30.358633106544
--executable xvmol finished with status     0 in        1.03 seconds (walltime).
 --invoking executable--
/project1/nike/cfour_v2.00beta_May2019xnmol_noLABBASIS/bin/xvmol2ja
--executable xvmol2ja finished with status     0 in        0.01 seconds (walltime).
 --invoking executable--
/project1/nike/cfour_v2.00beta_May2019xnmol_noLABBASIS/bin/xvscf
  There are   62 functions in the AO basis.

  There are 8 irreducible representations.

       Irrep        # of functions
         1                 14
         2                  7
         3                  7
         4                  3
         5                 14
         6                  7
         7                  7
         8                  3


  Parameters for SCF calculation: 
        SCF reference function: ROHF  
  Maximum number of iterations: 9999
     Full symmetry point group: DXh 
     Computational point group: D2h 
        Initial density matrix: CORE                   
     SCF convergence tolerance: 10**(-14)
  DIIS convergence acceleration:  ON
          Latest start for DIIS:   5
                     DIIS order:   6

  Memory information:     207988 words required.
  Fock matrices are constructed from AO integral file.
 @GETMEM-I,  Allocated       1 MB of main memory.
  Initialization and symmetry analysis required      0.001 seconds.

  @INITGES-I, Occupancies from core Hamiltonian:

          Alpha population by irrep:   2    1    1    0    3    1    1    0
           Beta population by irrep:   2    1    1    0    2    1    1    0


 total no. of electrons in initial guess :  0.000000000000000E+000
 total no. of electrons in initial guess :  0.000000000000000E+000
  --------------------------------------------------------------------
  Iteration         Total Energy            Largest Density Difference
  --------------------------------------------------------------------
       0            30.358633106543621              0.0000000000D+00
   current occupation vector 
     2  1  1  0  3  1  1  0
     2  1  1  0  2  1  1  0
  processed                   8038  ao basis integrals from 
                    14  buffers.
  processed                  34299  ao basis integrals from 
                    58  buffers.
  processed                  54976  ao basis integrals from 
                    92  buffers.
       1          -181.607564497926774              0.7965778275D+00
   current occupation vector 
     2  1  1  0  3  1  1  0
     2  1  1  0  2  1  1  0
  processed                   8038  ao basis integrals from 
                    14  buffers.
  processed                  34299  ao basis integrals from 
                    58  buffers.
  processed                  54976  ao basis integrals from 
                    92  buffers.
       2          -191.504522479611410              0.7764617035D+00
   current occupation vector 
     3  1  1  0  2  1  1  0
     3  1  1  0  2  1  0  0
  processed                   8038  ao basis integrals from 
                    14  buffers.
  processed                  34299  ao basis integrals from 
                    58  buffers.
  processed                  54976  ao basis integrals from 
                    92  buffers.
       3          -197.132719887843734              0.4379078090D+00
   current occupation vector 
     3  1  1  0  2  1  1  0
     3  1  1  0  2  1  0  0
  processed                   8038  ao basis integrals from 
                    14  buffers.
  processed                  34299  ao basis integrals from 
                    58  buffers.
  processed                  54976  ao basis integrals from 
                    92  buffers.
       4          -198.025805695272368              0.1257534696D+00
   current occupation vector 
     3  1  1  0  2  1  1  0
     3  1  1  0  2  1  0  0
 
 sum over diagonal and offdiagdiagonal of C(T)*S*C for irrep
                     1
 -1.565414464721471E-014 -1.805125642861813E-014
 reorthoganalization of MOs is carried out
 sum over diagonal and offdiagdiagonal of C(T)*S*C for irrep
                     1
  7.771561172376096E-016 -8.995261619882811E-017
 
 sum over diagonal and offdiagdiagonal of C(T)*S*C for irrep
                     2
 -1.365574320288943E-014 -7.964018267943934E-015
 reorthoganalization of MOs is carried out
 sum over diagonal and offdiagdiagonal of C(T)*S*C for irrep
                     2
  0.000000000000000E+000 -9.204280742011996E-016
 
 sum over diagonal and offdiagdiagonal of C(T)*S*C for irrep
                     3
  1.776356839400250E-014 -1.084184645520941E-014
 reorthoganalization of MOs is carried out
 sum over diagonal and offdiagdiagonal of C(T)*S*C for irrep
                     3
  6.661338147750939E-016  4.278852842806306E-016
 
 sum over diagonal and offdiagdiagonal of C(T)*S*C for irrep
                     4
  1.332267629550188E-015  1.627170620466245E-015
 reorthoganalization of MOs is carried out
 sum over diagonal and offdiagdiagonal of C(T)*S*C for irrep
                     4
  3.330669073875470E-016 -2.990229591715021E-016
 
 sum over diagonal and offdiagdiagonal of C(T)*S*C for irrep
                     5
 -8.548717289613705E-015 -1.564486974192073E-014
 reorthoganalization of MOs is carried out
 sum over diagonal and offdiagdiagonal of C(T)*S*C for irrep
                     5
 -3.108624468950438E-015  5.698362740498855E-015
 
 sum over diagonal and offdiagdiagonal of C(T)*S*C for irrep
                     6
 -1.176836406102666E-014 -1.611443601908514E-014
 reorthoganalization of MOs is carried out
 sum over diagonal and offdiagdiagonal of C(T)*S*C for irrep
                     6
  5.551115123125783E-016 -2.896398904869273E-016
 
 sum over diagonal and offdiagdiagonal of C(T)*S*C for irrep
                     7
  9.436895709313831E-015 -7.989309615439305E-016
 reorthoganalization of MOs is carried out
 sum over diagonal and offdiagdiagonal of C(T)*S*C for irrep
                     7
  0.000000000000000E+000 -5.904429340648374E-016
 
 sum over diagonal and offdiagdiagonal of C(T)*S*C for irrep
                     8
 -2.442490654175344E-015 -1.985499438472704E-015
 reorthoganalization of MOs is carried out
 sum over diagonal and offdiagdiagonal of C(T)*S*C for irrep
                     8
  3.330669073875470E-016 -3.067750047047735E-016
  processed                   8038  ao basis integrals from 
                    14  buffers.
  processed                  34299  ao basis integrals from 
                    58  buffers.
  processed                  54976  ao basis integrals from 
                    92  buffers.
       5          -198.143120860945828              0.4221860247D-01
   current occupation vector 
     3  1  1  0  2  1  1  0
     3  1  1  0  2  1  0  0
  processed                   8038  ao basis integrals from 
                    14  buffers.
  processed                  34299  ao basis integrals from 
                    58  buffers.
  processed                  54976  ao basis integrals from 
                    92  buffers.
       6          -198.157370973351647              0.9787597736D-02
   current occupation vector 
     3  1  1  0  2  1  1  0
     3  1  1  0  2  1  0  0
  processed                   8038  ao basis integrals from 
                    14  buffers.
  processed                  34299  ao basis integrals from 
                    58  buffers.
  processed                  54976  ao basis integrals from 
                    92  buffers.
       7          -198.157405714469746              0.5698910949D-03
   current occupation vector 
     3  1  1  0  2  1  1  0
     3  1  1  0  2  1  0  0
  processed                   8038  ao basis integrals from 
                    14  buffers.
  processed                  34299  ao basis integrals from 
                    58  buffers.
  processed                  54976  ao basis integrals from 
                    92  buffers.
       8          -198.157406582941519              0.6698042413D-04
   current occupation vector 
     3  1  1  0  2  1  1  0
     3  1  1  0  2  1  0  0
  processed                   8038  ao basis integrals from 
                    14  buffers.
  processed                  34299  ao basis integrals from 
                    58  buffers.
  processed                  54976  ao basis integrals from 
                    92  buffers.
       9          -198.157406591311826              0.1241271599D-04
   current occupation vector 
     3  1  1  0  2  1  1  0
     3  1  1  0  2  1  0  0
 
 sum over diagonal and offdiagdiagonal of C(T)*S*C for irrep
                     1
  7.183142969324763E-014 -2.478651990104782E-014
 reorthoganalization of MOs is carried out
 sum over diagonal and offdiagdiagonal of C(T)*S*C for irrep
                     1
 -1.998401444325282E-015  8.862835214768202E-016
 
 sum over diagonal and offdiagdiagonal of C(T)*S*C for irrep
                     2
  2.198241588757810E-014  1.045954360047567E-015
 reorthoganalization of MOs is carried out
 sum over diagonal and offdiagdiagonal of C(T)*S*C for irrep
                     2
 -7.771561172376096E-016 -3.032506991345953E-016
 
 sum over diagonal and offdiagdiagonal of C(T)*S*C for irrep
                     3
 -5.884182030513330E-015 -1.016103839019318E-014
 reorthoganalization of MOs is carried out
 sum over diagonal and offdiagdiagonal of C(T)*S*C for irrep
                     3
  3.330669073875470E-016 -7.375500212943010E-016
 
 sum over diagonal and offdiagdiagonal of C(T)*S*C for irrep
                     4
  2.442490654175344E-015 -1.888680184469749E-016
 reorthoganalization of MOs is carried out
 sum over diagonal and offdiagdiagonal of C(T)*S*C for irrep
                     4
  0.000000000000000E+000  1.387778780781446E-017
 
 sum over diagonal and offdiagdiagonal of C(T)*S*C for irrep
                     5
  4.218847493575595E-015 -6.232829914872414E-015
 reorthoganalization of MOs is carried out
 sum over diagonal and offdiagdiagonal of C(T)*S*C for irrep
                     5
 -8.881784197001252E-016 -1.128885093642519E-015
 
 sum over diagonal and offdiagdiagonal of C(T)*S*C for irrep
                     6
  3.774758283725532E-015 -7.312308057758209E-015
 reorthoganalization of MOs is carried out
 sum over diagonal and offdiagdiagonal of C(T)*S*C for irrep
                     6
 -4.440892098500626E-016 -5.659929409218153E-017
 
 sum over diagonal and offdiagdiagonal of C(T)*S*C for irrep
                     7
  4.440892098500626E-015 -1.933450355742336E-015
 reorthoganalization of MOs is carried out
 sum over diagonal and offdiagdiagonal of C(T)*S*C for irrep
                     7
  3.330669073875470E-016  6.570013702355941E-017
 
 sum over diagonal and offdiagdiagonal of C(T)*S*C for irrep
                     8
  7.771561172376096E-016 -1.786656760038863E-015
 reorthoganalization of MOs is carried out
 sum over diagonal and offdiagdiagonal of C(T)*S*C for irrep
                     8
  2.220446049250313E-016 -1.325979256949772E-016
  processed                   8038  ao basis integrals from 
                    14  buffers.
  processed                  34299  ao basis integrals from 
                    58  buffers.
  processed                  54976  ao basis integrals from 
                    92  buffers.
      10          -198.157406591438814              0.1253092517D-05
   current occupation vector 
     3  1  1  0  2  1  1  0
     3  1  1  0  2  1  0  0
  processed                   8038  ao basis integrals from 
                    14  buffers.
  processed                  34299  ao basis integrals from 
                    58  buffers.
  processed                  54976  ao basis integrals from 
                    92  buffers.
      11          -198.157406591441600              0.1935808926D-06
   current occupation vector 
     3  1  1  0  2  1  1  0
     3  1  1  0  2  1  0  0
  processed                   8038  ao basis integrals from 
                    14  buffers.
  processed                  34299  ao basis integrals from 
                    58  buffers.
  processed                  54976  ao basis integrals from 
                    92  buffers.
      12          -198.157406591441429              0.1479755288D-07
   current occupation vector 
     3  1  1  0  2  1  1  0
     3  1  1  0  2  1  0  0
  processed                   8038  ao basis integrals from 
                    14  buffers.
  processed                  34299  ao basis integrals from 
                    58  buffers.
  processed                  54976  ao basis integrals from 
                    92  buffers.
      13          -198.157406591441543              0.3982262575D-08
   current occupation vector 
     3  1  1  0  2  1  1  0
     3  1  1  0  2  1  0  0
  processed                   8038  ao basis integrals from 
                    14  buffers.
  processed                  34299  ao basis integrals from 
                    58  buffers.
  processed                  54976  ao basis integrals from 
                    92  buffers.
      14          -198.157406591441486              0.4587782099D-09
   current occupation vector 
     3  1  1  0  2  1  1  0
     3  1  1  0  2  1  0  0
 
 sum over diagonal and offdiagdiagonal of C(T)*S*C for irrep
                     1
  1.776356839400250E-014  1.324784904124127E-014
 reorthoganalization of MOs is carried out
 sum over diagonal and offdiagdiagonal of C(T)*S*C for irrep
                     1
 -1.998401444325282E-015 -1.121043113211783E-016
 
 sum over diagonal and offdiagdiagonal of C(T)*S*C for irrep
                     2
  8.437694987151190E-015 -3.779289023255726E-015
 reorthoganalization of MOs is carried out
 sum over diagonal and offdiagdiagonal of C(T)*S*C for irrep
                     2
  4.440892098500626E-016  1.491991097166714E-016
 
 sum over diagonal and offdiagdiagonal of C(T)*S*C for irrep
                     3
 -4.773959005888173E-015  4.752982287888980E-015
 reorthoganalization of MOs is carried out
 sum over diagonal and offdiagdiagonal of C(T)*S*C for irrep
                     3
 -9.992007221626409E-016  5.040629144592603E-016
 
 sum over diagonal and offdiagdiagonal of C(T)*S*C for irrep
                     4
  2.331468351712829E-015 -1.933132473541654E-016
 reorthoganalization of MOs is carried out
 sum over diagonal and offdiagdiagonal of C(T)*S*C for irrep
                     4
 -5.551115123125783E-016 -1.257674520083185E-016
 
 sum over diagonal and offdiagdiagonal of C(T)*S*C for irrep
                     5
  1.898481372109018E-014 -7.524576672225345E-015
 reorthoganalization of MOs is carried out
 sum over diagonal and offdiagdiagonal of C(T)*S*C for irrep
                     5
 -5.995204332975845E-015 -6.530871989081628E-015
 
 sum over diagonal and offdiagdiagonal of C(T)*S*C for irrep
                     6
 -1.398881011027697E-014  3.503912788751841E-015
 reorthoganalization of MOs is carried out
 sum over diagonal and offdiagdiagonal of C(T)*S*C for irrep
                     6
  1.110223024625157E-015  1.324157011147542E-017
 
 sum over diagonal and offdiagdiagonal of C(T)*S*C for irrep
                     7
  6.883382752675971E-015  6.687887588154347E-015
 reorthoganalization of MOs is carried out
 sum over diagonal and offdiagdiagonal of C(T)*S*C for irrep
                     7
 -3.330669073875470E-016 -2.101545122768471E-016
 
 sum over diagonal and offdiagdiagonal of C(T)*S*C for irrep
                     8
  4.884981308350689E-015  1.016981637791403E-015
 reorthoganalization of MOs is carried out
 sum over diagonal and offdiagdiagonal of C(T)*S*C for irrep
                     8
  0.000000000000000E+000  2.284413977426958E-016
  processed                   8038  ao basis integrals from 
                    14  buffers.
  processed                  34299  ao basis integrals from 
                    58  buffers.
  processed                  54976  ao basis integrals from 
                    92  buffers.
      15          -198.157406591441315              0.6285466245D-10
   current occupation vector 
     3  1  1  0  2  1  1  0
     3  1  1  0  2  1  0  0
  processed                   8038  ao basis integrals from 
                    14  buffers.
  processed                  34299  ao basis integrals from 
                    58  buffers.
  processed                  54976  ao basis integrals from 
                    92  buffers.
      16          -198.157406591441315              0.1219745485D-10
   current occupation vector 
     3  1  1  0  2  1  1  0
     3  1  1  0  2  1  0  0
  processed                   8038  ao basis integrals from 
                    14  buffers.
  processed                  34299  ao basis integrals from 
                    58  buffers.
  processed                  54976  ao basis integrals from 
                    92  buffers.
      17          -198.157406591441259              0.8439082766D-12
   current occupation vector 
     3  1  1  0  2  1  1  0
     3  1  1  0  2  1  0  0
  processed                   8038  ao basis integrals from 
                    14  buffers.
  processed                  34299  ao basis integrals from 
                    58  buffers.
  processed                  54976  ao basis integrals from 
                    92  buffers.
      18          -198.157406591441031              0.8179568134D-13
   current occupation vector 
     3  1  1  0  2  1  1  0
     3  1  1  0  2  1  0  0
  processed                   8038  ao basis integrals from 
                    14  buffers.
  processed                  34299  ao basis integrals from 
                    58  buffers.
  processed                  54976  ao basis integrals from 
                    92  buffers.
      19          -198.157406591441145              0.1801336857D-13
   current occupation vector 
     3  1  1  0  2  1  1  0
     3  1  1  0  2  1  0  0
 
 sum over diagonal and offdiagdiagonal of C(T)*S*C for irrep
                     1
  8.326672684688674E-015 -1.345013455805318E-015
 reorthoganalization of MOs is carried out
 sum over diagonal and offdiagdiagonal of C(T)*S*C for irrep
                     1
 -1.443289932012704E-015 -1.698260360011952E-016
 
 sum over diagonal and offdiagdiagonal of C(T)*S*C for irrep
                     2
 -1.332267629550188E-015 -3.810570108816505E-015
 reorthoganalization of MOs is carried out
 sum over diagonal and offdiagdiagonal of C(T)*S*C for irrep
                     2
  0.000000000000000E+000  3.649936438123705E-017
 
 sum over diagonal and offdiagdiagonal of C(T)*S*C for irrep
                     3
  6.106226635438361E-015  8.623866079163886E-015
 reorthoganalization of MOs is carried out
 sum over diagonal and offdiagdiagonal of C(T)*S*C for irrep
                     3
 -4.440892098500626E-016 -6.443911539984559E-016
 
 sum over diagonal and offdiagdiagonal of C(T)*S*C for irrep
                     4
  5.551115123125783E-016  4.044074103370932E-016
 reorthoganalization of MOs is carried out
 sum over diagonal and offdiagdiagonal of C(T)*S*C for irrep
                     4
 -4.440892098500626E-016  3.892285799222961E-017
 
 sum over diagonal and offdiagdiagonal of C(T)*S*C for irrep
                     5
  2.331468351712829E-014 -1.065925670105360E-014
 reorthoganalization of MOs is carried out
 sum over diagonal and offdiagdiagonal of C(T)*S*C for irrep
                     5
  5.773159728050814E-015 -1.953891702556967E-015
 
 sum over diagonal and offdiagdiagonal of C(T)*S*C for irrep
                     6
  6.217248937900877E-015  2.104733457352332E-015
 reorthoganalization of MOs is carried out
 sum over diagonal and offdiagdiagonal of C(T)*S*C for irrep
                     6
 -8.881784197001252E-016 -4.735311221845564E-017
 
 sum over diagonal and offdiagdiagonal of C(T)*S*C for irrep
                     7
  4.551914400963142E-015  6.087544589250283E-015
 reorthoganalization of MOs is carried out
 sum over diagonal and offdiagdiagonal of C(T)*S*C for irrep
                     7
  4.440892098500626E-016  6.904874612290883E-016
 
 sum over diagonal and offdiagdiagonal of C(T)*S*C for irrep
                     8
 -4.440892098500626E-015  6.384866593767136E-016
 reorthoganalization of MOs is carried out
 sum over diagonal and offdiagdiagonal of C(T)*S*C for irrep
                     8
  2.220446049250313E-016  9.042246118529107E-017

  SCF has converged.

 Density matrix saved to file den.dat
 total alpha spin electron number:   9.00000000000000     
 total  beta spin electron number:   8.00000000000000     
  processed                   8038  ao basis integrals from 
                    14  buffers.
  processed                  34299  ao basis integrals from 
                    58  buffers.
  processed                  54976  ao basis integrals from 
                    92  buffers.
     E(ROHF)=      -198.157406591441429              0.9076073226D-14


  Final occupancies:

     Alpha population by irrep:   3    1    1    0    2    1    1    0
      Beta population by irrep:   3    1    1    0    2    1    0    0



       The average multiplicity is    2.0000000
  The expectation value of S**2 is    0.7500000

 @PUTMOS-I, Writing converged MOs to NEWMOS. 
 @PUTMOS-I, Symmetry   1 Full Blocks  3 Partial Blocksize   2
 @PUTMOS-I, Symmetry   2 Full Blocks  1 Partial Blocksize   3
 @PUTMOS-I, Symmetry   3 Full Blocks  1 Partial Blocksize   3
 @PUTMOS-I, Symmetry   4 Full Blocks  0 Partial Blocksize   3
 @PUTMOS-I, Symmetry   5 Full Blocks  3 Partial Blocksize   2
 @PUTMOS-I, Symmetry   6 Full Blocks  1 Partial Blocksize   3
 @PUTMOS-I, Symmetry   7 Full Blocks  1 Partial Blocksize   3
 @PUTMOS-I, Symmetry   8 Full Blocks  0 Partial Blocksize   3
  @DMPJOB-I, Rotating orbitals to semicanonical basis.
             *** Eigenvalues correspond to new basis. ***

--------------------------------------------------------------------------------
Eigenvalue    -27.006867    -27.006622     -2.291250     -2.025476     -1.355724
 Symmetry        SGg+          SGu+          SGg+          SGu+          SGu+    
--------------------------------------------------------------------------------
   1 S         0.3011208     0.3011334     0.0731081     0.0790416     0.0000000
   1 S         0.4606580     0.4605798     0.1820623     0.1980788     0.0000000
   1 S         0.0151142     0.0158919    -0.2606299    -0.2957291     0.0000000
   1 S        -0.0040591    -0.0054930    -0.3799039    -0.4120299     0.0000000
   1 S         0.0012890     0.0025680    -0.0921504    -0.1393134     0.0000000
   1 PX        0.0000000     0.0000000     0.0000000     0.0000000     0.0000000
   1 PY        0.0000000     0.0000000     0.0000000     0.0000000     0.3563111
   1 PZ       -0.0008287    -0.0009245     0.0460627    -0.0476635     0.0000000
   1 PX        0.0000000     0.0000000     0.0000000     0.0000000     0.0000000
   1 PY        0.0000000     0.0000000     0.0000000     0.0000000     0.3144814
   1 PZ        0.0003313     0.0012976     0.0526471    -0.0335303     0.0000000
   1 PX        0.0000000     0.0000000     0.0000000     0.0000000     0.0000000
   1 PY        0.0000000     0.0000000     0.0000000     0.0000000     0.1278608
   1 PZ       -0.0001939    -0.0007561     0.0043078     0.0000806     0.0000000
   1 DX2       0.0000700     0.0000551     0.0005516    -0.0007360     0.0000000
   1 DXY       0.0000000     0.0000000     0.0000000     0.0000000     0.0000000
   1 DXZ       0.0000000     0.0000000     0.0000000     0.0000000     0.0000000
   1 DY2      -0.0000122    -0.0000287     0.0007651    -0.0004717     0.0000000
   1 DYZ       0.0000000     0.0000000     0.0000000     0.0000000    -0.0026855
   1 DZZ      -0.0000578    -0.0000264    -0.0013167     0.0012077     0.0000000
   1 DX2       0.0000163     0.0002083     0.0037125    -0.0017771     0.0000000
   1 DXY       0.0000000     0.0000000     0.0000000     0.0000000     0.0000000
   1 DXZ       0.0000000     0.0000000     0.0000000     0.0000000     0.0000000
   1 DY2      -0.0000321     0.0001425     0.0034218    -0.0008152     0.0000000
   1 DYZ       0.0000000     0.0000000     0.0000000     0.0000000    -0.0250097
   1 DZZ       0.0000158    -0.0003508    -0.0071344     0.0025923     0.0000000
   1 FX3       0.0000000     0.0000000     0.0000000     0.0000000     0.0000000
   1 FX2Y      0.0000000     0.0000000     0.0000000     0.0000000    -0.0014527
   1 FX2Z      0.0000211    -0.0000598    -0.0012939     0.0004014     0.0000000
   1 FXY2      0.0000000     0.0000000     0.0000000     0.0000000     0.0000000
   1 FXYZ      0.0000000     0.0000000     0.0000000     0.0000000     0.0000000
   1 FXZ2      0.0000000     0.0000000     0.0000000     0.0000000     0.0000000
   1 FY3       0.0000000     0.0000000     0.0000000     0.0000000    -0.0005031
   1 FY2Z      0.0000137    -0.0000602    -0.0009576     0.0002626     0.0000000
   1 FYZ2      0.0000000     0.0000000     0.0000000     0.0000000     0.0029621
   1 FZ3      -0.0000116     0.0000400     0.0007505    -0.0002213     0.0000000
   2 S         0.3011208    -0.3011334     0.0731081    -0.0790416     0.0000000
   2 S         0.4606580    -0.4605798     0.1820623    -0.1980788     0.0000000
   2 S         0.0151142    -0.0158919    -0.2606299     0.2957291     0.0000000
   2 S        -0.0040591     0.0054930    -0.3799039     0.4120299     0.0000000
   2 S         0.0012890    -0.0025680    -0.0921504     0.1393134     0.0000000
   2 PX        0.0000000     0.0000000     0.0000000     0.0000000     0.0000000
   2 PY        0.0000000     0.0000000     0.0000000     0.0000000     0.3563111
   2 PZ        0.0008287    -0.0009245    -0.0460627    -0.0476635     0.0000000
   2 PX        0.0000000     0.0000000     0.0000000     0.0000000     0.0000000
   2 PY        0.0000000     0.0000000     0.0000000     0.0000000     0.3144814
   2 PZ       -0.0003313     0.0012976    -0.0526471    -0.0335303     0.0000000
   2 PX        0.0000000     0.0000000     0.0000000     0.0000000     0.0000000
   2 PY        0.0000000     0.0000000     0.0000000     0.0000000     0.1278608
   2 PZ        0.0001939    -0.0007561    -0.0043078     0.0000806     0.0000000
   2 DX2       0.0000700    -0.0000551     0.0005516     0.0007360     0.0000000
   2 DXY       0.0000000     0.0000000     0.0000000     0.0000000     0.0000000
   2 DXZ       0.0000000     0.0000000     0.0000000     0.0000000     0.0000000
   2 DY2      -0.0000122     0.0000287     0.0007651     0.0004717     0.0000000
   2 DYZ       0.0000000     0.0000000     0.0000000     0.0000000     0.0026855
   2 DZZ      -0.0000578     0.0000264    -0.0013167    -0.0012077     0.0000000
   2 DX2       0.0000163    -0.0002083     0.0037125     0.0017771     0.0000000
   2 DXY       0.0000000     0.0000000     0.0000000     0.0000000     0.0000000
   2 DXZ       0.0000000     0.0000000     0.0000000     0.0000000     0.0000000
   2 DY2      -0.0000321    -0.0001425     0.0034218     0.0008152     0.0000000
   2 DYZ       0.0000000     0.0000000     0.0000000     0.0000000     0.0250097
   2 DZZ       0.0000158     0.0003508    -0.0071344    -0.0025923     0.0000000
   2 FX3       0.0000000     0.0000000     0.0000000     0.0000000     0.0000000
   2 FX2Y      0.0000000     0.0000000     0.0000000     0.0000000    -0.0014527
   2 FX2Z     -0.0000211    -0.0000598     0.0012939     0.0004014     0.0000000
   2 FXY2      0.0000000     0.0000000     0.0000000     0.0000000     0.0000000
   2 FXYZ      0.0000000     0.0000000     0.0000000     0.0000000     0.0000000
   2 FXZ2      0.0000000     0.0000000     0.0000000     0.0000000     0.0000000
   2 FY3       0.0000000     0.0000000     0.0000000     0.0000000    -0.0005031
   2 FY2Z     -0.0000137    -0.0000602     0.0009576     0.0002626     0.0000000
   2 FYZ2      0.0000000     0.0000000     0.0000000     0.0000000     0.0029621
   2 FZ3       0.0000116     0.0000400    -0.0007505    -0.0002213     0.0000000
--------------------------------------------------------------------------------
Eigenvalue     -1.314303     -1.250947     -1.228493     -1.181230     -0.405266
 Symmetry        SGu-          SGg+          SGg+          SGg-          SGu+    
--------------------------------------------------------------------------------
   1 S         0.0000000     0.0180154     0.0000000     0.0000000     0.0216825
   1 S         0.0000000     0.0464363     0.0000000     0.0000000     0.0555509
   1 S         0.0000000    -0.0857196     0.0000000     0.0000000    -0.0881822
   1 S         0.0000000    -0.0789531     0.0000000     0.0000000    -0.1351588
   1 S         0.0000000    -0.0715810     0.0000000     0.0000000    -0.2284586
   1 PX        0.3732624     0.0000000     0.0000000     0.4046267     0.0000000
   1 PY        0.0000000     0.0000000     0.4070457     0.0000000     0.0000000
   1 PZ        0.0000000    -0.3392320     0.0000000     0.0000000     0.3978147
   1 PX        0.3154230     0.0000000     0.0000000     0.3376734     0.0000000
   1 PY        0.0000000     0.0000000     0.3401026     0.0000000     0.0000000
   1 PZ        0.0000000    -0.3161746     0.0000000     0.0000000     0.3625504
   1 PX        0.1101751     0.0000000     0.0000000     0.1380094     0.0000000
   1 PY        0.0000000     0.0000000     0.1281297     0.0000000     0.0000000
   1 PZ        0.0000000    -0.1009322     0.0000000     0.0000000     0.3525463
   1 DX2       0.0000000    -0.0017519     0.0000000     0.0000000    -0.0007317
   1 DXY       0.0000000     0.0000000     0.0000000     0.0000000     0.0000000
   1 DXZ      -0.0025012     0.0000000     0.0000000    -0.0005442     0.0000000
   1 DY2       0.0000000    -0.0016989     0.0000000     0.0000000    -0.0015008
   1 DYZ       0.0000000     0.0000000    -0.0006058     0.0000000     0.0000000
   1 DZZ       0.0000000     0.0034508     0.0000000     0.0000000     0.0022324
   1 DX2       0.0000000    -0.0083638     0.0000000     0.0000000    -0.0027815
   1 DXY       0.0000000     0.0000000     0.0000000     0.0000000     0.0000000
   1 DXZ      -0.0181270     0.0000000     0.0000000    -0.0002383     0.0000000
   1 DY2       0.0000000    -0.0076978     0.0000000     0.0000000    -0.0041568
   1 DYZ       0.0000000     0.0000000    -0.0009868     0.0000000     0.0000000
   1 DZZ       0.0000000     0.0160616     0.0000000     0.0000000     0.0069383
   1 FX3      -0.0009727     0.0000000     0.0000000    -0.0004573     0.0000000
   1 FX2Y      0.0000000     0.0000000    -0.0014316     0.0000000     0.0000000
   1 FX2Z      0.0000000     0.0024801     0.0000000     0.0000000    -0.0008740
   1 FXY2     -0.0000275     0.0000000     0.0000000     0.0005027     0.0000000
   1 FXYZ      0.0000000     0.0000000     0.0000000     0.0000000     0.0000000
   1 FXZ2      0.0029457     0.0000000     0.0000000     0.0008692     0.0000000
   1 FY3       0.0000000     0.0000000     0.0004911     0.0000000     0.0000000
   1 FY2Z      0.0000000     0.0015032     0.0000000     0.0000000     0.0010323
   1 FYZ2      0.0000000     0.0000000    -0.0000416     0.0000000     0.0000000
   1 FZ3       0.0000000    -0.0013278     0.0000000     0.0000000    -0.0000528
   2 S         0.0000000     0.0180154     0.0000000     0.0000000    -0.0216825
   2 S         0.0000000     0.0464363     0.0000000     0.0000000    -0.0555509
   2 S         0.0000000    -0.0857196     0.0000000     0.0000000     0.0881822
   2 S         0.0000000    -0.0789531     0.0000000     0.0000000     0.1351588
   2 S         0.0000000    -0.0715810     0.0000000     0.0000000     0.2284586
   2 PX        0.3732624     0.0000000     0.0000000    -0.4046267     0.0000000
   2 PY        0.0000000     0.0000000    -0.4070457     0.0000000     0.0000000
   2 PZ        0.0000000     0.3392320     0.0000000     0.0000000     0.3978147
   2 PX        0.3154230     0.0000000     0.0000000    -0.3376734     0.0000000
   2 PY        0.0000000     0.0000000    -0.3401026     0.0000000     0.0000000
   2 PZ        0.0000000     0.3161746     0.0000000     0.0000000     0.3625504
   2 PX        0.1101751     0.0000000     0.0000000    -0.1380094     0.0000000
   2 PY        0.0000000     0.0000000    -0.1281297     0.0000000     0.0000000
   2 PZ        0.0000000     0.1009322     0.0000000     0.0000000     0.3525463
   2 DX2       0.0000000    -0.0017519     0.0000000     0.0000000     0.0007317
   2 DXY       0.0000000     0.0000000     0.0000000     0.0000000     0.0000000
   2 DXZ       0.0025012     0.0000000     0.0000000    -0.0005442     0.0000000
   2 DY2       0.0000000    -0.0016989     0.0000000     0.0000000     0.0015008
   2 DYZ       0.0000000     0.0000000    -0.0006058     0.0000000     0.0000000
   2 DZZ       0.0000000     0.0034508     0.0000000     0.0000000    -0.0022324
   2 DX2       0.0000000    -0.0083638     0.0000000     0.0000000     0.0027815
   2 DXY       0.0000000     0.0000000     0.0000000     0.0000000     0.0000000
   2 DXZ       0.0181270     0.0000000     0.0000000    -0.0002383     0.0000000
   2 DY2       0.0000000    -0.0076978     0.0000000     0.0000000     0.0041568
   2 DYZ       0.0000000     0.0000000    -0.0009868     0.0000000     0.0000000
   2 DZZ       0.0000000     0.0160616     0.0000000     0.0000000    -0.0069383
   2 FX3      -0.0009727     0.0000000     0.0000000     0.0004573     0.0000000
   2 FX2Y      0.0000000     0.0000000     0.0014316     0.0000000     0.0000000
   2 FX2Z      0.0000000    -0.0024801     0.0000000     0.0000000    -0.0008740
   2 FXY2     -0.0000275     0.0000000     0.0000000    -0.0005027     0.0000000
   2 FXYZ      0.0000000     0.0000000     0.0000000     0.0000000     0.0000000
   2 FXZ2      0.0029457     0.0000000     0.0000000    -0.0008692     0.0000000
   2 FY3       0.0000000     0.0000000    -0.0004911     0.0000000     0.0000000
   2 FY2Z      0.0000000    -0.0015032     0.0000000     0.0000000     0.0010323
   2 FYZ2      0.0000000     0.0000000     0.0000416     0.0000000     0.0000000
   2 FZ3       0.0000000     0.0013278     0.0000000     0.0000000    -0.0000528
--------------------------------------------------------------------------------
Eigenvalue      0.255390      0.278308      0.291982      0.296599      0.418604
 Symmetry        SGg+          SGu+          SGu+          SGu-          SGg+    
--------------------------------------------------------------------------------
   1 S         0.0370792     0.0000000     0.0176610     0.0000000     0.0000000
   1 S         0.0814833     0.0000000     0.0413790     0.0000000     0.0000000
   1 S         0.0586093     0.0000000    -0.0186504     0.0000000     0.0000000
   1 S        -1.2647192     0.0000000    -0.3529047     0.0000000     0.0000000
   1 S         1.2888178     0.0000000    -0.3670947     0.0000000     0.0000000
   1 PX        0.0000000     0.0000000     0.0000000     0.1949856     0.0000000
   1 PY        0.0000000     0.2101073     0.0000000     0.0000000     0.1623169
   1 PZ       -0.0386771     0.0000000    -0.1831111     0.0000000     0.0000000
   1 PX        0.0000000     0.0000000     0.0000000     0.4362149     0.0000000
   1 PY        0.0000000     0.4419418     0.0000000     0.0000000     0.4211389
   1 PZ       -0.0514231     0.0000000    -0.3726087     0.0000000     0.0000000
   1 PX        0.0000000     0.0000000     0.0000000    -0.7478242     0.0000000
   1 PY        0.0000000    -0.7420314     0.0000000     0.0000000    -1.1975992
   1 PZ        0.1796312     0.0000000     1.2981219     0.0000000     0.0000000
   1 DX2       0.0011942     0.0000000    -0.0020249     0.0000000     0.0000000
   1 DXY       0.0000000     0.0000000     0.0000000     0.0000000     0.0000000
   1 DXZ       0.0000000     0.0000000     0.0000000     0.0014433     0.0000000
   1 DY2      -0.0003572     0.0000000    -0.0027529     0.0000000     0.0000000
   1 DYZ       0.0000000     0.0013539     0.0000000     0.0000000    -0.0069951
   1 DZZ      -0.0008370     0.0000000     0.0047778     0.0000000     0.0000000
   1 DX2       0.0070784     0.0000000     0.0126805     0.0000000     0.0000000
   1 DXY       0.0000000     0.0000000     0.0000000     0.0000000     0.0000000
   1 DXZ       0.0000000     0.0000000     0.0000000    -0.0103258     0.0000000
   1 DY2       0.0090002     0.0000000     0.0130624     0.0000000     0.0000000
   1 DYZ       0.0000000    -0.0091543     0.0000000     0.0000000    -0.0095986
   1 DZZ      -0.0160786     0.0000000    -0.0257429     0.0000000     0.0000000
   1 FX3       0.0000000     0.0000000     0.0000000    -0.0006447     0.0000000
   1 FX2Y      0.0000000    -0.0009613     0.0000000     0.0000000    -0.0002250
   1 FX2Z     -0.0002303     0.0000000    -0.0000620     0.0000000     0.0000000
   1 FXY2      0.0000000     0.0000000     0.0000000     0.0000182     0.0000000
   1 FXYZ      0.0000000     0.0000000     0.0000000     0.0000000     0.0000000
   1 FXZ2      0.0000000     0.0000000     0.0000000     0.0019160     0.0000000
   1 FY3       0.0000000    -0.0002237     0.0000000     0.0000000     0.0002989
   1 FY2Z     -0.0005097     0.0000000    -0.0007981     0.0000000     0.0000000
   1 FYZ2      0.0000000     0.0016325     0.0000000     0.0000000    -0.0006717
   1 FZ3       0.0002467     0.0000000     0.0002867     0.0000000     0.0000000
   2 S         0.0370792     0.0000000    -0.0176610     0.0000000     0.0000000
   2 S         0.0814833     0.0000000    -0.0413790     0.0000000     0.0000000
   2 S         0.0586093     0.0000000     0.0186504     0.0000000     0.0000000
   2 S        -1.2647192     0.0000000     0.3529047     0.0000000     0.0000000
   2 S         1.2888178     0.0000000     0.3670947     0.0000000     0.0000000
[...]
[  2   2  35  33] 0.03570 [  2   4  35  51]-0.03324 [  6   6  34  33]-0.03300
[  6   4  19  51]-0.03200 [  5   5  34  33]-0.02808 [  2   6  34  18] 0.02480
[  4   4  52  51]-0.02466 [  6   2  19  33] 0.02457 [  2   1  34  33] 0.02424
-----------------------------------------------------------------------------
   Norm of T2AB vector (    15664 symmetry allowed elements):  0.3336642491.
-----------------------------------------------------------------------------
  W(mnij) AA contribution =  0.0049936057 a.u.
  W(mnij) BB contribution =  0.0120282610 a.u.
  W(mnij) AB contribution =  0.0838658042 a.u.
  W(abef) AA contribution =  0.0061292478 a.u.
  W(abef) BB contribution =  0.0155585617 a.u.
  W(abef) AB contribution =  0.1042181351 a.u.
  W(mbej) AA contribution =  -0.0068012964 a.u.
  W(mbej) BB contribution =  -0.0229051793 a.u.
  W(mbej) AB contribution = -0.2437645192 a.u.
   After  21 iterations, amplitude changes are:
    -------------------------------------------------------------------
                 Spin      RMS          Max.      Max. change for
     Amplitude   Case     Change       Change       i    j    a    b
    -------------------------------------------------------------------
        T1        AA    0.0000000000-0.0000000002    5        34
        T1        BB    0.0000000000-0.0000000002    5        33
        T2        AA    0.0000000000-0.0000000001    7    2   34   25
        T2        BB    0.0000000000-0.0000000002    4    2   51   33
        T2        AB    0.0000000000 0.0000000009    3    3   34   33
    -------------------------------------------------------------------
   The AA contribution to the correlation energy is:   -0.0568695 a.u.
   The BB contribution to the correlation energy is:   -0.0733674 a.u.
   The AB contribution to the correlation energy is:   -0.4142657 a.u.
   The total correlation energy is -0.544502628614 a.u.
   The total correlation energy is -0.544502628614 a.u.
  Current DIIS expansion coefficients : 
 [   1] 1.2457785753 [   2] 0.0071541267 [   3]-0.0331388038 [   4] 0.0665539963
 [   5]-0.2863478944
  Convergence information after    21 iterations: 
  Largest element of residual vector :  0.90646616E-09.
  Largest element of DIIS residual   :  0.63441878E-09.
  Amplitude equations converged in    21iterations.
   The AA contribution to the correlation energy is:   -0.0568695 a.u.
   The BB contribution to the correlation energy is:   -0.0733674 a.u.
   The AB contribution to the correlation energy is:   -0.4142657 a.u.
   The total correlation energy is -0.544502628651 a.u.
   The total correlation energy is -0.544502628651 a.u.
   The CC iterations have converged.

            ----------------------------------------------
                     Projected spin multiplicities: 
            ----------------------------------------------
             <0|S^2|0>                  =    0.7500000000.
             <0|S^2 (T2+T1**2) |0>      =    0.0000000000.
             <0|S^2 T1|0>               =    0.0000000000.
             Projected <0|S^2 exp(T)|0> =    0.7500000000.
             Approximate spin mult.     =    2.0000000000.
            ----------------------------------------------
   Largest T1 amplitudes for spin case AA:
   i       a                 i       a                 i       a    
-----------------------------------------------------------------------------
[  5      34    ] 0.03278 [  4      25    ] 0.02964 [  2       9    ]-0.02085
[  2      12    ]-0.01827 [  2      11    ]-0.01742 [  4      27    ] 0.01537
[  3      19    ]-0.01395 [  4      26    ] 0.01085 [  5      37    ]-0.00901
[  1      10    ]-0.00689 [  1      11    ] 0.00636 [  7      54    ] 0.00521
[  6      46    ]-0.00473 [  5      35    ]-0.00468 [  1      12    ] 0.00407
-----------------------------------------------------------------------------
   Norm of T1AA vector (       58 symmetry allowed elements):  0.0627219973.
-----------------------------------------------------------------------------
   Largest T2 amplitudes for spin case AA:
   i   j   a   b             i   j   a   b             i   j   a   b
-----------------------------------------------------------------------------
[  6   2  34  19]-0.01666 [  6   2  34  20]-0.01371 [  7   2  34  25]-0.01363
[  7   2  34  26]-0.01289 [  5   2  34  11]-0.01239 [  4   3  31  10]-0.01084
[  3   2  20  11] 0.01003 [  7   6  58  37] 0.01002 [  4   2  26  11] 0.00924
[  5   4  34  26] 0.00918 [  6   4  37  31]-0.00905 [  7   3  58  10] 0.00904
[  7   3  37  31] 0.00893 [  6   4  58  10]-0.00891 [  5   3  34  20] 0.00872
-----------------------------------------------------------------------------
   Norm of T2AA vector (     3691 symmetry allowed elements):  0.0854477717.
-----------------------------------------------------------------------------
   Largest T1 amplitudes for spin case BB:
   i       a                 i       a                 i       a    
-----------------------------------------------------------------------------
[  3      18    ]-0.02210 [  2      10    ]-0.01776 [  4      24    ]-0.01672
[  2      11    ]-0.01508 [  5      33    ] 0.01478 [  2       8    ]-0.01477
[  6      45    ]-0.01154 [  1       7    ]-0.01009 [  5      34    ]-0.00933
[  5      36    ] 0.00717 [  5      37    ]-0.00587 [  1       9    ] 0.00560
[  4      25    ]-0.00524 [  2       7    ]-0.00517 [  3      19    ]-0.00488
-----------------------------------------------------------------------------
   Norm of T1BB vector (       52 symmetry allowed elements):  0.0484756268.
-----------------------------------------------------------------------------
   Largest T2 amplitudes for spin case BB:
   i   j   a   b             i   j   a   b             i   j   a   b
-----------------------------------------------------------------------------
[  4   2  51  33] 0.11327 [  6   4  51  18] 0.02581 [  4   2  51  34]-0.02421
[  6   2  33  18]-0.01964 [  4   2  52  33] 0.01733 [  6   2  33  19]-0.01470
[  5   2  33  10]-0.01387 [  5   4  51   7] 0.01382 [  4   3  51  45]-0.01341
[  6   4  51  19] 0.01253 [  4   1  51  33]-0.01233 [  4   3  30   9]-0.01122
[  5   4  33  25] 0.01096 [  5   2  51  25]-0.01044 [  4   3  24  18]-0.01036
-----------------------------------------------------------------------------
   Norm of T2BB vector (     2763 symmetry allowed elements):  0.1456617321.
-----------------------------------------------------------------------------
   Largest T2 amplitudes for spin case AB:
       _       _                 _       _                 _       _
   i   j   a   b             i   j   a   b             i   j   a   b
-----------------------------------------------------------------------------
[  2   4  34  51] 0.15327 [  2   2  34  33]-0.14781 [  7   4  25  51]-0.04420
[  2   2  34  34] 0.03760 [  4   2  34  51] 0.03699 [  4   4  34  33]-0.03658
[  2   2  35  33] 0.03570 [  2   4  35  51]-0.03324 [  6   6  34  33]-0.03300
[  6   4  19  51]-0.03200 [  5   5  34  33]-0.02808 [  2   6  34  18] 0.02480
[  4   4  52  51]-0.02466 [  6   2  19  33] 0.02457 [  2   1  34  33] 0.02424
-----------------------------------------------------------------------------
   Norm of T2AB vector (    15664 symmetry allowed elements):  0.3336642495.
-----------------------------------------------------------------------------
       Summary of iterative solution of CC equations 
      -----------------------------------------------------------
                       Correlation           Total
       Iteration         Energy              Energy
      -----------------------------------------------------------
            0        -0.576949981405    -198.734356572847  DIIS 
            1        -0.509653864302    -198.667060455743  DIIS 
            2        -0.552852518484    -198.710259109925  DIIS 
            3        -0.542528404572    -198.699934996013  DIIS 
            4        -0.544176799716    -198.701583391158  DIIS 
            5        -0.544425101844    -198.701831693285  DIIS 
            6        -0.544498696912    -198.701905288353  DIIS 
            7        -0.544503573404    -198.701910164845  DIIS 
            8        -0.544496979856    -198.701903571298  DIIS 
            9        -0.544505327064    -198.701911918506  DIIS 
           10        -0.544501541666    -198.701908133108  DIIS 
           11        -0.544502537571    -198.701909129012  DIIS 
           12        -0.544502525705    -198.701909117147  DIIS 
           13        -0.544502573377    -198.701909164818  DIIS 
           14        -0.544502628215    -198.701909219656  DIIS 
           15        -0.544502604066    -198.701909195508  DIIS 
           16        -0.544502635667    -198.701909227108  DIIS 
           17        -0.544502626337    -198.701909217778  DIIS 
           18        -0.544502628315    -198.701909219757  DIIS 
           19        -0.544502628435    -198.701909219877  DIIS 
           20        -0.544502628423    -198.701909219864  DIIS 
           21        -0.544502628651    -198.701909220092  DIIS 
      -----------------------------------------------------------
      A miracle has come to pass. The CC iterations have converged.
 @DIMT3-I, Dimensions of T3 amplitudes : 
               # abc          # ijk       Symmetry    Spin 
                     3021              2     1          1
                     2942              4     2          1
                     2942              4     3          1
                     2821              6     4          1
                     2995              5     5          1
                     2942              4     6          1
                     2942              4     7          1
                     2821              6     8          1
                     9809             15     1          2
                     9279             16     2          2
                     9351             14     3          2
                     8793             15     4          2
                     9783             18     5          2
                     9279             16     6          2
                     9325             17     7          2
                     8793             15     8          2
                     9983             14     1          3
                     9420             15     2          3
                     9564             11     3          3
                     8967             12     4          3
                     9957             16     5          3
                     9420             15     6          3
                     9565             10     7          3
                     8967             12     8          3
                     3195              1     1          4
                     3083              3     2          4
                     3155              1     3          4
                     2995              3     4          4
                     3169              3     5          4
                     3083              3     6          4
                     3129              3     7          4
                     2995              3     8          4
 @DIMT3-I, Dimensions of T3 amplitudes : 
               # abc          # ijk       Symmetry    Spin 
                     3021              2     1          1
                     2942              4     2          1
                     2942              4     3          1
                     2821              6     4          1
                     2995              5     5          1
                     2942              4     6          1
                     2942              4     7          1
                     2821              6     8          1
                     9809             15     1          2
                     9279             16     2          2
                     9351             14     3          2
                     8793             15     4          2
                     9783             18     5          2
                     9279             16     6          2
                     9325             17     7          2
                     8793             15     8          2
                     9983             14     1          3
                     9420             15     2          3
                     9564             11     3          3
                     8967             12     4          3
                     9957             16     5          3
                     9420             15     6          3
                     9565             10     7          3
                     8967             12     8          3
                     3195              1     1          4
                     3083              3     2          4
                     3155              1     3          4
                     2995              3     4          4
                     3169              3     5          4
                     3083              3     6          4
                     3129              3     7          4
                     2995              3     8          4
 @TRPS-I, Welcome to TRPS. Watch your RUs ! 
 @TRPS-I, Method is CCSD(T) 
 @TRPS-I, Calculation type is energy 
 @TRPS-I, Reference function information : 
          Reference function is general non-HF 
 @TRPS-I, Reference function is ROHF 
 @TRPS-I, INT1 is true 
 @TRPS-I, INT2 is false 
 @TRPS-I, Lengths of ijka integrals. #1        990
                                     #2        644
                                     #3       1796
                                     #4       2096
                                    Max       2096
 @INITRP-I, Initializing W intermediate lists. 
 @TSPABCI-I, AbIc/AbcI record transposition. 
 @TSPABCI-I, (O,v) ---> (v,O) transposition. 
 @TSPABCI-I, In-core algorithm is being used. 
 @TSPABCI-I, In-core algorithm is being used. 
 @TSPABCI-I, In-core algorithm is being used. 
 @TSPABCI-I, In-core algorithm is being used. 
 @TSPABCI-I, In-core algorithm is being used. 
 @TSPABCI-I, In-core algorithm is being used. 
 @TSPABCI-I, In-core algorithm is being used. 
 @TSPABCI-I, In-core algorithm is being used. 
 @TRPS-I, Available memory in integer words    499959040
          Number of pre-allocated words for TRPS14         6433
          Number of free words for TRPS14    499952607
 @TRPS14-I, Spin case AAA 
 @TRPS14-I, Number of free integer words  499952607
            Number of free double words   499952607
            Ratio                                 1
 @TRPS14-I, E4TAAA      -0.000234498023
 @TRPS14-I, E5ST A    0.000002711415092
 @TRPS14-I, E4ST A   -0.000004774641727
 @TRPS-I, Available memory in integer words    499959040
          Number of pre-allocated words for TRPS14         6427
          Number of free words for TRPS14    499952613
 @TRPS14-I, Spin case BBB 
 @TRPS14-I, Number of free integer words  499952613
            Number of free double words   499952613
            Ratio                                 1
 @TRPS14-I, E4TBBB      -0.000891945036
 @TRPS14-I, E5ST B    0.000028927047597
 @TRPS14-I, E4ST B   -0.000006880548715
 @SETOOOV-I, Some OOOV lists are being transposed. 
 @TRPS-I, Available memory in integer words    499959040
          Number of pre-allocated words for TRPS2        14058
          Number of free words for TRPS2    499944982
 @TRPS2-I, Spin case AAB 
 @TRPS2-I, Number of free integer words  499944982
           Number of free double  words  499944982
           Ratio                                 1
 @TRPS2-I, E4TBAA      -0.010395865713
 @TRPS2-I, E5ST A    0.000243367165625
 @TRPS2-I, E5ST B    0.000116077499627
 @TRPS2-I, E4ST A    0.000003282313121
 @TRPS2-I, E4ST B   -0.000033086524803
 @SETOOOV-I, Some OOOV lists are being transposed. 
 @TSPABCI2-I, (Alpha,Beta) ---> (Beta,Alpha). 
 @TSPABCI2-I, In-core algorithm is being used. 
 @TSPABCI2-I, In-core algorithm is being used. 
 @TSPABCI2-I, In-core algorithm is being used. 
 @TSPABCI2-I, In-core algorithm is being used. 
 @TSPABCI2-I, In-core algorithm is being used. 
 @TSPABCI2-I, In-core algorithm is being used. 
 @TSPABCI2-I, In-core algorithm is being used. 
 @TSPABCI2-I, In-core algorithm is being used. 
 @TSPABCI2-I, In-core algorithm is being used. 
 @TSPABCI2-I, In-core algorithm is being used. 
 @TSPABCI2-I, In-core algorithm is being used. 
 @TSPABCI2-I, In-core algorithm is being used. 
 @TSPABCI2-I, In-core algorithm is being used. 
 @TSPABCI2-I, In-core algorithm is being used. 
 @TSPABCI2-I, In-core algorithm is being used. 
 @TSPABCI2-I, In-core algorithm is being used. 
 @AT2IAB-I, Some AbIj lists are being altered. 
 @TRPS-I, Available memory in integer words    499959040
          Number of pre-allocated words for TRPS3        39290
          Number of free words for TRPS3    499919750
 @TRPS3-I, Spin case BBA 
 @TRPS3-I, Number of free integer words  499919750
           Number of free double  words  499919750
           Ratio                                 1
 @TRPS3-I, E4TBBA      -0.015458153786
 @TRPS3-I, E5ST A    0.000594277353806
 @TRPS3-I, E5ST B    0.000308836059532
 @TRPS3-I, E4ST A    0.000003303504127
 @TRPS3-I, E4ST B   -0.000256887693610
 @TSPABCI2-I, (Beta,Alpha) ---> (Alpha,Beta). 
 @TSPABCI2-I, In-core algorithm is being used. 
 @TSPABCI2-I, In-core algorithm is being used. 
 @TSPABCI2-I, In-core algorithm is being used. 
 @TSPABCI2-I, In-core algorithm is being used. 
 @TSPABCI2-I, In-core algorithm is being used. 
 @TSPABCI2-I, In-core algorithm is being used. 
 @TSPABCI2-I, In-core algorithm is being used. 
 @TSPABCI2-I, In-core algorithm is being used. 
 @TSPABCI2-I, In-core algorithm is being used. 
 @TSPABCI2-I, In-core algorithm is being used. 
 @TSPABCI2-I, In-core algorithm is being used. 
 @TSPABCI2-I, In-core algorithm is being used. 
 @TSPABCI2-I, In-core algorithm is being used. 
 @TSPABCI2-I, In-core algorithm is being used. 
 @TSPABCI2-I, In-core algorithm is being used. 
 @TSPABCI2-I, In-core algorithm is being used. 
 @AT2IAB-I, Some AbIj lists are being altered. 
 @TSPABCI-I, AbIc/AbcI record transposition. 
 @TSPABCI-I, (v,O) ---> (O,v) transposition. 
 @TSPABCI-I, In-core algorithm is being used. 
 @TSPABCI-I, In-core algorithm is being used. 
 @TSPABCI-I, In-core algorithm is being used. 
 @TSPABCI-I, In-core algorithm is being used. 
 @TSPABCI-I, In-core algorithm is being used. 
 @TSPABCI-I, In-core algorithm is being used. 
 @TSPABCI-I, In-core algorithm is being used. 
 @TSPABCI-I, In-core algorithm is being used. 
 @CCENRG-I, CCSD/QCISD energy will now be evaluated. 
 @CCENRG-I, Correlation energies. ECCAA       -0.056869529316
                                  ECCBB       -0.073367408218
                                  ECCAB       -0.414265691117
                                  Total       -0.544502628651
 @CCENRG-I, Reference   energy    -198.157406591441
            CCSD/QCISD energy     -198.701909220092
          E4T (T(CCSD)) = -0.026980462559
          E5ST          =  0.000903113413
          E4ST          = -0.000253584189
          In other words  
          <T3[2](Dagger) D3  T3[2]> = -0.026980462559
          <T1   (Dagger) Q1 WT3[2]> =  0.000903113413
          <T2   (Dagger) Q2 FT3[2]> = -0.000253584189
        E(CCSD)           =    -198.701909220092
        E(CCSD(T))        =    -198.728240153427
  @CHECKOUT-I, Total execution time (CPU/WALL):        1.24/       1.25 seconds.
--executable xvcc finished with status     0 in        1.33 seconds (walltime).
  The final electronic energy is      -198.728240153427151 a.u. 
  This computation required                            4.13 seconds (walltime).
--- SharcNET Job Epilogue ---
Job completed successfully.
               jobid: 1968086
               resid: 3436241
         exit status: 0
      allocated time: 5.16856
           user time: 2.27
         system time: 0.4
peak rss=202002432; peak vsz=202002432 (bytes)
atime=5.16856; utime=2.27; stime=0.4; exit=0
