 --invoking executable--
/project1/nike/cfour_v2.00beta_May2019xnmol_noLABBASIS/bin/xjoda


   *************************************************************************
         <<<     CCCCCC     CCCCCC   |||     CCCCCC     CCCCCC   >>>
       <<<      CCC        CCC       |||    CCC        CCC         >>>
      <<<      CCC        CCC        |||   CCC        CCC            >>>
    <<<        CCC        CCC        |||   CCC        CCC              >>>
      <<<      CCC        CCC        |||   CCC        CCC            >>>
       <<<      CCC        CCC       |||    CCC        CCC         >>>
         <<<     CCCCCC     CCCCCC   |||     CCCCCC     CCCCCC   >>>
   *************************************************************************

     ****************************************************************
     * CFOUR Coupled-Cluster techniques for Computational Chemistry *
     ****************************************************************
 

   Department of Chemistry                Institut fuer Physikalische Chemie
   University of Texas at Austin          Universitaet Mainz
   Austin, TX  78712, USA                 D-55099 Mainz, Germany
 
                       Version 2.00beta
 
                     wob109                                            
                     Thu Sep  5 22:06:14 EDT 2019                      
                     integer*8 version is running
 
********************************************************************************
*                          Input from ZMAT file                                *
********************************************************************************
TITLE                                                                           
P                                                                               
N 1 R                                                                           
                                                                                
R=1.49087                                                                       
                                                                                
*ACES2(CALC=CCSD                                                                
#GEOM=CRC2016_Re_And_Theta_e_Microwave                                          
#COORD=CARTESIAN                                                                
PRINT=4                                                                         
JODA_PRINT=4                                                                    
INPUT_MRCC=OFF                                                                  
CC_PROG=MRCC                                                                    
FROZEN_CORE=ON                                                                  
#DROPMO=1>5                                                                     
CONTRACTION=GENERAL                                                             
#CONTRACTION=SEGMENTED                                                          
RELATIVISTIC=OFF                                                                
#EXCITE=EOMEE                                                                   
#ESTATE_CONV=5                                                                  
#ESTATE_SYM=2/2/2/2/2/2/2/2                                                     
XFORM_TOL=18                                                                    
SAVE_INTS=ON                                                                    
SCF_EXPORDER=6                                                                  
SCF_EXPSTART=5                                                                  
#SCF_DAMPING=1000                                                               
SCF_EXTRAPOLATION=ON                                                            
SCF_CONV=12                                                                     
SCF_MAXCYC=9999                                                                 
CC_CONV=5                                                                       
CC_MAXCYC=999                                                                   
T3_EXTRAPOL=ON                                                                  
REFERENCE=ROHF                                                                  
CHARGE=+1                                                                       
MULT=2                                                                          
ABCDTYPE=STANDARD                                                               
#OCCUPATION=3-2-2-0-1-0-0-0/3-1-1-0-1-0-0-0                                     
MEM=20                                                                          
MEM_UNIT=GB                                                                     
BASIS=SPECIAL)                                                                  
                                                                                
P:def2-TZVPP                                                                    
N:def2-TZVPP                                                                    
                                                                                
********************************************************************************
  @GTFLGS-W, Keyword #GEOM not known and is ignored.
  @GTFLGS-W, Keyword #COORD not known and is ignored.
  @GTFLGS-W, Keyword #DROPMO not known and is ignored.
  @GTFLGS-W, Keyword #CONTRACTION not known and is ignored.
  @GTFLGS-W, Keyword #EXCITE not known and is ignored.
  @GTFLGS-W, Keyword #ESTATE_CONV not known and is ignored.
  @GTFLGS-W, Keyword #ESTATE_SYM not known and is ignored.
  @GTFLGS-W, Keyword #SCF_DAMPING not known and is ignored.
  @GTFLGS-W, Keyword #OCCUPATION not known and is ignored.
    -------------------------------------------------------------------
                    CFOUR Control Parameters 
    -------------------------------------------------------------------
        External           Internal           Value            Units
          Name               Name
    -------------------------------------------------------------------
       ABCDTYPE             IABCDT         STANDARD     [  0]   ***   
       ANHARMONIC           IANHAR         OFF          [  0]   ***   
       ANH_ALGORIT          IANALG         STANDARD     [  0]   ***   
       ANH_DERIVAT          IANDER         SECOND       [  1]   ***   
       ANH_STEPSIZ          ICUBST             50000          x 10-6  
       ANH_SYMMETR          IANHSM         ABELIAN      [  0]   ***   
       AO_LADDERS           IAOLAD         SINGLEPASS   [  1]   ***   
       BASIS                IBASIS         SPECIAL      [  0]   ***   
       BREIT                IBREIT         OFF          [  0]   ***   
       BRUCK_CONV           IBRTOL          10D-  4             ***   
       BRUECKNER            IBRKNR             OFF      [  0]   ***   
       BUFFERSIZE           IBUFFS            600               ***   
       CACHE_RECS           ICHREC             10               ***   
       CALCLEVEL            ICLLVL           CCSD       [ 10]   ***   
       CCORBOPT             ICCORB             OFF      [  0] x 0.01  
       CC_CONV              ICCCNV          10D-  5             ***   
       CC_EXPORDER          ICCEOR              5               ***   
       CC_EXTRAPOL          ICCEXT             DIIS     [  1]   ***   
       CC_MAXCYC            ICCCYC            999              cycles 
       CC_PROGRAM           ICCPRO         MRCC         [  2]   ***   
       CHARGE               ICHRGE              1               ***   
       CHOLESKY             ICHOLE         OFF          [  0]   ***   
       CIS_CONV             ICISTL              5               ***   
       COMM_SIZE            IPSIZE            ***               ***   
       CONSTANT             ICONST         OLD          [  1]   ***   
       CONTINUUM            ICONTU         NONE         [  0]   ***   
       CONTRACTION          ICNTYP          GENERAL     [  1]   ***   
       COORDINATES          ICOORD         INTERNAL     [  0]   ***   
       CPHF_CONVER          ICPHFT          10D- 16             ***   
       CPHF_MAXCYC          ICPHFC             64              cycles 
       CUBIC                ICUBIC         OFF          [  0]   ***   
       CURVILINEAR          ICURVY            OFF       [  0]   ***   
       DBOC                 IDBOC          OFF          [  0]   ***   
       DCT                  IDCT           OFF          [  0]   ***   
       DERIV_LEV            IDRLVL            ZERO      [  0]   ***   
       DIAG_MRCC            IEOMST          10D-  0             ***   
       DIFF_TYPE            IDIFTY         RELAXED      [  0]   ***   
       DIRECT               IDIRCT         OFF          [  0]   ***   
       DROPMO               IDRPMO      NONE         
       ECP                  IECP           OFF          [  0]   ***   
       EIGENVECTOR          IVEC                1               ***   
       EL_ANHARM            IELANH         OFF          [  0]   ***   
       EOMFOLLOW            IEOMSR         ENERGY       [  0]   ***   
       EOM_MRCC             IMRCCE         NEW          [  1]   ***   
       EOM_NONIT            EOMNON         OFF          [  0]   ***   
       EOM_NSING            IEOMSI          10D-  0             ***   
       EOM_NSTATES          IMRCCD         DAVIDSON     [  0]   ***   
       EOM_NTRIP            IEOMTR          10D-  0             ***   
       EOM_ORDER            IEXORD         ENERGY       [  0]   ***   
       ESTATE_CONV          IEXTOL          10D-  5             ***   
       ESTATE_DIAG          IEXDIG         ITERATIVE    [  0]   ***   
       ESTATE_LOCK          IESLOC         ON           [  1]   ***   
       ESTATE_MAXC          IEXMXC             20               ***   
       ESTATE_PROP          IEXPRP         OFF          [  0]   ***   
       EVAL_HESS            IRECAL              0            # of cyc.
       EXCITATION           IEXCIT              0               ***   
       EXCITE               IEXCIT         NONE         [  0]   ***   
       FCGRADNEW            IFCGNW         OFF          [  0]   ***   
       FC_FIELD             IFINFC              0             x 10-6  
       FD_CALTYPE           IFDCAL         GRADONLY     [  0]   ***   
       FD_PROJECT           IFDPRJ         OFF          [  1]   ***   
       FD_STEPSIZE          IDISFD              0            10-4 bohr
       FD_USEGROUP          IFDGRP         FULL         [  0]   ***   
       FILE_RECSIZ          IFLREC              4096           words  
       FINITE_PERT          IFIPER              0             x 10-6  
       FIXGEOM              IFIXGM         OFF          [  0]   ***   
       FOCK                 IFOCK          AO           [  1]   ***   
       FREQ_ALGORI          IVIALG         STANDARD     [  0]   ***   
       FROZEN_CORE          IFROCO         ON           [  1]   ***   
       FROZEN_VIRT          IFROVI         OFF          [  0]   ***   
       GAMMA_ABCD           IGABCD         STORE        [  0]   ***   
       GAMMA_ABCI           IGABCI         STORE        [  0]   ***   
       GENBAS_1             IGNBS1              0               ***   
       GENBAS_2             IGNBS2              0               ***   
       GENBAS_3             IGNBS3              0               ***   
       GENBAS_4             IGNBS4              0               ***   
       GEO_CONV             ICONTL              5              H/bohr 
       GEO_MAXCYC           IOPTCY             50               ***   
       GEO_MAXSTEP          IMXSTP            300            millibohr
       GEO_METHOD           INR            SINGLE_POINT [  5]   ***   
       GIAO                 IGIAO          OFF          [  1]   ***   
       GIMIC                IGIMIC         OFF          [  0]   ***   
       GRID                 IGRID          OFF          [  0]   ***   
       GRID_ALGO            IGALGO         SERIAL       [  0]   ***   
       GUESS                IGUESS            MOREAD    [  0]   ***   
       HBAR                 IHBAR              OFF      [  0]   ***   
       HESS_TYPE            IHESTP         SCF          [  0]   ***   
       HF2_FILE             IHF2Fl         USE          [  1]   ***   
       HFSTABILITY          ISTABL         OFF          [  0]   ***   
       INCORE               INCORE             OFF      [  0]   ***   
       INPUT_MRCC           IMRCC          OFF          [  0]   ***   
       INTEGRALS            INTTYP             VMOL     [  1]   ***   
       JODA_PRINT           IJPRNT              4               ***   
       LINDEP_TOL           ILINDP              8               ***   
       LINEQ_CONV           IZTACN          10D-  7           cycles  
       LINEQ_EXPOR          ILMAXD              5               ***   
       LINEQ_MAXCY          ILMAXC             50               ***   
       LINEQ_TYPE           ILTYPE         DIIS         [  1]   ***   
       LOCK_ORBOCC          ILOCOC             OFF      [  0]   ***   
       MEMORY_SIZE          IMEMSZ         *********           words  
       MEM_UNIT             IMEMU          GB           [  3]   ***   
       MRCC                 IMRCCC         OFF          [  0]   ***   
       MULTIPLICTY          IMULTP              2               ***   
       NEGEVAL              IDIE             ABORT      [  0]   ***   
       NEWNORM              INEWNO         OFF          [  0]   ***   
       NON-HF               INONHF              ON      [  1]   ***   
       NTOP_TAMP            ITOPT2             15               ***   
       NUC_MODEL            INUCMO         POINT        [  0]   ***   
       OCCUPATION           IOCCU   ESTIMATED BY SCF 
       OPEN-SHELL           IOPEN          SPIN-ORBITAL [  0]   ***   
       ORBITALS             IORBTP         SEMICANONICAL[  1]   ***   
       PARALLEL             IPARAL         ON           [  1]   ***   
       PARA_INT             IPINTS         ON           [  1]   ***   
       PARA_PRINT           IPPRIN              0               ***   
       PERT_ORB             IPTORB         STANDARD     [  0]   ***   
       POINTS               IGRDFD              0               ***   
       PRINT                IPRNT               4               ***   
       PROPS                IPROPS             OFF      [  0]   ***   
       PROP_INTEGR          IINTYP         INTERNAL     [  0]   ***   
       PSI                  IPSI           OFF          [  0]   ***   
       QUARTIC              IQUART         OFF          [  0]   ***   
       RAMAN_INT            IRAMIN         OFF          [  0]   ***   
       RAMAN_ORB            IRAMRE         UNRELAXED    [  0]   ***   
       RDO                  IRDOFM             OFF      [  0]   ***   
       REFERENCE            IREFNC             ROHF     [  2]   ***   
       RELATIVIST           IRELAT         OFF          [  0]   ***   
       RELAX_DENS           IRDENS             OFF      [  0]   ***   
       RESET_FLAGS          IRESET             OFF      [  0]   ***   
       RESTART_CC           ICCRES         OFF          [  0]   ***   
       ROT_EVEC             ROTVEC              0               ***   
       SAVE_INTS            ISVINT              ON      [  1]   ***   
       SCALE_ON             ISTCRT              0               ***   
       SCF_CONV             ISCFCV          10D- 12             ***   
       SCF_DAMPING          IDAMP               0             x 10-3  
       SCF_EXPORDE          IRPPOR              6               ***   
       SCF_EXPSTAR          IRPPLS              5               ***   
       SCF_EXTRAPO          IRPP                ON      [  1]   ***   
       SCF_MAXCYC           ISCFCY            ***              cycles 
       SCF_NOSTOP           ISCFST         OFF          [  0]   ***   
       SCF_PRINT            ISCFPR              0               ***   
       SD_FIELD             IFINSD              0             x 10-6  
       SEQUENCE             ISEQUE         OFF          [  0]   ***   
       SOPERT               IPERSO         OFF          [  0]   ***   
       SPHERICAL            IDFGHI             ON       [  1]   ***   
       SPINORBIT            ISOCAL         OFF          [  0]   ***   
       SPINROTATIO          ISRCON         OFF          [  0]   ***   
       SPIN_FLIP            ISPFLP         OFF          [  0]   ***   
       SPIN_ORBIT           ISPORB         OFF          [  0]   ***   
       SPIN_SCAL            ISCSMP         OFF          [  0]   ***   
       SUBGROUP             ISUBGP         DEFAULT      [  0]   ***   
       SUBGRPAXIS           ISBXYZ         X            [  0]   ***   
       SYMMETRY             ISYM             ON         [  0]   ***   
       SYM_CHECK            ISYMCK         OVERRIDE     [  1]   ***   
       T3_EXTRAPOL          IT3EXT         ON           [  1]   ***   
       TAMP_SUM             IEVERY              5               ***   
       TESTSUITE            ITESTS         OFF          [  0]   ***   
       THERMOCH             ITHERM         OFF          [  0]   ***   
       TOL_CHOLESK          ITOLCH          10D-  4             ***   
       TRANGRAD             IRESRM         OFF          [  0]   ***   
       TRANS_INV            ITRAIN         USE          [  0]   ***   
       TREAT_PERT           ITREAT         SIMULTANEOUS [  0]   ***   
       UIJ_THRESHO          IUIJTH              1               ***   
       UNITS                IUNITS         ANGSTROM     [  0]   ***   
       UNOS                 IUNOS          OFF          [  0]   ***   
       UPDATE_HESS          IHUPDT         ON           [  1]   ***   
       VIBPHASE             ISETPH         STANDARD     [  0]   ***   
       VIBRATION            IVIB              NO        [  0]   ***   
       VIB_ALGORIT          IGEALG         STANDARD     [  0]   ***   
       VNATORB              IVNORB         OFF          [  0]   ***   
       VTRAN                IVTRAN         FULL/PARTIAL [  0]   ***   
       XFIELD               IXEFLD              0             x 10-6  
       XFORM_TOL            IXFTOL          10D- 18             ***   
       YFIELD               IYEFLD              0             x 10-6  
       ZFIELD               IZEFLD              0             x 10-6  
    -------------------------------------------------------------------
   2 entries found in Z-matrix 
   Job Title : TITLE                                                                           
 Variable names read by FETCHZ
  1           
  2           
  3           
  4 R         
  5           
  6           
 Atomic symbols read by FETCHZ
  1 P    
  2 N    
 Connectivity matrix read by FETCHZ
  1   0
  2   0
  3   0
  4   1
  5   0
  6   0
   There are  1 unique internal coordinates.
   Of these,  0 will be optimized.
   User supplied Z-matrix: 
--------------------------------------------------------------------------------
       SYMBOL    BOND      LENGTH    ANGLE     ANGLE     DIHED     ANGLE
                  TO      (ANGST)    WRT      (DEG)      WRT      (DEG)
--------------------------------------------------------------------------------
        P    
        N          1         R    
                  *Initial values for internal coordinates* 
                      Name             Value
                        R               1.4908700000
--------------------------------------------------------------------------------
  1  P         15    30.97376
  2  N          7    14.00307
   30.9737620000
   14.0030740020
 After translation to center of mass coordinates 
        0.000000000000    0.000000000000   -0.877148685752
        0.000000000000    0.000000000000    1.940187892116
  Inertia tensor (amu*bohr**2)
   76.54308    0.00000    0.00000
    0.00000   76.54308    0.00000
    0.00000    0.00000    0.00000
    Inertia tensor:
       76.543075423421    0.000000000000    0.000000000000
        0.000000000000   76.543075423421    0.000000000000
        0.000000000000    0.000000000000    0.000000000000
    Principal axis orientation for molecular system: 
        0.000000000000    0.000000000000    0.877148685752
        0.000000000000    0.000000000000   -1.940187892116
    Diagonalized inertia tensor:
       76.543075423421    0.000000000000    0.000000000000
        0.000000000000   76.543075423421    0.000000000000
        0.000000000000    0.000000000000    0.000000000000
    Eigenvectors of inertia tensor: 
        1.000000000000    0.000000000000    0.000000000000
        0.000000000000    1.000000000000    0.000000000000
        0.000000000000    0.000000000000   -1.000000000000
 factor:   60.1997200000000     
   Rotational constants (in cm-1): 
          0.7864815944             0.7864815944
   Rotational constants (in MHz): 
      23578.1283391937         23578.1283391937
  @SYMMETRY-I, Handedness of inertial frame:-1.00000
  @SYMMETRY-I, Sense of inertial frame y-axis will be changed.
  @SYMMETRY-I, The symmetry group is 2-fold degenerate.
  @SYMMETRY-I, The molecule belongs to a point group with doubly degenerate representations.
  @SYMMETRY-I, The molecule is linear.
   Principal axis orientation for molecule:
        0.000000000000    0.000000000000    0.877148685752
        0.000000000000    0.000000000000   -1.940187892116
   Rotation about  3 is a valid symmetry operation 
   Reflection in plane  2 is a valid symmetry operation.
   Reflection in plane  1 is a valid symmetry operation.
  Symmetry bits:    3   4   0
********************************************************************************
   The full molecular point group is CXv .
   The largest Abelian subgroup of the full molecular point group is C2v .
   The computational point group is C2v .
********************************************************************************
--------------------------------------------------------------------------------
   Analysis of internal coordinates specified by Z-matrix 
--------------------------------------------------------------------------------
   *The nuclear repulsion energy is   37.269242455747317 a.u.
   *There is   1 degree of freedom within the tot. symm. molecular subspace.
   *Z-matrix requests optimization of   0 coordinates.
   *The optimization is constrained.
   *The following   1 parameters can have non-zero 
    derivatives within the totally symmetric subspace:
             R    [ 1]
   *The following   0 parameters are to be optimized:

   *The following coordinates must be varied in an  unconstrained optimization.
             R    [ 1]
--------------------------------------------------------------------------------
 ----------------------------------------------------------------
 Z-matrix   Atomic            Coordinates (in bohr)
  Symbol    Number           X              Y              Z
 ----------------------------------------------------------------
     P        15         0.00000000     0.00000000     0.87714869
     N         7         0.00000000     0.00000000    -1.94018789
 ----------------------------------------------------------------
   Interatomic distance matrix (Angstroms) 
 
                 P             N    
                [ 1]        [ 2]
  P    [ 1]     0.00000
  N    [ 2]     1.49087     0.00000
  Inertia tensor (amu*bohr**2)
   76.54308    0.00000    0.00000
    0.00000   76.54308    0.00000
    0.00000    0.00000    0.00000
   Rotational constants (in cm-1): 
          0.7864815944             0.0000000000
   Rotational constants (in MHz): 
      23578.1283391937             0.0000000000
  @GTFLGS-W, Keyword #GEOM not known and is ignored.
  @GTFLGS-W, Keyword #COORD not known and is ignored.
  @GTFLGS-W, Keyword #DROPMO not known and is ignored.
  @GTFLGS-W, Keyword #CONTRACTION not known and is ignored.
  @GTFLGS-W, Keyword #EXCITE not known and is ignored.
  @GTFLGS-W, Keyword #ESTATE_CONV not known and is ignored.
  @GTFLGS-W, Keyword #ESTATE_SYM not known and is ignored.
  @GTFLGS-W, Keyword #SCF_DAMPING not known and is ignored.
  @GTFLGS-W, Keyword #OCCUPATION not known and is ignored.
  There are   6 frozen-core orbitals.
  There are   6 frozen-core orbitals.
  There are   73 basis functions.
 @GEOPT-W, Archive file not created for single-point calculation.
  @CHECKOUT-I, Total execution time (CPU/WALL):        0.40/       0.43 seconds.
--executable xjoda finished with status     0 in        0.44 seconds (walltime).
 --invoking executable--
/project1/nike/cfour_v2.00beta_May2019xnmol_noLABBASIS/bin/xvmol
Running with 15 threads/proc

********************************************************************************
                   INPUT FROM MOL FILE                                          
********************************************************************************
INTGRL        1    0    1    0    0    0    0    0    0
         *** CFOUR Program System (Release V0.1) *** 
TITLE
    2    2 X  Y       0.10E-08              0    0
   9999.00      3.00
         15.00000000    1    4    1    1    1    1
P #1   0.000000000000000   0.000000000000000   0.877148685751700
   14    5
   52426.9992330000       5.520716410000000E-004  0.000000000000000E+000
  0.000000000000000E+000  0.000000000000000E+000  0.000000000000000E+000
   7863.26605520000       4.267859530800000E-003  0.000000000000000E+000
  0.000000000000000E+000  0.000000000000000E+000  0.000000000000000E+000
   1789.52273330000       2.193152918600000E-002  0.000000000000000E+000
  0.000000000000000E+000  0.000000000000000E+000  0.000000000000000E+000
   506.273001650000       8.566716837299999E-002  0.000000000000000E+000
  0.000000000000000E+000  0.000000000000000E+000  0.000000000000000E+000
   164.606985460000       0.248406866050000       0.000000000000000E+000
  0.000000000000000E+000  0.000000000000000E+000  0.000000000000000E+000
   58.3919187220000       0.463367539710000       0.000000000000000E+000
  0.000000000000000E+000  0.000000000000000E+000  0.000000000000000E+000
   21.6436632010000       0.353505581560000       0.000000000000000E+000
  0.000000000000000E+000  0.000000000000000E+000  0.000000000000000E+000
   99.0138376200000       0.000000000000000E+000  2.189567995800000E-002
  0.000000000000000E+000  0.000000000000000E+000  0.000000000000000E+000
   30.5504398170000       0.000000000000000E+000  9.565047029500000E-002
  0.000000000000000E+000  0.000000000000000E+000  0.000000000000000E+000
   5.45370876610000       0.000000000000000E+000 -0.294542701860000     
  0.000000000000000E+000  0.000000000000000E+000  0.000000000000000E+000
   2.65033625630000       0.000000000000000E+000  0.000000000000000E+000
   1.32943812000000       0.000000000000000E+000  0.000000000000000E+000
   1.27266888670000       0.000000000000000E+000  0.000000000000000E+000
  0.661093964730000       0.000000000000000E+000  0.000000000000000E+000
  0.316450052030000       0.000000000000000E+000  0.000000000000000E+000
  0.000000000000000E+000   1.00000000000000       0.000000000000000E+000
  0.114174669380000       0.000000000000000E+000  0.000000000000000E+000
  0.000000000000000E+000  0.000000000000000E+000   1.00000000000000     
    9    5
   472.272192480000       2.571062305200000E-003  0.000000000000000E+000
  0.000000000000000E+000  0.000000000000000E+000  0.000000000000000E+000
   111.588827560000       2.025029799900000E-002  0.000000000000000E+000
  0.000000000000000E+000  0.000000000000000E+000  0.000000000000000E+000
   35.4459364180000       9.158071678700000E-002  0.000000000000000E+000
  0.000000000000000E+000  0.000000000000000E+000  0.000000000000000E+000
   12.9907768750000       0.257494540140000       0.000000000000000E+000
  0.000000000000000E+000  0.000000000000000E+000  0.000000000000000E+000
   5.04862216580000       0.428628997580000       0.000000000000000E+000
  0.000000000000000E+000  0.000000000000000E+000  0.000000000000000E+000
   1.99340495660000       0.000000000000000E+000  0.343598178490000     
  0.000000000000000E+000  0.000000000000000E+000  0.000000000000000E+000
  0.665272844300000       0.000000000000000E+000  0.000000000000000E+000
   1.00000000000000       0.000000000000000E+000  0.000000000000000E+000
  0.255168321280000       0.000000000000000E+000  0.000000000000000E+000
  0.000000000000000E+000   1.00000000000000       0.000000000000000E+000
  9.035776225100001E-002  0.000000000000000E+000  0.000000000000000E+000
  0.000000000000000E+000  0.000000000000000E+000   1.00000000000000     
    3    3
  0.218000000000000        1.00000000000000       0.000000000000000E+000
  0.000000000000000E+000
   3.12000000000000       0.000000000000000E+000   1.00000000000000     
  0.000000000000000E+000
  0.648000000000000       0.000000000000000E+000  0.000000000000000E+000
   1.00000000000000     
    1    1
  0.452000000000000        1.00000000000000     
          7.00000000    1    4    1    1    1    1
N #2   0.000000000000000   0.000000000000000  -1.940187892116087
   11    5
   19730.8006470000       2.188798499100000E-004  0.000000000000000E+000
  0.000000000000000E+000  0.000000000000000E+000  0.000000000000000E+000
   2957.89587450000       1.696070880300000E-003  0.000000000000000E+000
  0.000000000000000E+000  0.000000000000000E+000  0.000000000000000E+000
   673.221335950000       8.795460353799999E-003  0.000000000000000E+000
  0.000000000000000E+000  0.000000000000000E+000  0.000000000000000E+000
   190.682494940000       3.535938260500000E-002  0.000000000000000E+000
  0.000000000000000E+000  0.000000000000000E+000  0.000000000000000E+000
   62.2954418980000       0.110957892170000       0.000000000000000E+000
  0.000000000000000E+000  0.000000000000000E+000  0.000000000000000E+000
   22.6541611820000       0.249829725520000       0.000000000000000E+000
  0.000000000000000E+000  0.000000000000000E+000  0.000000000000000E+000
   8.97914774280000       0.000000000000000E+000  0.406238961480000     
  0.000000000000000E+000  0.000000000000000E+000  0.000000000000000E+000
   3.68630023700000       0.000000000000000E+000  0.243382171760000     
  0.000000000000000E+000  0.000000000000000E+000  0.000000000000000E+000
  0.846600768050000       0.000000000000000E+000  0.000000000000000E+000
   1.00000000000000       0.000000000000000E+000  0.000000000000000E+000
  0.336471337710000       0.000000000000000E+000  0.000000000000000E+000
  0.000000000000000E+000   1.00000000000000       0.000000000000000E+000
  0.136476536750000       0.000000000000000E+000  0.000000000000000E+000
  0.000000000000000E+000  0.000000000000000E+000   1.00000000000000     
    6    3
   49.2003805100000       5.555241675100000E-003  0.000000000000000E+000
  0.000000000000000E+000
   11.3467905370000       3.805237972300000E-002  0.000000000000000E+000
  0.000000000000000E+000
   3.42739724110000       0.149536710290000       0.000000000000000E+000
  0.000000000000000E+000
   1.17855251340000       0.349493052300000       0.000000000000000E+000
  0.000000000000000E+000
  0.416422049720000       0.000000000000000E+000  0.458431536970000     
  0.000000000000000E+000
  0.142608260110000       0.000000000000000E+000  0.000000000000000E+000
  0.244287716720000     
    2    2
   1.65400000000000        1.00000000000000       0.000000000000000E+000
  0.469000000000000       0.000000000000000E+000   1.00000000000000     
    1    1
   1.09300000000000        1.00000000000000     
FINISH
                                                                                
********************************************************************************

ONE- AND TWO-ELECTRON INTEGRALS OVER SYMMETRY-ADAPTED AOS ARE CALCULATED.


    BASIS FUNCTION NOT NORMALIZED:
    CENTER (AS ORDERED IN MOL FILE): ?
    ANGULAR MOMENTUM TYPE:           S
    OFFSET WITHIN ANGULAR MOMENTUM:  1
    <CHI|CHI>:                       1.0645211446

    BASIS FUNCTION NOT NORMALIZED:
    CENTER (AS ORDERED IN MOL FILE): ?
    ANGULAR MOMENTUM TYPE:           S
    OFFSET WITHIN ANGULAR MOMENTUM:  2
    <CHI|CHI>:                       0.0616222685

    BASIS FUNCTION NOT NORMALIZED:
    CENTER (AS ORDERED IN MOL FILE): ?
    ANGULAR MOMENTUM TYPE:           S
    OFFSET WITHIN ANGULAR MOMENTUM:  3
    <CHI|CHI>:                       3.7969907505

    BASIS FUNCTION NOT NORMALIZED:
    CENTER (AS ORDERED IN MOL FILE): ?
    ANGULAR MOMENTUM TYPE:           P
    OFFSET WITHIN ANGULAR MOMENTUM:  1
    <CHI|CHI>:                       0.4978153611

    BASIS FUNCTION NOT NORMALIZED:
    CENTER (AS ORDERED IN MOL FILE): ?
    ANGULAR MOMENTUM TYPE:           P
    OFFSET WITHIN ANGULAR MOMENTUM:  2
    <CHI|CHI>:                       0.1180597083

    BASIS FUNCTION NOT NORMALIZED:
    CENTER (AS ORDERED IN MOL FILE): ?
    ANGULAR MOMENTUM TYPE:           S
    OFFSET WITHIN ANGULAR MOMENTUM:  1
    <CHI|CHI>:                       0.1393878990

    BASIS FUNCTION NOT NORMALIZED:
    CENTER (AS ORDERED IN MOL FILE): ?
    ANGULAR MOMENTUM TYPE:           S
    OFFSET WITHIN ANGULAR MOMENTUM:  2
    <CHI|CHI>:                       0.3954965528

    BASIS FUNCTION NOT NORMALIZED:
    CENTER (AS ORDERED IN MOL FILE): ?
    ANGULAR MOMENTUM TYPE:           P
    OFFSET WITHIN ANGULAR MOMENTUM:  1
    <CHI|CHI>:                       0.2354420728

    BASIS FUNCTION NOT NORMALIZED:
    CENTER (AS ORDERED IN MOL FILE): ?
    ANGULAR MOMENTUM TYPE:           P
    OFFSET WITHIN ANGULAR MOMENTUM:  2
    <CHI|CHI>:                       0.2101594741

    BASIS FUNCTION NOT NORMALIZED:
    CENTER (AS ORDERED IN MOL FILE): ?
    ANGULAR MOMENTUM TYPE:           P
    OFFSET WITHIN ANGULAR MOMENTUM:  3
    <CHI|CHI>:                       0.0596764885
CARTESIAN GAUSSIANS ARE USED.

2 TYPES OF ATOMS
2 SYMMETRY OPERATIONS

REFLECTION IN THE YZ-PLANE
REFLECTION IN THE XZ-PLANE

INTEGRALS LESS THAN 1e-14 ARE NEGLECTED.

ATOMIC TYPE NUMBER 1:
---------------------

    NUCLEAR CHARGE:                       15
    NUMBER OF SYMMETRY INDEPENDENT ATOMS: 1
    HIGHEST ORBITAL TYPE:                 F

    1 GROUPS OF CGTOS OF S TYPE
    1 GROUPS OF CGTOS OF P TYPE
    1 GROUPS OF CGTOS OF D TYPE
    1 GROUPS OF CGTOS OF F TYPE

    NUCLEAR COORDINATES (IN A.U.) ARE:

    P #1   0.000000000000000   0.000000000000000   0.877148685751700

ATOMIC TYPE NUMBER 2:
---------------------

    NUCLEAR CHARGE:                       7
    NUMBER OF SYMMETRY INDEPENDENT ATOMS: 1
    HIGHEST ORBITAL TYPE:                 F

    1 GROUPS OF CGTOS OF S TYPE
    1 GROUPS OF CGTOS OF P TYPE
    1 GROUPS OF CGTOS OF D TYPE
    1 GROUPS OF CGTOS OF F TYPE

    NUCLEAR COORDINATES (IN A.U.) ARE:

    N #2   0.000000000000000   0.000000000000000  -1.940187892116087

INTERNUCLEAR DISTANCES (A):

    FOR ATOM P #1 (COORDINATES:   0.00000   0.00000   0.87715)

    N #2 1 DISTANCE IS   1.49087

    FOR ATOM N #2 (COORDINATES:   0.00000   0.00000  -1.94019)


GROUP MULTIPLICATION TABLE:

    1 2 3 4
    2 1 4 3
    3 4 1 2
    4 3 2 1

GAUSSIAN BASIS INFORMATION:

ATOM                EXPONENT       COEFFICIENTS

P #1  1  S   
                  1   52426.999233   1.3212793   0.0000000   0.0000000   0.0000000   0.0000000
                  2    7863.266055   2.4617576   0.0000000   0.0000000   0.0000000   0.0000000
                  3    1789.522733   4.1682598   0.0000000   0.0000000   0.0000000   0.0000000
                  4     506.273002   6.3159100   0.0000000   0.0000000   0.0000000   0.0000000
                  5     164.606985   7.8855636   0.0000000   0.0000000   0.0000000   0.0000000
                  6      58.391919   6.7611896   0.0000000   0.0000000   0.0000000   0.0000000
                  7      21.643663   2.4503453   0.0000000   0.0000000   0.0000000   0.0000000
                  8      99.013838   0.0000000   1.9732023   0.0000000   0.0000000   0.0000000
                  9      30.550440   0.0000000   3.5685473   0.0000000   0.0000000   0.0000000
                 10       5.453709   0.0000000  -3.0179252   0.0000000   0.0000000   0.0000000
                 11       2.650336   0.0000000   0.0000000   1.0100298   0.0000000   0.0000000
                 12       1.272669   0.0000000   0.0000000   0.2897277   0.0000000   0.0000000
                 13       0.316450   0.0000000   0.0000000   0.0000000   0.3007038   0.0000000
                 14       0.114175   0.0000000   0.0000000   0.0000000   0.0000000   0.1399869

P #1  1  X   
                 15     472.272192  11.4356014   0.0000000   0.0000000   0.0000000   0.0000000
                 16     111.588828  14.8375861   0.0000000   0.0000000   0.0000000   0.0000000
                 17      35.445936  16.0017709   0.0000000   0.0000000   0.0000000   0.0000000
                 18      12.990777  12.8297404   0.0000000   0.0000000   0.0000000   0.0000000
                 19       5.048622   6.5532023   0.0000000   0.0000000   0.0000000   0.0000000
                 20       1.993405   0.0000000   3.3762493   0.0000000   0.0000000   0.0000000
                 21       0.665273   0.0000000   0.0000000   0.8564260   0.0000000   0.0000000
                 22       0.255168   0.0000000   0.0000000   0.0000000   0.2585077   0.0000000
                 23       0.090358   0.0000000   0.0000000   0.0000000   0.0000000   0.0706150

P #1  1  Y   
                 24     472.272192  11.4356014   0.0000000   0.0000000   0.0000000   0.0000000
                 25     111.588828  14.8375861   0.0000000   0.0000000   0.0000000   0.0000000
                 26      35.445936  16.0017709   0.0000000   0.0000000   0.0000000   0.0000000
                 27      12.990777  12.8297404   0.0000000   0.0000000   0.0000000   0.0000000
                 28       5.048622   6.5532023   0.0000000   0.0000000   0.0000000   0.0000000
                 29       1.993405   0.0000000   3.3762493   0.0000000   0.0000000   0.0000000
                 30       0.665273   0.0000000   0.0000000   0.8564260   0.0000000   0.0000000
                 31       0.255168   0.0000000   0.0000000   0.0000000   0.2585077   0.0000000
                 32       0.090358   0.0000000   0.0000000   0.0000000   0.0000000   0.0706150

P #1  1  Z   
                 33     472.272192  11.4356014   0.0000000   0.0000000   0.0000000   0.0000000
                 34     111.588828  14.8375861   0.0000000   0.0000000   0.0000000   0.0000000
                 35      35.445936  16.0017709   0.0000000   0.0000000   0.0000000   0.0000000
                 36      12.990777  12.8297404   0.0000000   0.0000000   0.0000000   0.0000000
                 37       5.048622   6.5532023   0.0000000   0.0000000   0.0000000   0.0000000
                 38       1.993405   0.0000000   3.3762493   0.0000000   0.0000000   0.0000000
                 39       0.665273   0.0000000   0.0000000   0.8564260   0.0000000   0.0000000
                 40       0.255168   0.0000000   0.0000000   0.0000000   0.2585077   0.0000000
                 41       0.090358   0.0000000   0.0000000   0.0000000   0.0000000   0.0706150

P #1  1  XX  
                 42       0.218000   0.1982755   0.0000000   0.0000000
                 43       3.120000   0.0000000  20.8804870   0.0000000
                 44       0.648000   0.0000000   0.0000000   1.3342166

P #1  1  XY  
                 45       0.218000   0.1982755   0.0000000   0.0000000
                 46       3.120000   0.0000000  20.8804870   0.0000000
                 47       0.648000   0.0000000   0.0000000   1.3342166

P #1  1  XZ  
                 48       0.218000   0.1982755   0.0000000   0.0000000
                 49       3.120000   0.0000000  20.8804870   0.0000000
                 50       0.648000   0.0000000   0.0000000   1.3342166

P #1  1  YY  
                 51       0.218000   0.1982755   0.0000000   0.0000000
                 52       3.120000   0.0000000  20.8804870   0.0000000
                 53       0.648000   0.0000000   0.0000000   1.3342166

P #1  1  YZ  
                 54       0.218000   0.1982755   0.0000000   0.0000000
                 55       3.120000   0.0000000  20.8804870   0.0000000
                 56       0.648000   0.0000000   0.0000000   1.3342166

P #1  1  ZZ  
                 57       0.218000   0.1982755   0.0000000   0.0000000
                 58       3.120000   0.0000000  20.8804870   0.0000000
                 59       0.648000   0.0000000   0.0000000   1.3342166

P #1  1  F300
                 60       0.452000   0.9551280

P #1  1  F210
                 61       0.452000   0.9551280

P #1  1  F201
                 62       0.452000   0.9551280

P #1  1  F120
                 63       0.452000   0.9551280

P #1  1  F111
                 64       0.452000   0.9551280

P #1  1  F102
                 65       0.452000   0.9551280

P #1  1  F030
                 66       0.452000   0.9551280

P #1  1  F021
                 67       0.452000   0.9551280

P #1  1  F012
                 68       0.452000   0.9551280

P #1  1  F003
                 69       0.452000   0.9551280

N #2  1  S   
                 70   19730.800647   0.6956037   0.0000000   0.0000000   0.0000000   0.0000000
                 71    2957.895874   1.2986099   0.0000000   0.0000000   0.0000000   0.0000000
                 72     673.221336   2.2190881   0.0000000   0.0000000   0.0000000   0.0000000
                 73     190.682495   3.4636608   0.0000000   0.0000000   0.0000000   0.0000000
                 74      62.295442   4.6967556   0.0000000   0.0000000   0.0000000   0.0000000
                 75      22.654161   4.9522511   0.0000000   0.0000000   0.0000000   0.0000000
                 76       8.979148   0.0000000   2.3880678   0.0000000   0.0000000   0.0000000
                 77       3.686300   0.0000000   0.7337879   0.0000000   0.0000000   0.0000000
                 78       0.846601   0.0000000   0.0000000   0.6290267   0.0000000   0.0000000
                 79       0.336471   0.0000000   0.0000000   0.0000000   0.3148627   0.0000000
                 80       0.136477   0.0000000   0.0000000   0.0000000   0.0000000   0.1600308

N #2  1  X   
                 81      49.200381   2.1264814   0.0000000   0.0000000
                 82      11.346791   2.3279367   0.0000000   0.0000000
                 83       3.427397   2.0485729   0.0000000   0.0000000
                 84       1.178553   1.2607320   0.0000000   0.0000000
                 85       0.416422   0.0000000   0.4768230   0.0000000
                 86       0.142608   0.0000000   0.0000000   0.1249168

N #2  1  Y   
                 87      49.200381   2.1264814   0.0000000   0.0000000
                 88      11.346791   2.3279367   0.0000000   0.0000000
                 89       3.427397   2.0485729   0.0000000   0.0000000
                 90       1.178553   1.2607320   0.0000000   0.0000000
                 91       0.416422   0.0000000   0.4768230   0.0000000
                 92       0.142608   0.0000000   0.0000000   0.1249168

N #2  1  Z   
                 93      49.200381   2.1264814   0.0000000   0.0000000
                 94      11.346791   2.3279367   0.0000000   0.0000000
                 95       3.427397   2.0485729   0.0000000   0.0000000
                 96       1.178553   1.2607320   0.0000000   0.0000000
                 97       0.416422   0.0000000   0.4768230   0.0000000
                 98       0.142608   0.0000000   0.0000000   0.1249168

N #2  1  XX  
                 99       1.654000   6.8771297   0.0000000
                100       0.469000   0.0000000   0.7577441

N #2  1  XY  
                101       1.654000   6.8771297   0.0000000
                102       0.469000   0.0000000   0.7577441

N #2  1  XZ  
                103       1.654000   6.8771297   0.0000000
                104       0.469000   0.0000000   0.7577441

N #2  1  YY  
                105       1.654000   6.8771297   0.0000000
                106       0.469000   0.0000000   0.7577441

N #2  1  YZ  
                107       1.654000   6.8771297   0.0000000
                108       0.469000   0.0000000   0.7577441

N #2  1  ZZ  
                109       1.654000   6.8771297   0.0000000
                110       0.469000   0.0000000   0.7577441

N #2  1  F300
                111       1.093000   6.9645882

N #2  1  F210
                112       1.093000   6.9645882

N #2  1  F201
                113       1.093000   6.9645882

N #2  1  F120
                114       1.093000   6.9645882

N #2  1  F111
                115       1.093000   6.9645882

N #2  1  F102
                116       1.093000   6.9645882

N #2  1  F030
                117       1.093000   6.9645882

N #2  1  F021
                118       1.093000   6.9645882

N #2  1  F012
                119       1.093000   6.9645882

N #2  1  F003
                120       1.093000   6.9645882

SYMMETRY TRANSFORMATION INTO 73 SYMMETRY-ADAPTED BASIS FUNCTIONS

    IRREDUCIBLE REPRESENTATION NUMBER 1

    1    1 P #1 S      1   1.0
    2    2 P #1 S      2   1.0
    3    3 P #1 S      3   1.0
    4    4 P #1 S      4   1.0
    5    5 P #1 S      5   1.0
    6    6 P #1 Z     16   1.0
    7    7 P #1 Z     17   1.0
    8    8 P #1 Z     18   1.0
    9    9 P #1 Z     19   1.0
   10   10 P #1 Z     20   1.0
   11   11 P #1 XX    21  -1.0  30  -1.0  36   2.0
   12   12 P #1 XX    22  -1.0  31  -1.0  37   2.0
   13   13 P #1 XX    23  -1.0  32  -1.0  38   2.0
   14   14 P #1 YY    21   1.0  30  -1.0
   15   15 P #1 YY    22   1.0  31  -1.0
   16   16 P #1 YY    23   1.0  32  -1.0
   17   17 P #1 ZZ    41  -3.0  46  -3.0  48   2.0
   18   18 P #1 ZZ    41   1.0  46  -1.0
   19   19 P #1 ZZ    49   1.0
   20   20 P #1 F201  50   1.0
   21   21 P #1 F021  51   1.0
   22   22 P #1 F003  52   1.0
   23   23 N #2 S     53   1.0
   24   24 N #2 S     60   1.0
   25   25 N #2 S     61   1.0
   26   26 N #2 S     62   1.0
   27   27 N #2 S     63  -1.0  69  -1.0  73   2.0
   28   28 N #2 Z     64  -1.0  70  -1.0  74   2.0
   29   29 N #2 Z     63   1.0  69  -1.0
   30   30 N #2 Z     64   1.0  70  -1.0
   31   31 N #2 XX    77  -3.0  82  -3.0  84   2.0
   32   32 N #2 XX    77   1.0  82  -1.0
   33   33 N #2 YY     6   1.0
   34   34 N #2 YY     7   1.0
   35   35 N #2 ZZ     8   1.0
   36   36 N #2 ZZ     9   1.0
   37   37 N #2 F201  10   1.0
   38   38 N #2 F021  27   1.0
   39   39 N #2 F003  28   1.0

    IRREDUCIBLE REPRESENTATION NUMBER 2

   40    1 P #1 X     29   1.0
   41    2 P #1 X     39  -1.0  42  -1.0  44   4.0
   42    3 P #1 X     39   1.0  42  -3.0
   43    4 P #1 X     54   1.0
   44    5 P #1 X     55   1.0
   45    6 P #1 XZ    56   1.0
   46    7 P #1 XZ    67   1.0
   47    8 P #1 XZ    68   1.0
   48    9 P #1 F300  75  -1.0  78  -1.0  80   4.0
   49   10 P #1 F120  75   1.0  78  -3.0
   50   11 P #1 F102  11   1.0
   51   12 N #2 X     12   1.0
   52   13 N #2 X     13   1.0
   53   14 N #2 X     14   1.0
   54   15 N #2 XZ    15   1.0
   55   16 N #2 XZ    33   1.0
   56   17 N #2 F300  34   1.0
   57   18 N #2 F120  35   1.0
   58   19 N #2 F102  40  -1.0  45  -1.0  47   4.0

    IRREDUCIBLE REPRESENTATION NUMBER 3

   59    1 P #1 Y     40   3.0  45  -1.0
   60    2 P #1 Y     57   1.0
   61    3 P #1 Y     58   1.0
   62    4 P #1 Y     59   1.0
   63    5 P #1 Y     71   1.0
   64    6 P #1 YZ    72   1.0
   65    7 P #1 YZ    76  -1.0  81  -1.0  83   4.0
   66    8 P #1 YZ    76   3.0  81  -1.0
   67    9 P #1 F210  24   1.0
   68   10 P #1 F030  25   1.0
   69   11 P #1 F012  26   1.0
   70   12 N #2 Y     43   1.0
   71   13 N #2 Y     65   1.0
   72   14 N #2 Y     66   1.0
   73   15 N #2 YZ    79   1.0
   74   16 N #2 YZ  
   75   17 N #2 F210
   76   18 N #2 F030
   77   19 N #2 F012

    IRREDUCIBLE REPRESENTATION NUMBER 4

   78    1 P #1 XY  
   79    2 P #1 XY  
   80    3 P #1 XY  
   81    4 P #1 F111
   82    5 N #2 XY  
   83    6 N #2 XY  
   84    7 N #2 F111

NUCLEAR REPULSION ENERGY:   37.2692424557 A.U.

One-electron integrals took 0.024147 seconds

  @TWOEL-I,      92373 INTEGRALS OF SYMMETRY TYPE  I I I I
  @TWOEL-I,     304283 INTEGRALS OF SYMMETRY TYPE  I J I J
  @TWOEL-I,     167664 INTEGRALS OF SYMMETRY TYPE  I I J J
  @TWOEL-I,     167686 INTEGRALS OF SYMMETRY TYPE  I J K L
  @TWOEL-I, TOTAL NUMBER OF 2-E INTEGRALS     732006

Two-electron integrals took 0.584588 seconds

Nuclear repulsion energy: 37.269242455747
--executable xvmol finished with status     0 in        0.77 seconds (walltime).
 --invoking executable--
/project1/nike/cfour_v2.00beta_May2019xnmol_noLABBASIS/bin/xvmol2ja
--executable xvmol2ja finished with status     0 in        0.01 seconds (walltime).
 --invoking executable--
/project1/nike/cfour_v2.00beta_May2019xnmol_noLABBASIS/bin/xvscf
  There are   73 functions in the AO basis.

  There are 4 irreducible representations.

       Irrep        # of functions
         1                 32
         2                 17
         3                 17
         4                  7


  Parameters for SCF calculation: 
        SCF reference function: ROHF  
  Maximum number of iterations: 9999
     Full symmetry point group: CXv 
     Computational point group: C2v 
        Initial density matrix: CORE                   
     SCF convergence tolerance: 10**(-12)
  DIIS convergence acceleration:  ON
          Latest start for DIIS:   5
                     DIIS order:   6

  Memory information:     282818 words required.
  Fock matrices are constructed from AO integral file.
 @GETMEM-I,  Allocated       2 MB of main memory.
  Initialization and symmetry analysis required      0.002 seconds.

  @INITGES-I, Occupancies from core Hamiltonian:

          Alpha population by irrep:   6    2    2    1
           Beta population by irrep:   6    2    2    0


 total no. of electrons in initial guess :  0.000000000000000E+000
 total no. of electrons in initial guess :  0.000000000000000E+000
  --------------------------------------------------------------------
  Iteration         Total Energy            Largest Density Difference
  --------------------------------------------------------------------
       0            37.269242455747325              0.0000000000D+00
   current occupation vector 
     6  2  2  1
     6  2  2  0
  processed                  92373  ao basis integrals from 
                   154  buffers.
  processed                 167664  ao basis integrals from 
                   280  buffers.
  processed                 304283  ao basis integrals from 
                   508  buffers.
       1          -327.623961894480374              0.1541428215D+01
   current occupation vector 
     6  2  2  1
     6  2  2  0
  processed                  92373  ao basis integrals from 
                   154  buffers.
  processed                 167664  ao basis integrals from 
                   280  buffers.
  processed                 304283  ao basis integrals from 
                   508  buffers.
       2          -304.642700539940677              0.8991105389D+01
   current occupation vector 
     7  2  2  0
     6  2  2  0
  processed                  92373  ao basis integrals from 
                   154  buffers.
  processed                 167664  ao basis integrals from 
                   280  buffers.
  processed                 304283  ao basis integrals from 
                   508  buffers.
       3          -357.189605751054501              0.8415644792D+01
   current occupation vector 
     7  2  2  0
     6  2  2  0
  processed                  92373  ao basis integrals from 
                   154  buffers.
  processed                 167664  ao basis integrals from 
                   280  buffers.
  processed                 304283  ao basis integrals from 
                   508  buffers.
       4          -307.931728618665375              0.4554180091D+01
   current occupation vector 
     7  2  2  0
     6  2  2  0
 
 sum over diagonal and offdiagdiagonal of C(T)*S*C for irrep
                     1
  1.127875570716697E-012 -1.227325183732284E-013
 reorthoganalization of MOs is carried out
 sum over diagonal and offdiagdiagonal of C(T)*S*C for irrep
                     1
 -1.709743457922741E-014  4.797000412274109E-014
 
 sum over diagonal and offdiagdiagonal of C(T)*S*C for irrep
                     2
  1.013633621482768E-013  5.522747036248137E-014
 reorthoganalization of MOs is carried out
 sum over diagonal and offdiagdiagonal of C(T)*S*C for irrep
                     2
  9.992007221626409E-016  2.806846468274045E-016
 
 sum over diagonal and offdiagdiagonal of C(T)*S*C for irrep
                     3
  1.159072837708663E-013  9.571576859879066E-014
 reorthoganalization of MOs is carried out
 sum over diagonal and offdiagdiagonal of C(T)*S*C for irrep
                     3
  1.665334536937735E-015 -1.554644275796897E-015
 
 sum over diagonal and offdiagdiagonal of C(T)*S*C for irrep
                     4
  1.887379141862766E-015 -1.686668078153871E-014
 reorthoganalization of MOs is carried out
 sum over diagonal and offdiagdiagonal of C(T)*S*C for irrep
                     4
  6.661338147750939E-016  5.840918975699369E-016
  processed                  92373  ao basis integrals from 
                   154  buffers.
  processed                 167664  ao basis integrals from 
                   280  buffers.
  processed                 304283  ao basis integrals from 
                   508  buffers.
       5          -356.457513978127736              0.4636915193D+01
   current occupation vector 
     7  2  2  0
     6  2  2  0
  processed                  92373  ao basis integrals from 
                   154  buffers.
  processed                 167664  ao basis integrals from 
                   280  buffers.
  processed                 304283  ao basis integrals from 
                   508  buffers.
       6          -382.492103985339554              0.1330361499D+01
   current occupation vector 
     7  2  2  0
     6  2  2  0
  processed                  92373  ao basis integrals from 
                   154  buffers.
  processed                 167664  ao basis integrals from 
                   280  buffers.
  processed                 304283  ao basis integrals from 
                   508  buffers.
       7          -394.055218244106186              0.1453981497D+01
   current occupation vector 
     7  2  2  0
     6  2  2  0
  processed                  92373  ao basis integrals from 
                   154  buffers.
  processed                 167664  ao basis integrals from 
                   280  buffers.
  processed                 304283  ao basis integrals from 
                   508  buffers.
       8          -392.342911956146850              0.4342686091D+00
   current occupation vector 
     7  2  2  0
     6  2  2  0
  processed                  92373  ao basis integrals from 
                   154  buffers.
  processed                 167664  ao basis integrals from 
                   280  buffers.
  processed                 304283  ao basis integrals from 
                   508  buffers.
       9          -394.733523135115604              0.4461199265D+00
   current occupation vector 
     7  2  2  0
     6  2  2  0
 
 sum over diagonal and offdiagdiagonal of C(T)*S*C for irrep
                     1
 -5.995204332975845E-015 -5.400328716971413E-014
 reorthoganalization of MOs is carried out
 sum over diagonal and offdiagdiagonal of C(T)*S*C for irrep
                     1
 -1.831867990631508E-014  5.753515814863991E-014
 
 sum over diagonal and offdiagdiagonal of C(T)*S*C for irrep
                     2
  2.720046410331634E-014 -5.373212431172530E-015
 reorthoganalization of MOs is carried out
 sum over diagonal and offdiagdiagonal of C(T)*S*C for irrep
                     2
  1.110223024625157E-015 -2.482297173569161E-015
 
 sum over diagonal and offdiagdiagonal of C(T)*S*C for irrep
                     3
  1.110223024625157E-015 -6.142871555201134E-015
 reorthoganalization of MOs is carried out
 sum over diagonal and offdiagdiagonal of C(T)*S*C for irrep
                     3
  1.332267629550188E-015 -2.357209505141796E-015
 
 sum over diagonal and offdiagdiagonal of C(T)*S*C for irrep
                     4
  1.465494392505207E-014 -1.096938837506778E-014
 reorthoganalization of MOs is carried out
 sum over diagonal and offdiagdiagonal of C(T)*S*C for irrep
                     4
 -3.330669073875470E-016 -4.688090193827321E-016
  processed                  92373  ao basis integrals from 
                   154  buffers.
  processed                 167664  ao basis integrals from 
                   280  buffers.
  processed                 304283  ao basis integrals from 
                   508  buffers.
      10          -394.755018218818066              0.6863155515D-01
   current occupation vector 
     7  2  2  0
     6  2  2  0
  processed                  92373  ao basis integrals from 
                   154  buffers.
  processed                 167664  ao basis integrals from 
                   280  buffers.
  processed                 304283  ao basis integrals from 
                   508  buffers.
      11          -394.766508414132375              0.2759829852D-01
   current occupation vector 
     7  2  2  0
     6  2  2  0
  processed                  92373  ao basis integrals from 
                   154  buffers.
  processed                 167664  ao basis integrals from 
                   280  buffers.
  processed                 304283  ao basis integrals from 
                   508  buffers.
      12          -394.773410987690795              0.2068808113D-01
   current occupation vector 
     7  2  2  0
     6  2  2  0
  processed                  92373  ao basis integrals from 
                   154  buffers.
  processed                 167664  ao basis integrals from 
                   280  buffers.
  processed                 304283  ao basis integrals from 
                   508  buffers.
      13          -394.775162570789291              0.1102218705D-01
   current occupation vector 
     7  2  2  0
     6  2  2  0
  processed                  92373  ao basis integrals from 
                   154  buffers.
  processed                 167664  ao basis integrals from 
                   280  buffers.
  processed                 304283  ao basis integrals from 
                   508  buffers.
      14          -394.775188895514134              0.4245813938D-02
   current occupation vector 
     7  2  2  0
     6  2  2  0
 
 sum over diagonal and offdiagdiagonal of C(T)*S*C for irrep
                     1
  1.643130076445232E-014 -8.995279682879477E-014
 reorthoganalization of MOs is carried out
 sum over diagonal and offdiagdiagonal of C(T)*S*C for irrep
                     1
  4.662936703425657E-015 -2.772956279210241E-014
 
 sum over diagonal and offdiagdiagonal of C(T)*S*C for irrep
                     2
 -5.995204332975845E-015  1.470723807726654E-014
 reorthoganalization of MOs is carried out
 sum over diagonal and offdiagdiagonal of C(T)*S*C for irrep
                     2
 -1.332267629550188E-015 -1.361572923482216E-015
 
 sum over diagonal and offdiagdiagonal of C(T)*S*C for irrep
                     3
  2.098321516541546E-014  6.520482796839422E-015
 reorthoganalization of MOs is carried out
 sum over diagonal and offdiagdiagonal of C(T)*S*C for irrep
                     3
  1.110223024625157E-016  4.428377987431982E-016
 
 sum over diagonal and offdiagdiagonal of C(T)*S*C for irrep
                     4
 -1.854072451124011E-014  1.891444900009587E-015
 reorthoganalization of MOs is carried out
 sum over diagonal and offdiagdiagonal of C(T)*S*C for irrep
                     4
 -4.440892098500626E-016  5.216367702370883E-016
  processed                  92373  ao basis integrals from 
                   154  buffers.
  processed                 167664  ao basis integrals from 
                   280  buffers.
  processed                 304283  ao basis integrals from 
                   508  buffers.
      15          -394.775224369660350              0.3275807088D-02
   current occupation vector 
     7  2  2  0
     6  2  2  0
  processed                  92373  ao basis integrals from 
                   154  buffers.
  processed                 167664  ao basis integrals from 
                   280  buffers.
  processed                 304283  ao basis integrals from 
                   508  buffers.
      16          -394.775231556692177              0.8137439356D-03
   current occupation vector 
     7  2  2  0
     6  2  2  0
  processed                  92373  ao basis integrals from 
                   154  buffers.
  processed                 167664  ao basis integrals from 
                   280  buffers.
  processed                 304283  ao basis integrals from 
                   508  buffers.
      17          -394.775231706566558              0.1912162586D-03
   current occupation vector 
     7  2  2  0
     6  2  2  0
  processed                  92373  ao basis integrals from 
                   154  buffers.
  processed                 167664  ao basis integrals from 
                   280  buffers.
  processed                 304283  ao basis integrals from 
                   508  buffers.
      18          -394.775231724988942              0.5936232901D-04
   current occupation vector 
     7  2  2  0
     6  2  2  0
  processed                  92373  ao basis integrals from 
                   154  buffers.
  processed                 167664  ao basis integrals from 
                   280  buffers.
  processed                 304283  ao basis integrals from 
                   508  buffers.
      19          -394.775231725155436              0.4951948751D-05
   current occupation vector 
     7  2  2  0
     6  2  2  0
 
 sum over diagonal and offdiagdiagonal of C(T)*S*C for irrep
                     1
  1.521005543736464E-013  9.554304114230840E-014
 reorthoganalization of MOs is carried out
 sum over diagonal and offdiagdiagonal of C(T)*S*C for irrep
                     1
 -2.886579864025407E-015 -8.311083320564997E-014
 
 sum over diagonal and offdiagdiagonal of C(T)*S*C for irrep
                     2
  2.731148640577885E-014  5.265155897974251E-015
 reorthoganalization of MOs is carried out
 sum over diagonal and offdiagdiagonal of C(T)*S*C for irrep
                     2
  5.551115123125783E-016  2.811317385018909E-015
 
 sum over diagonal and offdiagdiagonal of C(T)*S*C for irrep
                     3
  4.429789868254375E-014  9.380705260918966E-015
 reorthoganalization of MOs is carried out
 sum over diagonal and offdiagdiagonal of C(T)*S*C for irrep
                     3
  1.665334536937735E-015  1.234146007654292E-015
 
 sum over diagonal and offdiagdiagonal of C(T)*S*C for irrep
                     4
  1.776356839400250E-014 -2.645019619995637E-015
 reorthoganalization of MOs is carried out
 sum over diagonal and offdiagdiagonal of C(T)*S*C for irrep
                     4
  7.771561172376096E-016  6.840502556754169E-016
  processed                  92373  ao basis integrals from 
                   154  buffers.
  processed                 167664  ao basis integrals from 
                   280  buffers.
  processed                 304283  ao basis integrals from 
                   508  buffers.
      20          -394.775231725160268              0.4752927263D-06
   current occupation vector 
     7  2  2  0
     6  2  2  0
  processed                  92373  ao basis integrals from 
                   154  buffers.
  processed                 167664  ao basis integrals from 
                   280  buffers.
  processed                 304283  ao basis integrals from 
                   508  buffers.
      21          -394.775231725161973              0.2589672248D-06
   current occupation vector 
     7  2  2  0
     6  2  2  0
  processed                  92373  ao basis integrals from 
                   154  buffers.
  processed                 167664  ao basis integrals from 
                   280  buffers.
  processed                 304283  ao basis integrals from 
                   508  buffers.
      22          -394.775231725161575              0.2726675274D-07
   current occupation vector 
     7  2  2  0
     6  2  2  0
  processed                  92373  ao basis integrals from 
                   154  buffers.
  processed                 167664  ao basis integrals from 
                   280  buffers.
  processed                 304283  ao basis integrals from 
                   508  buffers.
      23          -394.775231725161291              0.1378016878D-07
   current occupation vector 
     7  2  2  0
     6  2  2  0
  processed                  92373  ao basis integrals from 
                   154  buffers.
  processed                 167664  ao basis integrals from 
                   280  buffers.
  processed                 304283  ao basis integrals from 
                   508  buffers.
      24          -394.775231725162257              0.4708545887D-08
   current occupation vector 
     7  2  2  0
     6  2  2  0
 
 sum over diagonal and offdiagdiagonal of C(T)*S*C for irrep
                     1
  7.804867863114850E-014 -8.571099708640299E-014
 reorthoganalization of MOs is carried out
 sum over diagonal and offdiagdiagonal of C(T)*S*C for irrep
                     1
 -1.332267629550188E-015  4.848635899652431E-014
 
 sum over diagonal and offdiagdiagonal of C(T)*S*C for irrep
                     2
  2.098321516541546E-014  2.517937130375148E-014
 reorthoganalization of MOs is carried out
 sum over diagonal and offdiagdiagonal of C(T)*S*C for irrep
                     2
  3.330669073875470E-016  4.904540834349951E-015
 
 sum over diagonal and offdiagdiagonal of C(T)*S*C for irrep
                     3
  1.709743457922741E-014  3.167398291030798E-014
 reorthoganalization of MOs is carried out
 sum over diagonal and offdiagdiagonal of C(T)*S*C for irrep
                     3
 -1.665334536937735E-015 -3.553734406441589E-015
 
 sum over diagonal and offdiagdiagonal of C(T)*S*C for irrep
                     4
  1.021405182655144E-014 -5.218671631987415E-015
 reorthoganalization of MOs is carried out
 sum over diagonal and offdiagdiagonal of C(T)*S*C for irrep
                     4
  2.220446049250313E-016  2.597612880003708E-016
  processed                  92373  ao basis integrals from 
                   154  buffers.
  processed                 167664  ao basis integrals from 
                   280  buffers.
  processed                 304283  ao basis integrals from 
                   508  buffers.
      25          -394.775231725161802              0.1121847448D-08
   current occupation vector 
     7  2  2  0
     6  2  2  0
  processed                  92373  ao basis integrals from 
                   154  buffers.
  processed                 167664  ao basis integrals from 
                   280  buffers.
  processed                 304283  ao basis integrals from 
                   508  buffers.
      26          -394.775231725161177              0.4269211373D-09
   current occupation vector 
     7  2  2  0
     6  2  2  0
  processed                  92373  ao basis integrals from 
                   154  buffers.
  processed                 167664  ao basis integrals from 
                   280  buffers.
  processed                 304283  ao basis integrals from 
                   508  buffers.
      27          -394.775231725161632              0.9045508786D-10
   current occupation vector 
     7  2  2  0
     6  2  2  0
  processed                  92373  ao basis integrals from 
                   154  buffers.
  processed                 167664  ao basis integrals from 
                   280  buffers.
  processed                 304283  ao basis integrals from 
                   508  buffers.
      28          -394.775231725162371              0.6162848010D-11
   current occupation vector 
     7  2  2  0
     6  2  2  0
  processed                  92373  ao basis integrals from 
                   154  buffers.
  processed                 167664  ao basis integrals from 
                   280  buffers.
  processed                 304283  ao basis integrals from 
                   508  buffers.
      29          -394.775231725161689              0.2951444644D-11
   current occupation vector 
     7  2  2  0
     6  2  2  0
 
 sum over diagonal and offdiagdiagonal of C(T)*S*C for irrep
                     1
  9.980904991380157E-014 -1.739623950551838E-014
 reorthoganalization of MOs is carried out
 sum over diagonal and offdiagdiagonal of C(T)*S*C for irrep
                     1
  3.397282455352979E-014 -6.020967526625619E-015
 
 sum over diagonal and offdiagdiagonal of C(T)*S*C for irrep
                     2
  4.052314039881821E-014 -9.743054267802876E-015
 reorthoganalization of MOs is carried out
 sum over diagonal and offdiagdiagonal of C(T)*S*C for irrep
                     2
 -1.887379141862766E-015  5.073105684809433E-015
 
 sum over diagonal and offdiagdiagonal of C(T)*S*C for irrep
                     3
 -2.076117056049043E-014 -1.455737701261539E-014
 reorthoganalization of MOs is carried out
 sum over diagonal and offdiagdiagonal of C(T)*S*C for irrep
                     3
 -2.109423746787797E-015  2.075059725994870E-016
 
 sum over diagonal and offdiagdiagonal of C(T)*S*C for irrep
                     4
  5.107025913275720E-015 -1.130999048755410E-015
 reorthoganalization of MOs is carried out
 sum over diagonal and offdiagdiagonal of C(T)*S*C for irrep
                     4
  1.110223024625157E-016  1.508531797742019E-016
  processed                  92373  ao basis integrals from 
                   154  buffers.
  processed                 167664  ao basis integrals from 
                   280  buffers.
  processed                 304283  ao basis integrals from 
                   508  buffers.
      30          -394.775231725161404              0.1391803339D-11
   current occupation vector 
     7  2  2  0
     6  2  2  0

  SCF has converged.

 Density matrix saved to file den.dat
 total alpha spin electron number:   11.0000000000000     
 total  beta spin electron number:   10.0000000000000     
  processed                  92373  ao basis integrals from 
                   154  buffers.
  processed                 167664  ao basis integrals from 
                   280  buffers.
  processed                 304283  ao basis integrals from 
                   508  buffers.
     E(ROHF)=      -394.775231725160722              0.2240985175D-12


  Final occupancies:

     Alpha population by irrep:   7    2    2    0
      Beta population by irrep:   6    2    2    0



       The average multiplicity is    2.0000000
  The expectation value of S**2 is    0.7500000

 @PUTMOS-I, Writing converged MOs to NEWMOS. 
 @PUTMOS-I, Symmetry   1 Full Blocks  8 Partial Blocksize   0
 @PUTMOS-I, Symmetry   2 Full Blocks  4 Partial Blocksize   1
 @PUTMOS-I, Symmetry   3 Full Blocks  4 Partial Blocksize   1
 @PUTMOS-I, Symmetry   4 Full Blocks  1 Partial Blocksize   3
  @DMPJOB-I, Rotating orbitals to semicanonical basis.
             *** Eigenvalues correspond to new basis. ***

--------------------------------------------------------------------------------
Eigenvalue    -80.375380    -15.983714     -7.910358     -5.804694     -5.798937
 Symmetry         SG+           SG+           SG+           SG+            PI    
--------------------------------------------------------------------------------
   1 S         0.9977771     0.0000158     0.2823064     0.0005561     0.0000000
   1 S        -0.0271848    -0.0000818     0.2753541     0.0009352     0.0000000
   1 S        -0.0073974    -0.0001277    -0.7813200    -0.0021200     0.0000000
   1 S         0.0038115     0.0000908    -0.0103755     0.0029026     0.0000000
   1 S         0.0025866     0.0029993     0.0017139    -0.0068081     0.0000000
   1 PX        0.0000000     0.0000000     0.0000000     0.0000000     0.0000000
   1 PY        0.0000000     0.0000000     0.0000000     0.0000000     0.7174839
   1 PZ       -0.0001500    -0.0000717     0.0005766    -0.7182510     0.0000000
   1 PX        0.0000000     0.0000000     0.0000000     0.0000000     0.0000000
   1 PY        0.0000000     0.0000000     0.0000000     0.0000000     0.3490457
   1 PZ        0.0002832     0.0000915     0.0009910    -0.3475038     0.0000000
   1 PX        0.0000000     0.0000000     0.0000000     0.0000000     0.0000000
   1 PY        0.0000000     0.0000000     0.0000000     0.0000000     0.0587236
   1 PZ       -0.0001570     0.0000371    -0.0004604    -0.0598483     0.0000000
   1 PX        0.0000000     0.0000000     0.0000000     0.0000000     0.0000000
   1 PY        0.0000000     0.0000000     0.0000000     0.0000000    -0.0078558
   1 PZ       -0.0039109    -0.0011773     0.0007466     0.0097916     0.0000000
   1 PX        0.0000000     0.0000000     0.0000000     0.0000000     0.0000000
   1 PY        0.0000000     0.0000000     0.0000000     0.0000000     0.0023402
   1 PZ       -0.0007485    -0.0011821    -0.0001710     0.0003864     0.0000000
   1 DX2      -0.0004759    -0.0001867     0.0001369     0.0005101     0.0000000
   1 DXY       0.0000000     0.0000000     0.0000000     0.0000000     0.0000000
   1 DXZ       0.0000000     0.0000000     0.0000000     0.0000000     0.0000000
   1 DY2      -0.0004759    -0.0001867     0.0001369     0.0005101     0.0000000
   1 DYZ       0.0000000     0.0000000     0.0000000     0.0000000     0.0001777
   1 DZZ       0.0009517     0.0003733    -0.0002737    -0.0010202     0.0000000
   1 DX2       0.0000423     0.0000182    -0.0001229    -0.0000676     0.0000000
   1 DXY       0.0000000     0.0000000     0.0000000     0.0000000     0.0000000
   1 DXZ       0.0000000     0.0000000     0.0000000     0.0000000     0.0000000
   1 DY2       0.0000423     0.0000182    -0.0001229    -0.0000676     0.0000000
   1 DYZ       0.0000000     0.0000000     0.0000000     0.0000000    -0.0001855
   1 DZZ      -0.0000847    -0.0000364     0.0002458     0.0001352     0.0000000
   1 DX2      -0.0002767    -0.0000869    -0.0000291    -0.0002540     0.0000000
   1 DXY       0.0000000     0.0000000     0.0000000     0.0000000     0.0000000
   1 DXZ       0.0000000     0.0000000     0.0000000     0.0000000     0.0000000
   1 DY2      -0.0002767    -0.0000869    -0.0000291    -0.0002540     0.0000000
   1 DYZ       0.0000000     0.0000000     0.0000000     0.0000000     0.0003980
   1 DZZ       0.0005535     0.0001739     0.0000582     0.0005080     0.0000000
   1 FX3       0.0000000     0.0000000     0.0000000     0.0000000     0.0000000
   1 FX2Y      0.0000000     0.0000000     0.0000000     0.0000000     0.0000161
   1 FX2Z      0.0003168     0.0001407    -0.0001234     0.0000916     0.0000000
   1 FXY2      0.0000000     0.0000000     0.0000000     0.0000000     0.0000000
   1 FXYZ      0.0000000     0.0000000     0.0000000     0.0000000     0.0000000
   1 FXZ2      0.0000000     0.0000000     0.0000000     0.0000000     0.0000000
   1 FY3       0.0000000     0.0000000     0.0000000     0.0000000     0.0000161
   1 FY2Z      0.0003168     0.0001407    -0.0001234     0.0000916     0.0000000
   1 FYZ2      0.0000000     0.0000000     0.0000000     0.0000000    -0.0000645
   1 FZ3      -0.0002112    -0.0000938     0.0000823    -0.0000611     0.0000000
   2 S         0.0000166    -0.4490112     0.0002198    -0.0005698     0.0000000
   2 S        -0.0000627    -0.6303449     0.0004748    -0.0011833     0.0000000
   2 S         0.0011385    -0.0189247    -0.0003138     0.0018366     0.0000000
   2 S        -0.0041579     0.0052020    -0.0000032     0.0007815     0.0000000
   2 S        -0.0026982    -0.0053164    -0.0005923     0.0066623     0.0000000
   2 PX        0.0000000     0.0000000     0.0000000     0.0000000     0.0000000
   2 PY        0.0000000     0.0000000     0.0000000     0.0000000     0.0001968
   2 PZ        0.0003278     0.0003274    -0.0005005     0.0015127     0.0000000
   2 PX        0.0000000     0.0000000     0.0000000     0.0000000     0.0000000
   2 PY        0.0000000     0.0000000     0.0000000     0.0000000     0.0006662
   2 PZ       -0.0030957    -0.0012142    -0.0007110     0.0010754     0.0000000
   2 PX        0.0000000     0.0000000     0.0000000     0.0000000     0.0000000
   2 PY        0.0000000     0.0000000     0.0000000     0.0000000    -0.0000999
   2 PZ       -0.0012328    -0.0011049    -0.0000912     0.0033072     0.0000000
   2 DX2      -0.0000020     0.0000373     0.0000499    -0.0000782     0.0000000
   2 DXY       0.0000000     0.0000000     0.0000000     0.0000000     0.0000000
   2 DXZ       0.0000000     0.0000000     0.0000000     0.0000000     0.0000000
   2 DY2      -0.0000020     0.0000373     0.0000499    -0.0000782     0.0000000
   2 DYZ       0.0000000     0.0000000     0.0000000     0.0000000     0.0000488
   2 DZZ       0.0000040    -0.0000747    -0.0000997     0.0001564     0.0000000
   2 DX2       0.0003781     0.0001249     0.0001675    -0.0000049     0.0000000
   2 DXY       0.0000000     0.0000000     0.0000000     0.0000000     0.0000000
   2 DXZ       0.0000000     0.0000000     0.0000000     0.0000000     0.0000000
   2 DY2       0.0003781     0.0001249     0.0001675    -0.0000049     0.0000000
   2 DYZ       0.0000000     0.0000000     0.0000000     0.0000000     0.0003305
   2 DZZ      -0.0007563    -0.0002498    -0.0003349     0.0000098     0.0000000
   2 FX3       0.0000000     0.0000000     0.0000000     0.0000000     0.0000000
   2 FX2Y      0.0000000     0.0000000     0.0000000     0.0000000    -0.0000023
   2 FX2Z      0.0001027     0.0000449     0.0001616    -0.0001496     0.0000000
   2 FXY2      0.0000000     0.0000000     0.0000000     0.0000000     0.0000000
   2 FXYZ      0.0000000     0.0000000     0.0000000     0.0000000     0.0000000
   2 FXZ2      0.0000000     0.0000000     0.0000000     0.0000000     0.0000000
   2 FY3       0.0000000     0.0000000     0.0000000     0.0000000    -0.0000023
   2 FY2Z      0.0001027     0.0000449     0.0001616    -0.0001496     0.0000000
   2 FYZ2      0.0000000     0.0000000     0.0000000     0.0000000     0.0000093
   2 FZ3      -0.0000685    -0.0000299    -0.0001077     0.0000998     0.0000000
--------------------------------------------------------------------------------
Eigenvalue     -5.798937     -1.505700     -1.055613     -0.854622     -0.791371
 Symmetry          PI           SG+           SG+           SG+            PI    
--------------------------------------------------------------------------------
   1 S         0.0000000     0.0368993     0.0545951     0.0433568     0.0000000
   1 S         0.0000000     0.0399709     0.0598102     0.0471151     0.0000000
   1 S         0.0000000    -0.2044175    -0.3180406    -0.2601087     0.0000000
   1 S         0.0000000     0.2992576     0.5376913     0.4495941     0.0000000
   1 S         0.0000000     0.0760340     0.1990926     0.3730514     0.0000000
   1 PX        0.7174839     0.0000000     0.0000000     0.0000000     0.0000000
   1 PY        0.0000000     0.0000000     0.0000000     0.0000000     0.1085896
   1 PZ        0.0000000     0.0694458     0.0144482    -0.1396036     0.0000000
   1 PX        0.3490457     0.0000000     0.0000000     0.0000000     0.0000000
   1 PY        0.0000000     0.0000000     0.0000000     0.0000000     0.0568980
   1 PZ        0.0000000     0.0375765     0.0085097    -0.0747951     0.0000000
   1 PX        0.0587236     0.0000000     0.0000000     0.0000000     0.0000000
   1 PY        0.0000000     0.0000000     0.0000000     0.0000000    -0.1303655
   1 PZ        0.0000000    -0.0710651    -0.0206527     0.1827536     0.0000000
[...]
 Printing threshold:  1.00E-02
 
    1.000000  Reference determinant                                     
    0.015736  1b -> 5b                                                  
    0.169960  2b -> 5b                                                  
    0.016140  2b -> 15b                                                 
    0.089107  4b -> 7b                                                  
    0.022295  4b -> 11b                                                 
    0.089107  3b -> 6b                                                  
    0.022295  3b -> 10b                                                 
   -0.017410  5a -> 8a                                                  
   -0.023561  5a -> 14a                                                 
    0.017475  4a -> 7a                                                  
    0.011626  4a -> 11a                                                 
   -0.030641  4a -> 16a                                                 
   -0.015969  4a -> 18a                                                 
   -0.011841  4a -> 24a                                                 
   -0.010151  4a -> 44a                                                 
    0.017475  3a -> 6a                                                  
    0.011626  3a -> 10a                                                 
   -0.030641  3a -> 17a                                                 
   -0.015969  3a -> 19a                                                 
   -0.011841  3a -> 25a                                                 
   -0.010151  3a -> 43a                                                 
   -0.010288  1b 2b -> 5b 8b                                            
    0.050915  2b 4b -> 5b 7b                                            
   -0.013907  2b 4b -> 7b 8b                                            
    0.017067  2b 4b -> 7b 9b                                            
    0.011692  2b 4b -> 5b 11b                                           
   -0.016082  2b 4b -> 6b 12b                                           
   -0.016082  2b 4b -> 7b 13b                                           
    0.050915  2b 3b -> 5b 6b                                            
   -0.013907  2b 3b -> 6b 8b                                            
    0.017067  2b 3b -> 6b 9b                                            
    0.011692  2b 3b -> 5b 10b                                           
   -0.016082  2b 3b -> 7b 12b                                           
    0.016082  2b 3b -> 6b 13b                                           
   -0.054530  3b 4b -> 6b 7b                                            
   -0.019193  3b 4b -> 12b 13b                                          
   -0.014898  3b 4b -> 6b 18b                                           
    0.014898  3b 4b -> 7b 19b                                           
    0.010114  3b 4b -> 18b 19b                                          
   -0.013325  3b 4b -> 22b 23b                                          
   -0.010562  1a 1b -> 8a 8b                                            
   -0.011211  2a 1b -> 15a 5b                                           
   -0.011129  2a 1b -> 21a 5b                                           
   -0.016403  5a 1b -> 8a 5b                                            
   -0.010428  5a 1b -> 20a 5b                                           
   -0.011237  5a 1b -> 28a 5b                                           
    0.014584  2a 2b -> 9a 5b                                            
    0.018667  2a 2b -> 14a 5b                                           
   -0.011846  2a 2b -> 8a 8b                                            
   -0.011197  2a 2b -> 9a 9b                                            
   -0.011445  2a 2b -> 8a 14b                                           
   -0.016393  2a 2b -> 14a 14b                                          
   -0.046842  5a 2b -> 8a 5b                                            
    0.022881  5a 2b -> 9a 5b                                            
   -0.036055  5a 2b -> 14a 5b                                           
   -0.019351  5a 2b -> 15a 5b                                           
   -0.021536  5a 2b -> 8a 8b                                            
   -0.012758  5a 2b -> 14a 8b                                           
    0.015674  5a 2b -> 8a 9b                                            
   -0.022742  5a 2b -> 9a 9b                                            
    0.010847  5a 2b -> 14a 9b                                           
   -0.011277  5a 2b -> 13a 13b                                          
   -0.012225  5a 2b -> 8a 15b                                           
   -0.012002  4a 4b -> 8a 8b                                            
   -0.013132  4a 4b -> 13a 13b                                          
   -0.012512  4a 4b -> 23a 23b                                          
   -0.012002  3a 3b -> 8a 8b                                            
   -0.013132  3a 3b -> 13a 13b                                          
   -0.012512  3a 3b -> 23a 23b                                          
   -0.010241  5a 1b -> 7a 7b                                            
   -0.048206  2a 2b -> 7a 7b                                            
   -0.016191  2a 2b -> 11a 7b                                           
   -0.014879  2a 2b -> 7a 11b                                           
   -0.011477  2a 2b -> 16a 16b                                          
   -0.053861  5a 2b -> 7a 7b                                            
   -0.010771  5a 2b -> 11a 7b                                           
    0.030941  5a 2b -> 16a 7b                                           
    0.010525  5a 2b -> 24a 7b                                           
   -0.016595  5a 2b -> 7a 11b                                           
    0.024710  5a 2b -> 7a 16b                                           
   -0.124282  4a 4b -> 7a 7b                                            
   -0.021540  4a 4b -> 11a 7b                                           
   -0.031580  4a 4b -> 16a 7b                                           
   -0.033639  4a 4b -> 18a 7b                                           
   -0.022775  4a 4b -> 7a 11b                                           
   -0.013474  4a 4b -> 11a 11b                                          
   -0.031275  4a 4b -> 7a 16b                                           
   -0.010420  4a 4b -> 11a 16b                                          
   -0.021359  4a 4b -> 16a 16b                                          
   -0.037270  4a 4b -> 7a 18b                                           
   -0.012918  4a 4b -> 16a 18b                                          
   -0.020216  4a 4b -> 18a 18b                                          
   -0.013152  3a 3b -> 7a 7b                                            
   -0.010241  5a 1b -> 6a 6b                                            
   -0.048206  2a 2b -> 6a 6b                                            
   -0.016191  2a 2b -> 10a 6b                                           
   -0.014879  2a 2b -> 6a 10b                                           
   -0.011477  2a 2b -> 17a 17b                                          
   -0.053861  5a 2b -> 6a 6b                                            
   -0.010771  5a 2b -> 10a 6b                                           
    0.030941  5a 2b -> 17a 6b                                           
    0.010525  5a 2b -> 25a 6b                                           
   -0.016595  5a 2b -> 6a 10b                                           
    0.024710  5a 2b -> 6a 17b                                           
   -0.013152  4a 4b -> 6a 6b                                            
   -0.124282  3a 3b -> 6a 6b                                            
   -0.021540  3a 3b -> 10a 6b                                           
   -0.031580  3a 3b -> 17a 6b                                           
   -0.033639  3a 3b -> 19a 6b                                           
   -0.022775  3a 3b -> 6a 10b                                           
   -0.013474  3a 3b -> 10a 10b                                          
   -0.031275  3a 3b -> 6a 17b                                           
   -0.010420  3a 3b -> 10a 17b                                          
   -0.021359  3a 3b -> 17a 17b                                          
   -0.037270  3a 3b -> 6a 19b                                           
   -0.012918  3a 3b -> 17a 19b                                          
   -0.020216  3a 3b -> 19a 19b                                          
   -0.011277  5a 2b -> 12a 12b                                          
   -0.013132  4a 4b -> 12a 12b                                          
   -0.012512  4a 4b -> 22a 22b                                          
   -0.013132  3a 3b -> 12a 12b                                          
   -0.012512  3a 3b -> 22a 22b                                          
   -0.017562  1a 4b -> 8a 7b                                            
   -0.011050  1a 4b -> 15a 7b                                           
   -0.011216  1a 4b -> 21a 7b                                           
   -0.011373  1a 4b -> 8a 18b                                           
   -0.017948  2a 4b -> 14a 7b                                           
   -0.010627  2a 4b -> 14a 16b                                          
   -0.011535  2a 4b -> 14a 18b                                          
    0.019738  5a 4b -> 8a 7b                                            
   -0.011654  5a 4b -> 13a 7b                                           
    0.014889  5a 4b -> 14a 7b                                           
    0.018418  5a 4b -> 21a 7b                                           
   -0.012241  4a 1b -> 8a 7b                                            
   -0.010744  4a 1b -> 23a 7b                                           
   -0.014216  4a 2b -> 8a 7b                                            
   -0.026389  4a 2b -> 13a 7b                                           
   -0.010743  4a 2b -> 14a 7b                                           
   -0.017033  1a 4b -> 7a 5b                                            
   -0.013233  1a 4b -> 16a 5b                                           
    0.063968  2a 4b -> 7a 5b                                            
    0.012586  2a 4b -> 16a 5b                                           
    0.012052  2a 4b -> 18a 5b                                           
   -0.021023  2a 4b -> 7a 8b                                            
   -0.019713  2a 4b -> 7a 13b                                           
   -0.026735  2a 4b -> 7a 14b                                           
   -0.029150  5a 4b -> 7a 5b                                            
   -0.020875  5a 4b -> 16a 5b                                           
   -0.024300  5a 4b -> 7a 13b                                           
   -0.013090  4a 1b -> 11a 5b                                           
   -0.020185  4a 1b -> 16a 5b                                           
   -0.016612  4a 1b -> 24a 5b                                           
   -0.014943  4a 1b -> 7a 8b                                            
   -0.011003  4a 1b -> 18a 8b                                           
   -0.010194  4a 1b -> 7a 15b                                           
    0.088262  4a 2b -> 7a 5b                                            
    0.016102  4a 2b -> 11a 5b                                           
    0.013700  4a 2b -> 18a 5b                                           
   -0.012310  4a 2b -> 7a 9b                                            
   -0.012754  4a 2b -> 7a 13b                                           
   -0.023862  4a 2b -> 7a 14b                                           
   -0.019713  2a 4b -> 6a 12b                                           
   -0.024300  5a 4b -> 6a 12b                                           
   -0.012754  4a 2b -> 6a 12b                                           
   -0.011654  5a 4b -> 12a 6b                                           
   -0.010744  4a 1b -> 22a 6b                                           
   -0.026389  4a 2b -> 12a 6b                                           
   -0.017562  1a 3b -> 8a 6b                                            
   -0.011050  1a 3b -> 15a 6b                                           
   -0.011216  1a 3b -> 21a 6b                                           
   -0.011373  1a 3b -> 8a 19b                                           
   -0.017948  2a 3b -> 14a 6b                                           
   -0.010627  2a 3b -> 14a 17b                                          
   -0.011535  2a 3b -> 14a 19b                                          
    0.019738  5a 3b -> 8a 6b                                            
    0.011654  5a 3b -> 13a 6b                                           
    0.014889  5a 3b -> 14a 6b                                           
    0.018418  5a 3b -> 21a 6b                                           
   -0.012241  3a 1b -> 8a 6b                                            
    0.010744  3a 1b -> 23a 6b                                           
   -0.014216  3a 2b -> 8a 6b                                            
    0.026389  3a 2b -> 13a 6b                                           
   -0.010743  3a 2b -> 14a 6b                                           
   -0.019713  2a 3b -> 7a 12b                                           
   -0.024300  5a 3b -> 7a 12b                                           
   -0.012754  3a 2b -> 7a 12b                                           
   -0.017033  1a 3b -> 6a 5b                                            
   -0.013233  1a 3b -> 17a 5b                                           
    0.063968  2a 3b -> 6a 5b                                            
    0.012586  2a 3b -> 17a 5b                                           
    0.012052  2a 3b -> 19a 5b                                           
   -0.021023  2a 3b -> 6a 8b                                            
    0.019713  2a 3b -> 6a 13b                                           
   -0.026735  2a 3b -> 6a 14b                                           
   -0.029150  5a 3b -> 6a 5b                                            
   -0.020875  5a 3b -> 17a 5b                                           
    0.024300  5a 3b -> 6a 13b                                           
   -0.013090  3a 1b -> 10a 5b                                           
   -0.020185  3a 1b -> 17a 5b                                           
   -0.016612  3a 1b -> 25a 5b                                           
   -0.014943  3a 1b -> 6a 8b                                            
   -0.011003  3a 1b -> 19a 8b                                           
   -0.010194  3a 1b -> 6a 15b                                           
    0.088262  3a 2b -> 6a 5b                                            
    0.016102  3a 2b -> 10a 5b                                           
    0.013700  3a 2b -> 19a 5b                                           
   -0.012310  3a 2b -> 6a 9b                                            
    0.012754  3a 2b -> 6a 13b                                           
   -0.023862  3a 2b -> 6a 14b                                           
   -0.011654  5a 3b -> 12a 7b                                           
   -0.010744  3a 1b -> 22a 7b                                           
   -0.026389  3a 2b -> 12a 7b                                           
   -0.077782  4a 3b -> 7a 6b                                            
   -0.013058  4a 3b -> 11a 6b                                           
   -0.017115  4a 3b -> 16a 6b                                           
   -0.021447  4a 3b -> 18a 6b                                           
   -0.013886  4a 3b -> 7a 10b                                           
   -0.010242  4a 3b -> 11a 10b                                          
   -0.016085  4a 3b -> 7a 17b                                           
   -0.013287  4a 3b -> 16a 17b                                          
   -0.022889  4a 3b -> 7a 19b                                           
   -0.014022  4a 3b -> 18a 19b                                          
   -0.033348  3a 4b -> 7a 6b                                            
   -0.010344  3a 4b -> 7a 17b                                           
   -0.033348  4a 3b -> 6a 7b                                            
   -0.010344  4a 3b -> 6a 16b                                           
   -0.077782  3a 4b -> 6a 7b                                            
   -0.013058  3a 4b -> 10a 7b                                           
   -0.017115  3a 4b -> 17a 7b                                           
   -0.021447  3a 4b -> 19a 7b                                           
   -0.013886  3a 4b -> 6a 11b                                           
   -0.010242  3a 4b -> 10a 11b                                          
   -0.016085  3a 4b -> 6a 16b                                           
   -0.013287  3a 4b -> 17a 16b                                          
   -0.022889  3a 4b -> 6a 18b                                           
   -0.014022  3a 4b -> 19a 18b                                          
   -0.010034  2a 4a -> 6a 12a                                           
   -0.010034  2a 4a -> 7a 13a                                           
    0.026862  4a 5a -> 7a 8a                                            
   -0.010529  4a 5a -> 7a 9a                                            
    0.010958  4a 5a -> 6a 12a                                           
    0.010958  4a 5a -> 7a 13a                                           
    0.016264  4a 5a -> 7a 14a                                           
    0.011500  4a 5a -> 7a 21a                                           
   -0.010034  2a 3a -> 7a 12a                                           
    0.010034  2a 3a -> 6a 13a                                           
    0.026862  3a 5a -> 6a 8a                                            
   -0.010529  3a 5a -> 6a 9a                                            
    0.010958  3a 5a -> 7a 12a                                           
   -0.010958  3a 5a -> 6a 13a                                           
    0.016264  3a 5a -> 6a 14a                                           
    0.011500  3a 5a -> 6a 21a                                           
   -0.039407  3a 4a -> 6a 7a                                            
   -0.016226  3a 4a -> 12a 13a                                          
   -0.012547  3a 4a -> 6a 18a                                           
    0.012547  3a 4a -> 7a 19a                                           
    0.010144  3a 4a -> 18a 19a                                          
   -0.014635  3a 4a -> 22a 23a                                          
    0.020499  3a 3b 4b -> 6a 6b 7b                                      
    0.020499  4a 3b 4b -> 7a 6b 7b                                      
    0.017120  3a 4a 3b -> 6a 7a 6b                                      
    0.017120  3a 4a 4b -> 6a 7a 7b                                      
 
 ************************ 2019-09-06 07:33:25 *************************
                      Normal termination of mrcc.
 **********************************************************************
--executable dmrcc finished with status     0 in    34015.91 seconds (walltime).
  The final electronic energy is      -395.116895292227127 a.u. 
  This computation required                        34031.45 seconds (walltime).
--- SharcNET Job Epilogue ---
Job completed successfully.
               jobid: 1798833
               resid: 3275740
         exit status: 0
      allocated time: 34032.6
           user time: 292005
         system time: 6197.1
peak rss=16106127360; peak vsz=16166682624 (bytes)
atime=34032.6; utime=292005; stime=6197.1; exit=0
