 **********************************************************************
                          MRCC program system
 **********************************************************************
 
                              Written by
    Mihaly Kallay, Zoltan Rolik, Jozsef Csontos, Istvan Ladjanszki,
       Lorant Szegedy, Bence Ladoczki, Gyula Samu, Klara Petrov,
        Mate Farkas, Peter Nagy, David Mester, and Bence Hegely
 
        Department of Physical Chemistry and Materials Science
            Budapest University of Technology and Economics
                  Budapest P.O.Box 91, H-1521 Hungary
 
                              www.mrcc.hu

 ************************ 2018-03-20 13:41:32 *************************
 Executing minp...

 Reading input from MINP...
 
 Input file:
 
#Li 6Z
basis=aCV6Z-KOPUT
#iface=cfour
uncontract=off
calc=CC(3)
mem=20GB
core=corr
itol=18
scftol=13
cctol=7
ccmaxit=999
scfmaxit=9999
scfiguess=ao
scftype=ROHF
rohftype=semicanonical
rest=2
#refdet=serialno
#1,2
#3,4

#symm=Ag
mult=2
occ=2,0,0,0,0,0,0,0/1,0,0,0,0,0,0,0
geom
Li

#Li 1 R

#R=3.065

#unit=angstroms

tprint=0.01
verbosity=3
nstate=20


 
 
 Checking keyword combinations...
 
 Keywords:
 
 active=none
 agrid=ld0006-ld0590
 basis=acv6z-koput
 basopt=off
 bpcompo=0.985
 bpcompv=0.98
 bpdfo=0.985
 bpocc=0.985
 bppdo=0.985
 bppdv=0.98
 bpedo=0.985
 bpedv=0.98
 calc=cc(3)
 ccmaxit=999
 ccprog=mrcc
 cctol=7
 charge=0
 cialg=disk
 ciguess=off
 cmpgrp=auto
 core=corr
 corembed=off
 dboc=off
 dendec=cholesky
 dens=0
 dfalg=invsqrt
 dfbasis_cor=none
 dfbasis_scf=none
 dfintran=ovirt
 dft=off
 diag=david
 domrad=10.d0
 drpaalg=fit
 ecp=auto
 edisp=off
 embed=off
 epert=none
 eps=0.975
 excrad=0.d0
 excrad_fin=0.000000000D+00
 freq=off
 gauss=spher
 geom=zmat
 gopt=off
 ghost=none
 gtol=7
 grtol=10
 hamilton=dc
 iface=none
 intalg=auto
 itol=18
 lcorthr=loose
 lccrest=off
 lmp2dens=on
 lnoepso=3e-5
 lnoepsv=1e-6
 localcc=off
 locintrf=disk
 maxact=off
 maxex=0
 bfbasis=none
 mem=20gb
 molden=on
 mulmet=0
 mult=2
 nacto=0
 nactv=0
 naf_cor=off
 naf_scf=off
 nafalg=albe
 naftyp=
 nchol=auto
 ndeps=1e-3
 nstate=20
 nsing=0
 ntrip=0
 occ=2,0,0,0,0,0,0,0/1,0,0,0,0,0,0,0
 optalg=
 optmaxit=50
 optetol=1e-6
 optgtol=1e-4
 optstol=1e-3
 orblocc=off
 orbloco=off
 orblocv=off
 osveps=1e-3
 ovirt=off
 ovosnorb=80.0
 ptfreq=0.0
 popul=off
 pressure=100000
 qmmm=off
 refdet=none
 rest=2
 rgrid=log3
 rohftype=semicanonical
 scspe=1.d0
 scsps=1.2d0
 scspt=0.33333333333333
 scfalg=auto
 scfdamp=off
 scfdiis=on
 scfdiis_end=9999
 scfdiis_start=1
 scfdiis_step=1
 scfdtol=17
 scfext=10
 scfiguess=ao
 scflshift=off
 scfmaxit=9999
 scftype=rohf
 scftol=13
 spairtol=1e-4
 symm=
 talg=occ
 temp=298.15
 test=off
 tprint=0.01
 uncontract=off
 unit=angs
 verbosity=3
 wpairtol=0.100000000E-05

 ************************ 2018-03-20 13:41:33 *************************
 Executing integ...

 Allocation of 20.0 Gbytes of memory...
 
 Number of atoms:            1
 Charge:                     0
 Number of electrons:        3
 Number of core electrons:   2
 Spin multiplicity:          2
 
                 Cartesian coordinates [bohr]      Atomic mass [AMU]  Z
   1  Li    0.00000000    0.00000000    0.00000000     7.016003       3
 
 This molecule is a spherical top.
 
 Rotational constants [cm-1]: 

 
 Point group: Dxh 
 Computational point group: D2h 
 
 Cartesian coordinates in standard orientation [bohr]
   1  Li    0.00000000    0.00000000    0.00000000
 
 Nuclear repulsion energy [au]:          0.000000000000
 
 
 Basis set information:
 
 Maximum angular momentum: i
 Maximum number of contracted Gaussians:   13
 Maximum number of primitive Gaussians:    22
 Spherical harmonic GTOs are used.
 
    1  Li acv6z-koput [ 22s 15p 10d 8f 6g 4h 2i | 13s 12p 10d 8f 6g 4h 2i ]
 
 Basis functions:
           1             2             3             4             5             6             7             8             9            10
   0    1Li1s         1Li2s         1Li3s         1Li4s         1Li5s         1Li6s         1Li7s         1Li8s         1Li9s         1Li10s    
   1    1Li11s        1Li12s        1Li13s        1Li1pz        1Li1py        1Li1px        1Li2pz        1Li2py        1Li2px        1Li3pz    
   2    1Li3py        1Li3px        1Li4pz        1Li4py        1Li4px        1Li5pz        1Li5py        1Li5px        1Li6pz        1Li6py    
   3    1Li6px        1Li7pz        1Li7py        1Li7px        1Li8pz        1Li8py        1Li8px        1Li9pz        1Li9py        1Li9px    
   4    1Li10pz       1Li10py       1Li10px       1Li11pz       1Li11py       1Li11px       1Li12pz       1Li12py       1Li12px       1Li1d-2   
   5    1Li1d-1       1Li1d0        1Li1d+1       1Li1d+2       1Li2d-2       1Li2d-1       1Li2d0        1Li2d+1       1Li2d+2       1Li3d-2   
   6    1Li3d-1       1Li3d0        1Li3d+1       1Li3d+2       1Li4d-2       1Li4d-1       1Li4d0        1Li4d+1       1Li4d+2       1Li5d-2   
   7    1Li5d-1       1Li5d0        1Li5d+1       1Li5d+2       1Li6d-2       1Li6d-1       1Li6d0        1Li6d+1       1Li6d+2       1Li7d-2   
   8    1Li7d-1       1Li7d0        1Li7d+1       1Li7d+2       1Li8d-2       1Li8d-1       1Li8d0        1Li8d+1       1Li8d+2       1Li9d-2   
   9    1Li9d-1       1Li9d0        1Li9d+1       1Li9d+2       1Li10d-2      1Li10d-1      1Li10d0       1Li10d+1      1Li10d+2      1Li1f-3   
  10    1Li1f-2       1Li1f-1       1Li1f0        1Li1f+1       1Li1f+2       1Li1f+3       1Li2f-3       1Li2f-2       1Li2f-1       1Li2f0    
  11    1Li2f+1       1Li2f+2       1Li2f+3       1Li3f-3       1Li3f-2       1Li3f-1       1Li3f0        1Li3f+1       1Li3f+2       1Li3f+3   
  12    1Li4f-3       1Li4f-2       1Li4f-1       1Li4f0        1Li4f+1       1Li4f+2       1Li4f+3       1Li5f-3       1Li5f-2       1Li5f-1   
  13    1Li5f0        1Li5f+1       1Li5f+2       1Li5f+3       1Li6f-3       1Li6f-2       1Li6f-1       1Li6f0        1Li6f+1       1Li6f+2   
  14    1Li6f+3       1Li7f-3       1Li7f-2       1Li7f-1       1Li7f0        1Li7f+1       1Li7f+2       1Li7f+3       1Li8f-3       1Li8f-2   
  15    1Li8f-1       1Li8f0        1Li8f+1       1Li8f+2       1Li8f+3       1Li1g-4       1Li1g-3       1Li1g-2       1Li1g-1       1Li1g0    
  16    1Li1g+1       1Li1g+2       1Li1g+3       1Li1g+4       1Li2g-4       1Li2g-3       1Li2g-2       1Li2g-1       1Li2g0        1Li2g+1   
  17    1Li2g+2       1Li2g+3       1Li2g+4       1Li3g-4       1Li3g-3       1Li3g-2       1Li3g-1       1Li3g0        1Li3g+1       1Li3g+2   
  18    1Li3g+3       1Li3g+4       1Li4g-4       1Li4g-3       1Li4g-2       1Li4g-1       1Li4g0        1Li4g+1       1Li4g+2       1Li4g+3   
  19    1Li4g+4       1Li5g-4       1Li5g-3       1Li5g-2       1Li5g-1       1Li5g0        1Li5g+1       1Li5g+2       1Li5g+3       1Li5g+4   
  20    1Li6g-4       1Li6g-3       1Li6g-2       1Li6g-1       1Li6g0        1Li6g+1       1Li6g+2       1Li6g+3       1Li6g+4       1Li1h-5   
  21    1Li1h-4       1Li1h-3       1Li1h-2       1Li1h-1       1Li1h0        1Li1h+1       1Li1h+2       1Li1h+3       1Li1h+4       1Li1h+5   
  22    1Li2h-5       1Li2h-4       1Li2h-3       1Li2h-2       1Li2h-1       1Li2h0        1Li2h+1       1Li2h+2       1Li2h+3       1Li2h+4   
  23    1Li2h+5       1Li3h-5       1Li3h-4       1Li3h-3       1Li3h-2       1Li3h-1       1Li3h0        1Li3h+1       1Li3h+2       1Li3h+3   
  24    1Li3h+4       1Li3h+5       1Li4h-5       1Li4h-4       1Li4h-3       1Li4h-2       1Li4h-1       1Li4h0        1Li4h+1       1Li4h+2   
  25    1Li4h+3       1Li4h+4       1Li4h+5       1Li1i-6       1Li1i-5       1Li1i-4       1Li1i-3       1Li1i-2       1Li1i-1       1Li1i0    
  26    1Li1i+1       1Li1i+2       1Li1i+3       1Li1i+4       1Li1i+5       1Li1i+6       1Li2i-6       1Li2i-5       1Li2i-4       1Li2i-3   
  27    1Li2i-2       1Li2i-1       1Li2i0        1Li2i+1       1Li2i+2       1Li2i+3       1Li2i+4       1Li2i+5       1Li2i+6   
 
 Maximum number of basis functions per shell:   56
 Total number of basis functions:   279
 
 
 Character table for point group D2h:
 
          E  C2z C2y C2x  i  Qxy Qxz Qyz 
    Ag    1   1   1   1   1   1   1   1
    B1g   1   1  -1  -1   1   1  -1  -1
    B2g   1  -1   1  -1   1  -1   1  -1
    B3g   1  -1  -1   1   1  -1  -1   1
    Au    1   1   1   1  -1  -1  -1  -1
    B1u   1   1  -1  -1  -1  -1   1   1
    B2u   1  -1   1  -1  -1   1  -1   1
    B3u   1  -1  -1   1  -1   1   1  -1
 
 Number of basis functions per irrep:
    Ag     59
    B1g    28
    B2g    28
    B3g    28
    Au     16
    B1u    40
    B2u    40
    B3u    40
 
 
 Calculation of overlap integrals...
 CPU time [min]:     0.040                   Wall time [min]:     0.026
 Calculation of kinetic energy integrals...
 CPU time [min]:     0.063                   Wall time [min]:     0.027
 Calculation of dipole moment integrals...
 CPU time [min]:     0.067                   Wall time [min]:     0.027
 Calculation of second moment integrals...
 CPU time [min]:     0.077                   Wall time [min]:     0.027
 Calculation of third moment integrals...
 CPU time [min]:     0.094                   Wall time [min]:     0.028
 Calculation of linear momentum integrals...
 CPU time [min]:     0.099                   Wall time [min]:     0.028
 Calculation of angular momentum integrals...
 CPU time [min]:     0.104                   Wall time [min]:     0.028
 Calculation of nuclear attraction integrals...
 CPU time [min]:     0.130                   Wall time [min]:     0.029
 
 Calculation of prescreening integrals...
 CPU time [min]:     3.276                   Wall time [min]:     0.469
 
 Calculation of two-electron integrals...
   2% done.
  32% done.
  68% done.
 100% done.
 CPU time [min]:    48.275                   Wall time [min]:     5.974

 ************************ 2018-03-20 13:47:32 *************************
 Executing scf...

 @scfsetup: integrals taken from disk
            mrcc/integ binary format
 @scfsetup: calc on blockdiagonal matrices
            using symmetry adapted basis
 @scfsetup: diis switched on
 @scfsetup: number of steps to extrapolate from  10
 @scfsetup: tolerance in energy deviation    0.100000E-12
            tolerance in density deviation    0.100000E-16
 @scfsetup: maximum number of iterations:9999
 @scfsetup: restricted open shell hf calc
            semicanonical orbitals
 @scfsetup: starting scf from diagonal ao guess
 @scfsetup: occupation set:
            by user in MINP
 @scfsetup: the forced occuapation is
 ALPHA OCC:   2   0   0   0   0   0   0   0
 BETA  OCC:   1   0   0   0   0   0   0   0
 @scfsetup: diis bmat treshold:    1.0000E-30
 @scfsetup: diis runs from iteration:   1
 @scfsetup: diis runs to iteration:9999
 @scfsetup: diis runs in every   1 iteration
 Allocation of 20.0 Gbytes of memory...
 ======================================================================
 ITERATION STEP   1
 CPU time [min]:     0.017                   Wall time [min]:     0.021
 
 @SCF: CHECKING CLOSED SHELL DENSITY MATRIX
 @check_dens: symmetry of density matrix OK!
 @check_dens: norm of density matrix OK!
 @check_dens: density idempotency OK!
 @SCF: CHECKING OPEN SHELL DENSITY MATRIX
 @check_dens: symmetry of density matrix OK!
 @check_dens: norm of density matrix OK!
 @check_dens: density idempotency OK!
 Squared Frobenius norm of total diff density:       300.40831078640315
 Squared Frobenius norm of open  diff density:       189.81987990313641
 ALPHA OCC:   2   0   0   0   0   0   0   0
 BETA  OCC:   1   0   0   0   0   0   0   0
 ***HARTREE-FOCK ENERGY IN STEP   1 IS      -8.8458509296779866 [AU]
 ======================================================================
 ITERATION STEP   2
 CPU time [min]:     0.220                   Wall time [min]:     0.132
 
 @scf diis running in this iteration
 @diis: reciprocal condition number    0.1000E+01
 @SCF: CHECKING CLOSED SHELL DENSITY MATRIX
 @check_dens: symmetry of density matrix OK!
 @check_dens: warning!
              norm of density matrix NOT OK!
              norm difference:  0.469624339E-12
              should be 0.d0
 @check_dens: density idempotency OK!
 @SCF: CHECKING OPEN SHELL DENSITY MATRIX
 @check_dens: symmetry of density matrix OK!
 @check_dens: warning!
              norm of density matrix NOT OK!
              norm difference:  0.173194792E-13
              should be 0.d0
 @check_dens: density idempotency OK!
 Squared Frobenius norm of total diff density:       299.64974155612811
 Squared Frobenius norm of open  diff density:       191.14988309066999
 ALPHA OCC:   2   0   0   0   0   0   0   0
 BETA  OCC:   1   0   0   0   0   0   0   0
 ***HARTREE-FOCK ENERGY IN STEP   2 IS      -0.7776929307439044 [AU]
 ======================================================================
 ITERATION STEP   3
 CPU time [min]:     0.408                   Wall time [min]:     0.190
 
 @scf diis running in this iteration
 @diis: reciprocal condition number    0.1048E+00
 @SCF: CHECKING CLOSED SHELL DENSITY MATRIX
 @check_dens: symmetry of density matrix OK!
 @check_dens: warning!
              norm of density matrix NOT OK!
              norm difference:  0.343503004E-12
              should be 0.d0
 @check_dens: density idempotency OK!
 @SCF: CHECKING OPEN SHELL DENSITY MATRIX
 @check_dens: symmetry of density matrix OK!
 @check_dens: warning!
              norm of density matrix NOT OK!
              norm difference:  0.104360964E-13
              should be 0.d0
 @check_dens: density idempotency OK!
 Squared Frobenius norm of total diff density:         0.05072577125000
 Squared Frobenius norm of open  diff density:         0.04956548773546
 ALPHA OCC:   2   0   0   0   0   0   0   0
 BETA  OCC:   1   0   0   0   0   0   0   0
 ***HARTREE-FOCK ENERGY IN STEP   3 IS      -7.0901736814440834 [AU]
 ======================================================================
 ITERATION STEP   4
 CPU time [min]:     0.593                   Wall time [min]:     0.252
 
 @scf diis running in this iteration
 @diis: reciprocal condition number    0.5070E-03
 @SCF: CHECKING CLOSED SHELL DENSITY MATRIX
 @check_dens: symmetry of density matrix OK!
 @check_dens: warning!
              norm of density matrix NOT OK!
              norm difference:  0.299094083E-12
              should be 0.d0
 @check_dens: density idempotency OK!
 @SCF: CHECKING OPEN SHELL DENSITY MATRIX
 @check_dens: symmetry of density matrix OK!
 @check_dens: warning!
              norm of density matrix NOT OK!
              norm difference:  0.124344979E-13
              should be 0.d0
 @check_dens: density idempotency OK!
 Squared Frobenius norm of total diff density:         0.74337057104884
 Squared Frobenius norm of open  diff density:         0.67801234771030
 ALPHA OCC:   2   0   0   0   0   0   0   0
 BETA  OCC:   1   0   0   0   0   0   0   0
 ***HARTREE-FOCK ENERGY IN STEP   4 IS      -7.1582689425151642 [AU]
 ======================================================================
 ITERATION STEP   5
 CPU time [min]:     0.787                   Wall time [min]:     0.313
 
 @scf diis running in this iteration
 @diis: reciprocal condition number    0.2040E-04
 @SCF: CHECKING CLOSED SHELL DENSITY MATRIX
 @check_dens: symmetry of density matrix OK!
 @check_dens: warning!
              norm of density matrix NOT OK!
              norm difference:  0.343725048E-12
              should be 0.d0
 @check_dens: density idempotency OK!
 @SCF: CHECKING OPEN SHELL DENSITY MATRIX
 @check_dens: symmetry of density matrix OK!
 @check_dens: norm of density matrix OK!
 @check_dens: density idempotency OK!
 Squared Frobenius norm of total diff density:         1.28853069604283
 Squared Frobenius norm of open  diff density:         1.30571625271195
 ALPHA OCC:   2   0   0   0   0   0   0   0
 BETA  OCC:   1   0   0   0   0   0   0   0
 ***HARTREE-FOCK ENERGY IN STEP   5 IS      -7.3343775671091338 [AU]
 ======================================================================
 ITERATION STEP   6
 CPU time [min]:     0.962                   Wall time [min]:     0.371
 
 @scf diis running in this iteration
 @diis: reciprocal condition number    0.3212E-05
 @SCF: CHECKING CLOSED SHELL DENSITY MATRIX
 @check_dens: symmetry of density matrix OK!
 @check_dens: warning!
              norm of density matrix NOT OK!
              norm difference:  0.352162743E-12
              should be 0.d0
 @check_dens: density idempotency OK!
 @SCF: CHECKING OPEN SHELL DENSITY MATRIX
 @check_dens: symmetry of density matrix OK!
 @check_dens: norm of density matrix OK!
 @check_dens: density idempotency OK!
 Squared Frobenius norm of total diff density:         0.14708217190057
 Squared Frobenius norm of open  diff density:         0.14456140183545
 ALPHA OCC:   2   0   0   0   0   0   0   0
 BETA  OCC:   1   0   0   0   0   0   0   0
 ***HARTREE-FOCK ENERGY IN STEP   6 IS      -7.4225125270342227 [AU]
 ======================================================================
 ITERATION STEP   7
 CPU time [min]:     1.208                   Wall time [min]:     0.432
 
 @scf diis running in this iteration
 @diis: reciprocal condition number    0.3139E-06
 @SCF: CHECKING CLOSED SHELL DENSITY MATRIX
 @check_dens: symmetry of density matrix OK!
 @check_dens: warning!
              norm of density matrix NOT OK!
              norm difference:  0.337951889E-12
              should be 0.d0
 @check_dens: density idempotency OK!
 @SCF: CHECKING OPEN SHELL DENSITY MATRIX
 @check_dens: symmetry of density matrix OK!
 @check_dens: norm of density matrix OK!
 @check_dens: density idempotency OK!
 Squared Frobenius norm of total diff density:         0.00348617519006
 Squared Frobenius norm of open  diff density:         0.00341473013712
 ALPHA OCC:   2   0   0   0   0   0   0   0
 BETA  OCC:   1   0   0   0   0   0   0   0
 ***HARTREE-FOCK ENERGY IN STEP   7 IS      -7.4325583845345582 [AU]
 ======================================================================
 ITERATION STEP   8
 CPU time [min]:     1.419                   Wall time [min]:     0.493
 
 @scf diis running in this iteration
 @diis: reciprocal condition number    0.5489E-08
 @SCF: CHECKING CLOSED SHELL DENSITY MATRIX
 @check_dens: symmetry of density matrix OK!
 @check_dens: warning!
              norm of density matrix NOT OK!
              norm difference:  0.323296945E-12
              should be 0.d0
 @check_dens: density idempotency OK!
 @SCF: CHECKING OPEN SHELL DENSITY MATRIX
 @check_dens: symmetry of density matrix OK!
 @check_dens: norm of density matrix OK!
 @check_dens: density idempotency OK!
 Squared Frobenius norm of total diff density:         0.00005267599347
 Squared Frobenius norm of open  diff density:         0.00005204055050
 ALPHA OCC:   2   0   0   0   0   0   0   0
 BETA  OCC:   1   0   0   0   0   0   0   0
 ***HARTREE-FOCK ENERGY IN STEP   8 IS      -7.4327238897094610 [AU]
 ======================================================================
 ITERATION STEP   9
 CPU time [min]:     1.596                   Wall time [min]:     0.552
 
 @scf diis running in this iteration
 @diis: reciprocal condition number    0.1799E-09
 @SCF: CHECKING CLOSED SHELL DENSITY MATRIX
 @check_dens: symmetry of density matrix OK!
 @check_dens: warning!
              norm of density matrix NOT OK!
              norm difference:  0.407229805E-12
              should be 0.d0
 @check_dens: density idempotency OK!
 @SCF: CHECKING OPEN SHELL DENSITY MATRIX
 @check_dens: symmetry of density matrix OK!
 @check_dens: norm of density matrix OK!
 @check_dens: density idempotency OK!
 Squared Frobenius norm of total diff density:         0.00000294286737
 Squared Frobenius norm of open  diff density:         0.00000294127509
 ALPHA OCC:   2   0   0   0   0   0   0   0
 BETA  OCC:   1   0   0   0   0   0   0   0
 ***HARTREE-FOCK ENERGY IN STEP   9 IS      -7.4327260464512284 [AU]
 ======================================================================
 ITERATION STEP  10
 CPU time [min]:     1.826                   Wall time [min]:     0.619
 
 @scf diis running in this iteration
 @diis: reciprocal condition number    0.7350E-11
 @SCF: CHECKING CLOSED SHELL DENSITY MATRIX
 @check_dens: symmetry of density matrix OK!
 @check_dens: warning!
              norm of density matrix NOT OK!
              norm difference:  0.349054119E-12
              should be 0.d0
 @check_dens: density idempotency OK!
 @SCF: CHECKING OPEN SHELL DENSITY MATRIX
 @check_dens: symmetry of density matrix OK!
 @check_dens: norm of density matrix OK!
 @check_dens: density idempotency OK!
 Squared Frobenius norm of total diff density:         0.00000002819171
 Squared Frobenius norm of open  diff density:         0.00000002818055
 ALPHA OCC:   2   0   0   0   0   0   0   0
 BETA  OCC:   1   0   0   0   0   0   0   0
 ***HARTREE-FOCK ENERGY IN STEP  10 IS      -7.4327260589691431 [AU]
 ======================================================================
 ITERATION STEP  11
 CPU time [min]:     2.008                   Wall time [min]:     0.677
 
 @scf diis running in this iteration
 @diis: reciprocal condition number    0.1787E-13
 @SCF: CHECKING CLOSED SHELL DENSITY MATRIX
 @check_dens: symmetry of density matrix OK!
 @check_dens: warning!
              norm of density matrix NOT OK!
              norm difference:  0.368372000E-12
              should be 0.d0
 @check_dens: density idempotency OK!
 @SCF: CHECKING OPEN SHELL DENSITY MATRIX
 @check_dens: symmetry of density matrix OK!
 @check_dens: norm of density matrix OK!
 @check_dens: density idempotency OK!
 Squared Frobenius norm of total diff density:         0.00000000079211
 Squared Frobenius norm of open  diff density:         0.00000000078809
 ALPHA OCC:   2   0   0   0   0   0   0   0
 BETA  OCC:   1   0   0   0   0   0   0   0
 ***HARTREE-FOCK ENERGY IN STEP  11 IS      -7.4327260594873330 [AU]
 ======================================================================
 ITERATION STEP  12
 CPU time [min]:     2.173                   Wall time [min]:     0.735
 
 @scf diis running in this iteration
 @diis: reciprocal condition number    0.5324E-16
 @SCF: CHECKING CLOSED SHELL DENSITY MATRIX
 @check_dens: symmetry of density matrix OK!
 @check_dens: warning!
              norm of density matrix NOT OK!
              norm difference:  0.382360810E-12
              should be 0.d0
 @check_dens: density idempotency OK!
 @SCF: CHECKING OPEN SHELL DENSITY MATRIX
 @check_dens: symmetry of density matrix OK!
 @check_dens: norm of density matrix OK!
 @check_dens: density idempotency OK!
 Squared Frobenius norm of total diff density:         0.00000000000038
 Squared Frobenius norm of open  diff density:         0.00000000000038
 ALPHA OCC:   2   0   0   0   0   0   0   0
 BETA  OCC:   1   0   0   0   0   0   0   0
 ***HARTREE-FOCK ENERGY IN STEP  12 IS      -7.4327260595129623 [AU]
 ======================================================================
 ITERATION STEP  13
 CPU time [min]:     2.412                   Wall time [min]:     0.796
 
 @scf diis running in this iteration
 @diis: reciprocal condition number    0.7288E-16
 @SCF: CHECKING CLOSED SHELL DENSITY MATRIX
 @check_dens: symmetry of density matrix OK!
 @check_dens: warning!
              norm of density matrix NOT OK!
              norm difference:  0.374589249E-12
              should be 0.d0
 @check_dens: density idempotency OK!
 @SCF: CHECKING OPEN SHELL DENSITY MATRIX
 @check_dens: symmetry of density matrix OK!
 @check_dens: norm of density matrix OK!
 @check_dens: density idempotency OK!
 Squared Frobenius norm of total diff density:         0.00000000000007
 Squared Frobenius norm of open  diff density:         0.00000000000006
 ALPHA OCC:   2   0   0   0   0   0   0   0
 BETA  OCC:   1   0   0   0   0   0   0   0
 ***HARTREE-FOCK ENERGY IN STEP  13 IS      -7.4327260595130440 [AU]
 ======================================================================
 ITERATION STEP  14
 CPU time [min]:     2.614                   Wall time [min]:     0.857
 
 @scf diis running in this iteration
 @diis: reciprocal condition number    0.7622E-18
 @SCF: CHECKING CLOSED SHELL DENSITY MATRIX
 @check_dens: symmetry of density matrix OK!
 @check_dens: warning!
              norm of density matrix NOT OK!
              norm difference:  0.391908728E-12
              should be 0.d0
 @check_dens: density idempotency OK!
 @SCF: CHECKING OPEN SHELL DENSITY MATRIX
 @check_dens: symmetry of density matrix OK!
 @check_dens: norm of density matrix OK!
 @check_dens: density idempotency OK!
 Squared Frobenius norm of total diff density:         0.00000000000000
 Squared Frobenius norm of open  diff density:         0.00000000000000
 ALPHA OCC:   2   0   0   0   0   0   0   0
 BETA  OCC:   1   0   0   0   0   0   0   0
 ***HARTREE-FOCK ENERGY IN STEP  14 IS      -7.4327260595130094 [AU]
 ======================================================================
 ITERATION STEP  15
 CPU time [min]:     2.773                   Wall time [min]:     0.915
 
 @scf diis running in this iteration
 @diis: reciprocal condition number    0.3407E-17
 @SCF: CHECKING CLOSED SHELL DENSITY MATRIX
 @check_dens: symmetry of density matrix OK!
 @check_dens: warning!
              norm of density matrix NOT OK!
              norm difference:  0.409894341E-12
              should be 0.d0
 @check_dens: density idempotency OK!
 @SCF: CHECKING OPEN SHELL DENSITY MATRIX
 @check_dens: symmetry of density matrix OK!
 @check_dens: norm of density matrix OK!
 @check_dens: density idempotency OK!
 Squared Frobenius norm of total diff density:         0.00000000000000
 Squared Frobenius norm of open  diff density:         0.00000000000000
 ALPHA OCC:   2   0   0   0   0   0   0   0
 BETA  OCC:   1   0   0   0   0   0   0   0
 ***HARTREE-FOCK ENERGY IN STEP  15 IS      -7.4327260595130973 [AU]
 ======================================================================
 
 SUCCESS...
 THE SCF ITERATION HAS CONVERGED!
 
                   Ag  B1g B2g B3g Au  B1u B2u B3u 
 FINAL ALPHA OCC:   2   0   0   0   0   0   0   0
 FINAL BETA  OCC:   1   0   0   0   0   0   0   0
 
 ***FINAL HARTREE-FOCK ENERGY:     -7.4327260595130973 [AU]
 ***SEMICANONICAL ROHF ENERGY:     -7.4327260595131834 [AU]
 
 Orbital energies [au]:
      Irrep         Alpha          Beta
    1   Ag        -2.484894      -2.470596
 
    2   Ag        -0.196319       0.004453
 
    3   B3u        0.007331       0.008669
    4   B1u        0.007331       0.008669
    5   B2u        0.007331       0.008669
    6   Ag         0.013483       0.029777
    7   B3u        0.022181       0.034351
    8   B1u        0.022181       0.034351
    9   B2u        0.022181       0.034351
   10   B2u        0.066554       0.089124
   11   B3u        0.066554       0.089124
   12   B1u        0.066554       0.089124
   13   Ag         0.085615       0.093338
   14   B3g        0.089267       0.093338
   15   B1g        0.089267       0.093338
   16   Ag         0.089267       0.093338
   17   Ag         0.089267       0.112549
   18   B2g        0.089267       0.093338
   19   B2u        0.180289       0.195624
   20   B3u        0.180289       0.195624
   21   B1u        0.180289       0.195624
   22   B3u        0.192715       0.195624
   23   B2u        0.192715       0.195624
   24   B2u        0.192715       0.200913
   25   B1u        0.192715       0.195624
   26   B1u        0.192715       0.200913
   27   B3u        0.192715       0.200913
   28   Au         0.192715       0.195624
   29   B2g        0.246118       0.258508
   30   Ag         0.246118       0.258508
   31   Ag         0.246118       0.258508
   32   B3g        0.246118       0.258508
   33   B1g        0.246118       0.258508
   34   Ag         0.319325       0.323682
   35   B2g        0.321609       0.323682
   36   B1g        0.321609       0.323682
   37   B3g        0.321609       0.323682
   38   Ag         0.321609       0.323682
   39   B3g        0.321609       0.323682
   40   B1g        0.321609       0.323682
   41   B2g        0.321609       0.323682
   42   Ag         0.321609       0.323682
   43   Ag         0.321609       0.346763
   44   B2u        0.436057       0.449268
   45   B1u        0.436057       0.449268
   46   B3u        0.436057       0.449268
   47   Au         0.493071       0.501127
   48   B1u        0.493071       0.501127
   49   B2u        0.493071       0.501127
   50   B1u        0.493071       0.501127
   51   B3u        0.493071       0.501127
   52   B3u        0.493071       0.501127
   53   B2u        0.493071       0.501127
   54   Ag         0.549338       0.562707
   55   Ag         0.549338       0.562707
   56   B3g        0.549338       0.562707
   57   B2g        0.549338       0.562707
   58   B1g        0.549338       0.562707
   59   B1u        0.568395       0.570606
   60   Au         0.568395       0.570606
   61   B2u        0.568395       0.570606
   62   B1u        0.568395       0.570606
   63   B1u        0.568395       0.570606
   64   B2u        0.568395       0.570606
   65   Au         0.568395       0.570606
   66   B2u        0.568395       0.570606
   67   B3u        0.568395       0.570606
   68   B3u        0.568395       0.570606
   69   B3u        0.568395       0.570606
   70   Ag         0.766048       0.771506
   71   Ag         0.766048       0.771506
   72   B1g        0.766048       0.771506
   73   B3g        0.766048       0.771506
   74   B2g        0.766048       0.771506
   75   Ag         0.766048       0.771506
   76   B3g        0.766048       0.771506
   77   B1g        0.766048       0.771506
   78   B2g        0.766048       0.771506
   79   B2g        1.018947       1.021627
   80   B3g        1.018947       1.021627
   81   B1g        1.018947       1.021627
   82   B2g        1.018947       1.021627
   83   Ag         1.018947       1.021627
   84   B3g        1.018947       1.021627
   85   B1g        1.018947       1.021627
   86   B3g        1.018947       1.021627
   87   B2g        1.018947       1.021627
   88   Ag         1.018947       1.021627
   89   B1g        1.018947       1.021627
   90   Ag         1.018947       1.021627
   91   Ag         1.018947       1.021627
   92   B3u        1.033887       1.041869
   93   B2u        1.033887       1.041869
   94   B1u        1.033887       1.041869
   95   B1u        1.053897       1.063055
   96   B3u        1.053897       1.063055
   97   B3u        1.053897       1.063055
   98   B1u        1.053897       1.063055
   99   B2u        1.053897       1.063055
  100   B2u        1.053897       1.063055
  101   Au         1.053897       1.063055
  102   Ag         1.126399       1.135872
  103   B2g        1.126399       1.135872
  104   Ag         1.126399       1.135872
  105   B3g        1.126399       1.135872
  106   B1g        1.126399       1.135872
  107   Ag         1.164438       1.181756
  108   B1u        1.315538       1.320321
  109   B2u        1.315538       1.320321
  110   Au         1.315538       1.320321
  111   B1u        1.315538       1.320321
  112   B2u        1.315538       1.320321
  113   B1u        1.315538       1.320321
  114   B2u        1.315538       1.320321
  115   B3u        1.315538       1.320321
  116   Au         1.315538       1.320321
  117   B3u        1.315538       1.320321
  118   B3u        1.315538       1.320321
  119   B3g        1.573226       1.579927
  120   B2g        1.573226       1.579927
  121   B1g        1.573226       1.579927
  122   Ag         1.573226       1.579927
  123   Ag         1.573226       1.579927
  124   B1g        1.573226       1.579927
  125   Ag         1.573226       1.579927
  126   B3g        1.573226       1.579927
  127   B2g        1.573226       1.579927
  128   B2u        2.139139       2.145902
  129   B3u        2.139139       2.145902
  130   B1u        2.139139       2.145902
  131   B3u        2.139139       2.145902
  132   B2u        2.139139       2.145902
  133   B1u        2.139139       2.145902
  134   Au         2.139139       2.145902
  135   Ag         2.247971       2.253394
  136   B2g        2.247971       2.253394
  137   Ag         2.247971       2.253394
  138   B3g        2.247971       2.253394
  139   B1g        2.247971       2.253394
  140   Ag         2.457936       2.462470
  141   B1g        2.457936       2.462470
  142   B3g        2.457936       2.462470
  143   Ag         2.457936       2.462470
  144   B2g        2.457936       2.462470
  145   B3g        2.457936       2.462470
  146   Ag         2.457936       2.462470
  147   B1g        2.457936       2.462470
  148   B1g        2.457936       2.462470
  149   B2g        2.457936       2.462470
  150   B3g        2.457936       2.462470
  151   Ag         2.457936       2.462470
  152   B2g        2.457936       2.462470
  153   B2u        2.561474       2.566771
  154   B3u        2.561474       2.566771
  155   B1u        2.561474       2.566771
  156   B1u        2.755413       2.760636
  157   B3u        2.755413       2.760636
  158   B2u        2.755413       2.760636
  159   B2u        2.755413       2.760636
  160   Au         2.755413       2.760636
  161   Au         2.755413       2.760636
  162   B3u        2.755413       2.760636
  163   B1u        2.755413       2.760636
  164   B2u        2.755413       2.760636
  165   B1u        2.755413       2.760636
  166   B3u        2.755413       2.760636
  167   Ag         3.163553       3.168629
  168   B3g        3.163553       3.168629
  169   Ag         3.163553       3.168629
  170   Ag         3.163553       3.168629
  171   B1g        3.163553       3.168629
  172   B2g        3.163553       3.168629
  173   B3g        3.163553       3.168629
  174   B1g        3.163553       3.168629
  175   B2g        3.163553       3.168629
  176   Ag         3.648304       3.656695
  177   B3u        4.383551       4.386654
  178   B2u        4.383551       4.386654
  179   B1u        4.383551       4.386654
  180   B2u        4.383551       4.386654
  181   B3u        4.383551       4.386654
  182   B1u        4.383551       4.386654
  183   Au         4.383551       4.386654
  184   Ag         4.531896       4.534308
  185   B2g        4.531896       4.534308
  186   Ag         4.531896       4.534308
  187   B3g        4.531896       4.534308
  188   B1g        4.531896       4.534308
  189   B2u        6.493124       6.497182
  190   B1u        6.493124       6.497182
  191   B3u        6.493124       6.497182
  192   Ag         9.570386       9.575573
  193   Ag        10.902536      10.903791
  194   B2g       10.902536      10.903791
  195   Ag        10.902536      10.903791
  196   B3g       10.902536      10.903791
  197   B1g       10.902536      10.903791
  198   B3u       14.903591      14.904009
  199   B2u       14.903591      14.904009
  200   B1u       14.903591      14.904009
  201   B3u       14.903591      14.904009
  202   B2u       14.903591      14.904009
  203   B1u       14.903591      14.904009
  204   Au        14.903591      14.904009
  205   B2u       16.027107      16.030558
  206   B1u       16.027107      16.030558
  207   B3u       16.027107      16.030558
  208   Ag        22.428163      22.431894
  209   Ag        27.437734      27.439419
  210   B2g       27.437734      27.439419
  211   B3g       27.437734      27.439419
  212   Ag        27.437734      27.439419
  213   B1g       27.437734      27.439419
  214   Ag        27.886991      27.887187
  215   B2g       27.886991      27.887187
  216   B3g       27.886991      27.887187
  217   Ag        27.886991      27.887187
  218   B2g       27.886991      27.887187
  219   Ag        27.886991      27.887187
  220   B1g       27.886991      27.887187
  221   B3g       27.886991      27.887187
  222   B1g       27.886991      27.887187
  223   B1u       38.275502      38.278441
  224   B2u       38.275502      38.278441
  225   B3u       38.275502      38.278441
  226   B3u       44.028269      44.029342
  227   B2u       44.028269      44.029342
  228   B2u       44.028269      44.029342
  229   B1u       44.028269      44.029342
  230   B3u       44.028269      44.029342
  231   Au        44.028269      44.029342
  232   B1u       44.028269      44.029342
  233   Ag        48.754707      48.757510
  234   B2u       64.114327      64.114710
  235   B2u       64.114327      64.114710
  236   Au        64.114327      64.114710
  237   Au        64.114327      64.114710
  238   B1u       64.114327      64.114710
  239   B1u       64.114327      64.114710
  240   B2u       64.114327      64.114710
  241   B3u       64.114327      64.114710
  242   B3u       64.114327      64.114710
  243   B3u       64.114327      64.114710
  244   B1u       64.114327      64.114710
  245   Ag        67.775170      67.777003
  246   B2g       67.775170      67.777003
  247   B1g       67.775170      67.777003
  248   B3g       67.775170      67.777003
  249   Ag        67.775170      67.777003
  250   B1u       90.995845      90.998161
  251   B2u       90.995845      90.998161
  252   B3u       90.995845      90.998161
  253   Ag        92.834158      92.835064
  254   Ag        92.834158      92.835064
  255   B3g       92.834158      92.835064
  256   B1g       92.834158      92.835064
  257   B2g       92.834158      92.835064
  258   Ag        92.834158      92.835064
  259   B3g       92.834158      92.835064
  260   B1g       92.834158      92.835064
  261   B2g       92.834158      92.835064
  262   Ag       102.514415     102.516531
  263   B2u      122.907117     122.908464
  264   B1u      122.907117     122.908464
  265   B2u      122.907117     122.908464
  266   B3u      122.907117     122.908464
  267   B1u      122.907117     122.908464
  268   B3u      122.907117     122.908464
  269   Au       122.907117     122.908464
  270   B2g      170.965857     170.967447
  271   Ag       170.965857     170.967447
  272   B1g      170.965857     170.967447
  273   Ag       170.965857     170.967447
  274   B3g      170.965857     170.967447
  275   Ag       217.422572     217.424179
  276   B1u      222.255815     222.257490
  277   B2u      222.255815     222.257490
  278   B3u      222.255815     222.257490
  279   Ag       671.797057     671.798044
 
 RETURNING FROM SCF ALGORITHM
 ======================================================================

 ************************ 2018-03-20 13:48:40 *************************
 Executing ovirt...

 ovirt, the routine of orbital optimization and integral transformation 
Tue Mar 20 13:48:40 EDT 2018
 memory =                  20480  Mb            2684354560  8 byte word
 mrccboot = T
 scftype  = rohf 
 localcc  = off 
 core     = corr
 ovirt    = off  
 ccprog   = mrcc
 dfnbasis =                      0
 dfbasis_cor =none                
 lmp2dens = on 
 dens =                      0
 verblev =                      3
 task     =                      4
 epsilon =   0.975000000000000     
 lmp2= on 
 localNO  =  F
 localMP2 =  F
 localMP2_TEST =  F
 LMP2_shortcut =  F
 FOCKTR   =  F
 Allocated memory:                   20480  Mb
 onbasis=                   279
 UHF calculation! 
 integral transformation: AOs --- MOs (alpha-alpha)
 # of basis functions, # of int. blocks   279     3
 33 % 
 66 % 
100 % 
 second part
 33 %
 66 %
100 %
 integral transformation is completed! 
 integral transformation: AOs ------ MOs (beta-beta)
 # of basis functions, # of int. blocks   279     3
 33 % 
 66 % 
100 % 
 second part
 33 %
 66 %
100 %
 integral transformation is completed! 
 integral transformation: AOs ----- MOs (alpha-beta)
 size                 155682                     1
# of basis functions, # of int. blocks   279     3
 integral transformation
======================================== 
Tue Mar 20 18:02:34 EDT 2018
  ovirt terminated normally 

 ************************ 2018-03-20 18:08:23 *************************
 Executing goldstone...

 Generation of CC equations in terms of H and T...
 Generation of antisymmetrized Goldstone diagrams...
 Number of diagrams in T^1 equations:    15
 Number of diagrams in T^2 equations:    37
 Number of diagrams in T^3 equations:    47
 Translation of diagrams to factorized equations...
 Optimizing intermediate calculation...
 Optimizing right-hand EOMCC calculation...
 Number of floating-point operations per iteration step:   1.2323E+11
 Probable CPU time per iteration step (hours):      1.23
 Required memory (Mbytes):  770103.5
 Number of intermediates:                                 160
 Number of intermediates to be stored:                     62
 Length of intermediate file (Mbytes):   11889.0

 ************************ 2018-03-20 18:08:28 *************************
 Executing xmrcc...

 **********************************************************************
 CC(                     3 ) calculation 
 
 
 Allocation of****** Mbytes of memory...
 Number of spinorbitals:                   558
 Number of alpha electrons:                        2
 Number of beta electrons:                         1
 z-component of spin:  0.5
 Spatial symmetry:                      1
 Convergence criterion:  1.0E-07
 Construction of occupation graphs...
 Number of                     0 -fold excitations:                      1
 Number of                     1 -fold excitations:                    172
 Number of                     2 -fold excitations:                  26618
 Number of                     3 -fold excitations:                1353612
 Total number of configurations:                1380403
 Calculation of coupling coefficients...
 Length of intermediate file (Mbytes):    8940.2
 
 ======================================================================
 
 ======================================================================
 
 ======================================================================
 
 ======================================================================
 
 ======================================================================
 
 ======================================================================
 
 ======================================================================
 
 ======================================================================
 
 ======================================================================
 
 ======================================================================
 
 ======================================================================
 
 ======================================================================
 
 ======================================================================
 
 ======================================================================
 
 ======================================================================
 
 ======================================================================
 
 ======================================================================
 
 ======================================================================
 
 ======================================================================
 
 ======================================================================
 
 Memory requirements /Mbyte/: 
               Minimal        Optimal
 Real*8:       7013.6321     47522.6402
 Integer:        13.0524
 Total:        7026.6845     47535.6925
 

 ************************ 2018-03-20 18:12:51 *************************
 Executing goldstone...

 Generation of CC equations in terms of H and T...
 Generation of antisymmetrized Goldstone diagrams...
 Number of diagrams in T^1 equations:     8
 Translation of diagrams to factorized equations...
 Optimizing intermediate calculation...
 Optimizing right-hand EOMCC calculation...
 Number of floating-point operations per iteration step:   2.9099E+04
 Probable CPU time per iteration step (hours):      0.00
 Required memory (Mbytes):  770103.5
 Number of intermediates:                                  19
 Number of intermediates to be stored:                      9
 Length of intermediate file (Mbytes):       1.5

 ************************ 2018-03-20 18:12:52 *************************
 Executing xmrcc...

 **********************************************************************
 CC(                     1 ) calculation 
 
 
 Allocation of****** Mbytes of memory...
 Number of spinorbitals:                   558
 Number of alpha electrons:                        2
 Number of beta electrons:                         1
 z-component of spin:  0.5
 Spatial symmetry:                      1
 Convergence criterion:  1.0E-07
 Construction of occupation graphs...
 Number of                     0 -fold excitations:                      1
 Number of                     1 -fold excitations:                    172
 Total number of configurations:                    173
 Calculation of coupling coefficients...
 Length of intermediate file (Mbytes):       1.4
 
 ======================================================================
 
 ======================================================================
 
 ======================================================================
 
 ======================================================================
 
 ======================================================================
 
 ======================================================================
 
 ======================================================================
 
 ======================================================================
 
 ======================================================================
 
 ======================================================================
 
 ======================================================================
 
 ======================================================================
 
 ======================================================================
 
 ======================================================================
 
 ======================================================================
 
 ======================================================================
 
 ======================================================================
 
 ======================================================================
 
 ======================================================================
 
 ======================================================================
 
 Memory requirements /Mbyte/: 
               Minimal        Optimal
 Real*8:        166.8802     46229.3814
 Integer:         6.9879
 Total:         173.8681     46236.3693
 

 ************************ 2018-03-20 18:12:53 *************************
 Executing mrcc...

 **********************************************************************
 LR-CCS calculation                                                     
 
 
 OpenMP parallel version is running.
 Number of CPUs:  32
 Allocation of20473.0 Mbytes of memory...
 Number of spinorbitals: 558
 Number of alpha electrons:  2
 Number of beta  electrons:  1
 z-component of spin:  0.5
 Spatial symmetry: 1
 Convergence criterion:  1.0E-07
 Construction of occupation graphs...
 Number of 0-fold excitations: 1
 Number of 1-fold excitations: 172
 Total number of determinants: 173
 Calculation of coupling coefficients...
 Initial cluster amplitudes are generated.
 Length of intermediate file (Mbytes):       1.4
 Reading integral list from unit 55...
 Warning! Executing out-of-core algorithm!
 Reading integral list: cycle  1 of  3
 Sorting integrals...
 Reading integral list: cycle  2 of  3
 Sorting integrals...
 Reading integral list: cycle  3 of  3
 Sorting integrals...
 Reading integral list: cycle  1 of  3
 Sorting integrals...
 Reading integral list: cycle  2 of  3
 Sorting integrals...
 Reading integral list: cycle  3 of  3
 Sorting integrals...
 Reading integral list: cycle  1 of  3
 Sorting integrals...
 Reading integral list: cycle  2 of  3
 Sorting integrals...
 Reading integral list: cycle  3 of  3
 Sorting integrals...
 Reading integral list: cycle  1 of  3
 Sorting integrals...
 Reading integral list: cycle  2 of  3
 Sorting integrals...
 Reading integral list: cycle  3 of  3
 Sorting integrals...
 Energy of reference determinant [au]:      -7.432726059513
 Calculation of diagonal elements of Hamiltonian...
 Calculation of MP denominators...
 
 Starting CC iteration...
 ======================================================================
 Norm of residual vector:     0.00968019
 CPU time [min]:   111.364                   Wall time [min]:   115.559
 
 Iteration  1  CC energy:    -7.43274240  Energy decrease:   0.00001634
 ======================================================================
 Norm of residual vector:     0.00241140
 CPU time [min]:   111.514                   Wall time [min]:   115.564
 
 Iteration  2  CC energy:    -7.43274791  Energy decrease:   0.00000552
 ======================================================================
 Norm of residual vector:     0.00005793
 CPU time [min]:   111.562                   Wall time [min]:   115.565
 
 Iteration  3  CC energy:    -7.43274800  Energy decrease:   0.00000008
 ======================================================================
 Norm of residual vector:     0.00000538
 CPU time [min]:   111.612                   Wall time [min]:   115.567
 
 Iteration  4  CC energy:    -7.43274799  Energy decrease:   3.3649E-09
 ======================================================================
 Norm of residual vector:     0.00000183
 CPU time [min]:   111.660                   Wall time [min]:   115.569
 
 Iteration  5  CC energy:    -7.43274800  Energy decrease:   1.7612E-09
 ======================================================================
 Norm of residual vector:     0.00000022
 CPU time [min]:   111.708                   Wall time [min]:   115.570
 
 Iteration  6  CC energy:    -7.43274800  Energy decrease:   1.5554E-10
 ======================================================================
 Norm of residual vector:     0.00000002
 CPU time [min]:   111.753                   Wall time [min]:   115.572
 
 Iteration  7  CC energy:    -7.43274800  Energy decrease:   3.6113E-12
 ======================================================================
 
 Iteration has converged in  7 steps.
 
 Final results:
 Total CCS energy [au]:               -7.432747996539
 Spin multiplicity:                     2
 
 
 
 Dominant cluster amplitudes
 Printing threshold:  1.00E-02
 
    1.000000  Reference determinant                                     
 
 Starting right-hand LR-CC iteration for root                      2 ...
 ======================================================================
 Norm of residual vector:     0.02016495      Convergence:   1.00000000
 CPU time [min]:   111.869                   Wall time [min]:   115.576
 
 Iteration  1  CI energy:    -7.29964224  Energy decrease:   0.13310576
 ======================================================================
 Norm of residual vector:     0.01255066      Convergence:   0.43585110
 CPU time [min]:   111.927                   Wall time [min]:   115.578
 
 Iteration  2  CI energy:    -7.30929087  Energy decrease:   0.00964864
 ======================================================================
 Norm of residual vector:     0.00205616      Convergence:   0.05789023
 CPU time [min]:   111.998                   Wall time [min]:   115.580
 
 Iteration  3  CI energy:    -7.30998791  Energy decrease:   0.00069704
 ======================================================================
 Norm of residual vector:     0.00021369      Convergence:   0.00166822
 CPU time [min]:   112.063                   Wall time [min]:   115.582
 
 Iteration  4  CI energy:    -7.30999081  Energy decrease:   0.00000290
 ======================================================================
 Norm of residual vector:     0.00000656      Convergence:   0.00007317
 CPU time [min]:   112.133                   Wall time [min]:   115.585
 
 Iteration  5  CI energy:    -7.30999081  Energy decrease:   4.0977E-09
 ======================================================================
 Norm of residual vector:     0.0000E+00      Convergence:   1.9133E-06
 CPU time [min]:   112.206                   Wall time [min]:   115.587
 
 Iteration  6  CI energy:    -7.30999081  Energy decrease:   2.8374E-11
 ======================================================================
 
 Iteration has converged in  6 steps.
 
 Final results:
 Total LR-CCS energy [au]:            -7.309990813540
 Excitation energy [eV]:           3.3404
 Excitation energy [cm^-1]:    26942.09
 Absorption wavelength [nm]:     371.17
 Spin multiplicity:                     2
 
 
 
 Dominant CI coefficients
 Printing threshold:  1.00E-02
 
   -0.886785  2a -> 6a                                                  
   -0.458122  2a -> 13a                                                 
    0.061091  2a -> 34a                                                 
 
 Starting right-hand LR-CC iteration for root                      3 ...
 ======================================================================
 Norm of residual vector:     0.02564940      Convergence:   1.00000000
 CPU time [min]:   112.358                   Wall time [min]:   115.593
 
 Iteration  1  CI energy:    -7.27248090  Energy decrease:   0.16026709
 ======================================================================
 Norm of residual vector:     0.00668436      Convergence:   0.19832390
 CPU time [min]:   112.408                   Wall time [min]:   115.594
 
 Iteration  2  CI energy:    -7.27764175  Energy decrease:   0.00516084
 ======================================================================
 Norm of residual vector:     0.00059707      Convergence:   0.01698189
 CPU time [min]:   112.487                   Wall time [min]:   115.597
 
 Iteration  3  CI energy:    -7.27775360  Energy decrease:   0.00011186
 ======================================================================
 Norm of residual vector:     0.00002290      Convergence:   0.00061056
 CPU time [min]:   112.537                   Wall time [min]:   115.598
 
 Iteration  4  CI energy:    -7.27775396  Energy decrease:   0.00000035
 ======================================================================
 Norm of residual vector:     0.00000079      Convergence:   0.00000945
 CPU time [min]:   112.588                   Wall time [min]:   115.600
 
 Iteration  5  CI energy:    -7.27775396  Energy decrease:   3.0267E-10
 ======================================================================
 Norm of residual vector:     0.0000E+00      Convergence:   2.4349E-07
 CPU time [min]:   112.640                   Wall time [min]:   115.602
 
 Iteration  6  CI energy:    -7.27775396  Energy decrease:   7.0175E-12
 ======================================================================
 
 Iteration has converged in  6 steps.
 
 Final results:
 Total LR-CCS energy [au]:            -7.277753955346
 Excitation energy [eV]:           4.2176
 Excitation energy [cm^-1]:    34017.26
 Absorption wavelength [nm]:     293.97
 Spin multiplicity:                     2
 
 
 
 Dominant CI coefficients
 Printing threshold:  1.00E-02
 
    0.979090  2a -> 16a                                                 
    0.199971  2a -> 30a                                                 
    0.033941  2a -> 31a                                                 
    0.015045  2a -> 54a                                                 
 
 Starting right-hand LR-CC iteration for root                      4 ...
 ======================================================================
 Norm of residual vector:     0.02564940      Convergence:   1.00000000
 CPU time [min]:   112.688                   Wall time [min]:   115.603
 
 Iteration  1  CI energy:    -7.27248090  Energy decrease:   0.16026709
 ======================================================================
 Norm of residual vector:     0.00668436      Convergence:   0.19832390
 CPU time [min]:   112.736                   Wall time [min]:   115.605
 
 Iteration  2  CI energy:    -7.27764175  Energy decrease:   0.00516084
 ======================================================================
 Norm of residual vector:     0.00059707      Convergence:   0.01698189
 CPU time [min]:   112.787                   Wall time [min]:   115.607
 
 Iteration  3  CI energy:    -7.27775360  Energy decrease:   0.00011186
 ======================================================================
 Norm of residual vector:     0.00002290      Convergence:   0.00061056
 CPU time [min]:   112.839                   Wall time [min]:   115.608
 
 Iteration  4  CI energy:    -7.27775396  Energy decrease:   0.00000035
 ======================================================================
 Norm of residual vector:     0.00000079      Convergence:   0.00000945
 CPU time [min]:   112.890                   Wall time [min]:   115.610
 
 Iteration  5  CI energy:    -7.27775396  Energy decrease:   3.0267E-10
 ======================================================================
 Norm of residual vector:     0.0000E+00      Convergence:   2.4349E-07
 CPU time [min]:   112.942                   Wall time [min]:   115.612
 
 Iteration  6  CI energy:    -7.27775396  Energy decrease:   7.0175E-12
 ======================================================================
 
 Iteration has converged in  6 steps.
 
 Final results:
 Total LR-CCS energy [au]:            -7.277753955346
 Excitation energy [eV]:           4.2176
 Excitation energy [cm^-1]:    34017.26
 Absorption wavelength [nm]:     293.97
 Spin multiplicity:                     2
 
 
 
 Dominant CI coefficients
 Printing threshold:  1.00E-02
 
    0.979090  2a -> 17a                                                 
   -0.033941  2a -> 30a                                                 
    0.199971  2a -> 31a                                                 
   -0.015045  2a -> 55a                                                 
 
 Starting right-hand LR-CC iteration for root                      5 ...
 ======================================================================
 Norm of residual vector:     0.03455172      Convergence:   1.00000000
 CPU time [min]:   112.989                   Wall time [min]:   115.613
 
 Iteration  1  CI energy:    -7.26784523  Energy decrease:   0.16490277
 ======================================================================
 Norm of residual vector:     0.00657878      Convergence:   0.44523742
 CPU time [min]:   113.038                   Wall time [min]:   115.615
 
 Iteration  2  CI energy:    -7.26150690  Energy decrease:   0.00633833
 ======================================================================
 Norm of residual vector:     0.00130508      Convergence:   0.02380142
 CPU time [min]:   113.087                   Wall time [min]:   115.616
 
 Iteration  3  CI energy:    -7.26165216  Energy decrease:   0.00014526
 ======================================================================
 Norm of residual vector:     0.00015085      Convergence:   0.00108558
 CPU time [min]:   113.137                   Wall time [min]:   115.618
 
 Iteration  4  CI energy:    -7.26165334  Energy decrease:   0.00000118
 ======================================================================
 Norm of residual vector:     0.00000442      Convergence:   0.00005211
 CPU time [min]:   113.188                   Wall time [min]:   115.620
 
 Iteration  5  CI energy:    -7.26165334  Energy decrease:   5.7432E-10
 ======================================================================
 Norm of residual vector:     0.0000E+00      Convergence:   1.3041E-06
 CPU time [min]:   113.239                   Wall time [min]:   115.621
 
 Iteration  6  CI energy:    -7.26165334  Energy decrease:   1.4055E-11
 ======================================================================
 
 Iteration has converged in  6 steps.
 
 Final results:
 Total LR-CCS energy [au]:            -7.261653338392
 Excitation energy [eV]:           4.6557
 Excitation energy [cm^-1]:    37550.94
 Absorption wavelength [nm]:     266.30
 Spin multiplicity:                     2
 
 
 
 Dominant CI coefficients
 Printing threshold:  1.00E-02
 
   -0.462061  2a -> 6a                                                  
    0.875797  2a -> 13a                                                 
   -0.139550  2a -> 34a                                                 
 
 Starting right-hand LR-CC iteration for root                      6 ...
 ======================================================================
 Norm of residual vector:     0.04200020      Convergence:   1.00000000
 CPU time [min]:   113.287                   Wall time [min]:   115.623
 
 Iteration  1  CI energy:    -7.15226591  Energy decrease:   0.28048208
 ======================================================================
 Norm of residual vector:     0.00441521      Convergence:   0.22379038
 CPU time [min]:   113.334                   Wall time [min]:   115.624
 
 Iteration  2  CI energy:    -7.15097549  Energy decrease:   0.00129042
 ======================================================================
 Norm of residual vector:     0.00050734      Convergence:   0.00543307
 CPU time [min]:   113.484                   Wall time [min]:   115.629
 
 Iteration  3  CI energy:    -7.15099855  Energy decrease:   0.00002305
 ======================================================================
 Norm of residual vector:     0.00001636      Convergence:   0.00032777
 CPU time [min]:   113.534                   Wall time [min]:   115.631
 
 Iteration  4  CI energy:    -7.15099871  Energy decrease:   0.00000016
 ======================================================================
 Norm of residual vector:     0.00000053      Convergence:   0.00000645
 CPU time [min]:   113.585                   Wall time [min]:   115.633
 
 Iteration  5  CI energy:    -7.15099871  Energy decrease:   3.1903E-10
 ======================================================================
 Norm of residual vector:     0.0000E+00      Convergence:   2.0934E-07
 CPU time [min]:   113.638                   Wall time [min]:   115.634
 
 Iteration  6  CI energy:    -7.15099871  Energy decrease:   9.1331E-12
 ======================================================================
 
 Iteration has converged in  6 steps.
 
 Final results:
 Total LR-CCS energy [au]:            -7.150998708474
 Excitation energy [eV]:           7.6668
 Excitation energy [cm^-1]:    61836.83
 Absorption wavelength [nm]:     161.72
 Spin multiplicity:                     2
 
 
 
 Dominant CI coefficients
 Printing threshold:  1.00E-02
 
   -0.034004  2a -> 16a                                                 
   -0.200343  2a -> 17a                                                 
    0.971737  2a -> 31a                                                 
   -0.119862  2a -> 55a                                                 
 
 Starting right-hand LR-CC iteration for root                      7 ...
 ======================================================================
 Norm of residual vector:     0.04200020      Convergence:   1.00000000
 CPU time [min]:   113.686                   Wall time [min]:   115.636
 
 Iteration  1  CI energy:    -7.15226591  Energy decrease:   0.28048208
 ======================================================================
 Norm of residual vector:     0.00441521      Convergence:   0.22379038
 CPU time [min]:   113.735                   Wall time [min]:   115.638
 
 Iteration  2  CI energy:    -7.15097549  Energy decrease:   0.00129042
 ======================================================================
 Norm of residual vector:     0.00050734      Convergence:   0.00543307
 CPU time [min]:   113.785                   Wall time [min]:   115.639
 
 Iteration  3  CI energy:    -7.15099855  Energy decrease:   0.00002305
 ======================================================================
 Norm of residual vector:     0.00001636      Convergence:   0.00032777
 CPU time [min]:   113.835                   Wall time [min]:   115.641
 
 Iteration  4  CI energy:    -7.15099871  Energy decrease:   0.00000016
 ======================================================================
 Norm of residual vector:     0.00000053      Convergence:   0.00000645
 CPU time [min]:   113.886                   Wall time [min]:   115.642
 
 Iteration  5  CI energy:    -7.15099871  Energy decrease:   3.1903E-10
 ======================================================================
 Norm of residual vector:     0.0000E+00      Convergence:   2.0934E-07
 CPU time [min]:   113.938                   Wall time [min]:   115.644
 
 Iteration  6  CI energy:    -7.15099871  Energy decrease:   9.1323E-12
 ======================================================================
 
 Iteration has converged in  6 steps.
 
 Final results:
 Total LR-CCS energy [au]:            -7.150998708474
 Excitation energy [eV]:           7.6668
 Excitation energy [cm^-1]:    61836.83
 Absorption wavelength [nm]:     161.72
 Spin multiplicity:                     2
 
 
 
 Dominant CI coefficients
 Printing threshold:  1.00E-02
 
   -0.200343  2a -> 16a                                                 
    0.034004  2a -> 17a                                                 
    0.971737  2a -> 30a                                                 
    0.119862  2a -> 54a                                                 
 
 Starting right-hand LR-CC iteration for root                      8 ...
 ======================================================================
 Norm of residual vector:     0.04331854      Convergence:   1.00000000
 CPU time [min]:   113.985                   Wall time [min]:   115.646
 
 Iteration  1  CI energy:    -7.09497578  Energy decrease:   0.33777222
 ======================================================================
 Norm of residual vector:     0.00451883      Convergence:   0.15122062
 CPU time [min]:   114.034                   Wall time [min]:   115.647
 
 Iteration  2  CI energy:    -7.09204333  Energy decrease:   0.00293245
 ======================================================================
 Norm of residual vector:     0.00057218      Convergence:   0.01455212
 CPU time [min]:   114.085                   Wall time [min]:   115.649
 
 Iteration  3  CI energy:    -7.09200806  Energy decrease:   0.00003527
 ======================================================================
 Norm of residual vector:     0.00007517      Convergence:   0.00036627
 CPU time [min]:   114.136                   Wall time [min]:   115.651
 
 Iteration  4  CI energy:    -7.09200823  Energy decrease:   0.00000016
 ======================================================================
 Norm of residual vector:     0.00000179      Convergence:   0.00002600
 CPU time [min]:   114.187                   Wall time [min]:   115.652
 
 Iteration  5  CI energy:    -7.09200822  Energy decrease:   2.6906E-09
 ======================================================================
 Norm of residual vector:     0.0000E+00      Convergence:   4.8866E-07
 CPU time [min]:   114.240                   Wall time [min]:   115.654
 
 Iteration  6  CI energy:    -7.09200822  Energy decrease:   3.2895E-11
 ======================================================================
 
 Iteration has converged in  6 steps.
 
 Final results:
 Total LR-CCS energy [au]:            -7.092008223269
 Excitation energy [eV]:           9.2720
 Excitation energy [cm^-1]:    74783.74
 Absorption wavelength [nm]:     133.72
 Spin multiplicity:                     2
 
 
 
 Dominant CI coefficients
 Printing threshold:  1.00E-02
 
    0.010360  2a -> 6a                                                  
   -0.151892  2a -> 13a                                                 
   -0.987611  2a -> 34a                                                 
    0.037658  2a -> 107a                                                
 
 Starting right-hand LR-CC iteration for root                      9 ...
 ======================================================================
 Norm of residual vector:     0.01951801      Convergence:   1.00000000
 CPU time [min]:   114.288                   Wall time [min]:   115.656
 
 Iteration  1  CI energy:    -7.05898888  Energy decrease:   0.37375912
 ======================================================================
 Norm of residual vector:     0.00117708      Convergence:   0.04765592
 CPU time [min]:   114.337                   Wall time [min]:   115.657
 
 Iteration  2  CI energy:    -7.05991216  Energy decrease:   0.00092328
 ======================================================================
 Norm of residual vector:     0.00001844      Convergence:   0.00099789
 CPU time [min]:   114.388                   Wall time [min]:   115.659
 
 Iteration  3  CI energy:    -7.05991332  Energy decrease:   0.00000116
 ======================================================================
 Norm of residual vector:     0.0000E+00      Convergence:   6.8911E-06
 CPU time [min]:   114.437                   Wall time [min]:   115.660
 
 Iteration  4  CI energy:    -7.05991332  Energy decrease:   1.5862E-10
 ======================================================================
 
 Iteration has converged in  4 steps.
 
 Final results:
 Total LR-CCS energy [au]:            -7.059913320916
 Excitation energy [eV]:          10.1453
 Excitation energy [cm^-1]:    81827.76
 Absorption wavelength [nm]:     122.21
 Spin multiplicity:                     2
 
 
 
 Dominant CI coefficients
 Printing threshold:  1.00E-02
 
    0.998856  2a -> 38a                                                 
   -0.035491  2a -> 70a                                                 
   -0.029868  2a -> 71a                                                 
   -0.011555  2a -> 75a                                                 
 
 Starting right-hand LR-CC iteration for root                     10 ...
 ======================================================================
 Norm of residual vector:     0.01951801      Convergence:   1.00000000
 CPU time [min]:   114.485                   Wall time [min]:   115.662
 
 Iteration  1  CI energy:    -7.05898888  Energy decrease:   0.37375912
 ======================================================================
 Norm of residual vector:     0.00117708      Convergence:   0.04765592
 CPU time [min]:   114.610                   Wall time [min]:   115.666
 
 Iteration  2  CI energy:    -7.05991216  Energy decrease:   0.00092328
 ======================================================================
 Norm of residual vector:     0.00001844      Convergence:   0.00099789
 CPU time [min]:   114.659                   Wall time [min]:   115.668
 
 Iteration  3  CI energy:    -7.05991332  Energy decrease:   0.00000116
 ======================================================================
 Norm of residual vector:     0.0000E+00      Convergence:   6.8911E-06
 CPU time [min]:   114.710                   Wall time [min]:   115.669
 
 Iteration  4  CI energy:    -7.05991332  Energy decrease:   1.5862E-10
 ======================================================================
 
 Iteration has converged in  4 steps.
 
 Final results:
 Total LR-CCS energy [au]:            -7.059913320916
 Excitation energy [eV]:          10.1453
 Excitation energy [cm^-1]:    81827.76
 Absorption wavelength [nm]:     122.21
 Spin multiplicity:                     2
 
 
 
 Dominant CI coefficients
 Printing threshold:  1.00E-02
 
    0.998856  2a -> 42a                                                 
    0.027337  2a -> 70a                                                 
   -0.019271  2a -> 71a                                                 
   -0.034154  2a -> 75a                                                 
 
 Starting right-hand LR-CC iteration for root                     11 ...
 ======================================================================
 Norm of residual vector:     0.01951801      Convergence:   1.00000000
 CPU time [min]:   114.758                   Wall time [min]:   115.671
 
 Iteration  1  CI energy:    -7.05898888  Energy decrease:   0.37375912
 ======================================================================
 Norm of residual vector:     0.00117708      Convergence:   0.04765592
 CPU time [min]:   114.806                   Wall time [min]:   115.672
 
 Iteration  2  CI energy:    -7.05991216  Energy decrease:   0.00092328
 ======================================================================
 Norm of residual vector:     0.00001844      Convergence:   0.00099789
 CPU time [min]:   114.854                   Wall time [min]:   115.674
 
 Iteration  3  CI energy:    -7.05991332  Energy decrease:   0.00000116
 ======================================================================
 Norm of residual vector:     0.0000E+00      Convergence:   6.8911E-06
 CPU time [min]:   114.903                   Wall time [min]:   115.676
 
 Iteration  4  CI energy:    -7.05991332  Energy decrease:   1.5862E-10
 ======================================================================
 
 Iteration has converged in  4 steps.
 
 Final results:
 Total LR-CCS energy [au]:            -7.059913320916
 Excitation energy [eV]:          10.1453
 Excitation energy [cm^-1]:    81827.76
 Absorption wavelength [nm]:     122.21
 Spin multiplicity:                     2
 
 
 
 Dominant CI coefficients
 Printing threshold:  1.00E-02
 
    0.998856  2a -> 43a                                                 
    0.016682  2a -> 70a                                                 
   -0.031965  2a -> 71a                                                 
    0.031387  2a -> 75a                                                 
 
 Starting right-hand LR-CC iteration for root                     12 ...
 ======================================================================
 Norm of residual vector:     0.04890398      Convergence:   1.00000000
 CPU time [min]:   114.951                   Wall time [min]:   115.677
 
 Iteration  1  CI energy:    -6.88373818  Energy decrease:   0.54900982
 ======================================================================
 Norm of residual vector:     0.00362335      Convergence:   0.13328021
 CPU time [min]:   114.998                   Wall time [min]:   115.679
 
 Iteration  2  CI energy:    -6.88202737  Energy decrease:   0.00171081
 ======================================================================
 Norm of residual vector:     0.00045566      Convergence:   0.00785922
 CPU time [min]:   115.047                   Wall time [min]:   115.680
 
 Iteration  3  CI energy:    -6.88200779  Energy decrease:   0.00001958
 ======================================================================
 Norm of residual vector:     0.00000995      Convergence:   0.00026627
 CPU time [min]:   115.097                   Wall time [min]:   115.682
 
 Iteration  4  CI energy:    -6.88200791  Energy decrease:   0.00000012
 ======================================================================
 Norm of residual vector:     0.0000E+00      Convergence:   5.2354E-06
 CPU time [min]:   115.149                   Wall time [min]:   115.684
 
 Iteration  5  CI energy:    -6.88200791  Energy decrease:   1.5435E-10
 ======================================================================
 
 Iteration has converged in  5 steps.
 
 Final results:
 Total LR-CCS energy [au]:            -6.882007910843
 Excitation energy [eV]:          14.9864
 Excitation energy [cm^-1]:   120873.49
 Absorption wavelength [nm]:      82.73
 Spin multiplicity:                     2
 
 
 
 Dominant CI coefficients
 Printing threshold:  1.00E-02
 
   -0.120415  2a -> 30a                                                 
    0.990577  2a -> 54a                                                 
   -0.059415  2a -> 102a                                                
    0.023936  2a -> 104a                                                
 
 Starting right-hand LR-CC iteration for root                     13 ...
 ======================================================================
 Norm of residual vector:     0.04890398      Convergence:   1.00000000
 CPU time [min]:   115.196                   Wall time [min]:   115.685
 
 Iteration  1  CI energy:    -6.88373818  Energy decrease:   0.54900982
 ======================================================================
 Norm of residual vector:     0.00362335      Convergence:   0.13328021
 CPU time [min]:   115.244                   Wall time [min]:   115.687
 
 Iteration  2  CI energy:    -6.88202737  Energy decrease:   0.00171081
 ======================================================================
 Norm of residual vector:     0.00045566      Convergence:   0.00785922
 CPU time [min]:   115.296                   Wall time [min]:   115.688
 
 Iteration  3  CI energy:    -6.88200779  Energy decrease:   0.00001958
 ======================================================================
 Norm of residual vector:     0.00000995      Convergence:   0.00026627
 CPU time [min]:   115.348                   Wall time [min]:   115.690
 
 Iteration  4  CI energy:    -6.88200791  Energy decrease:   0.00000012
 ======================================================================
 Norm of residual vector:     0.0000E+00      Convergence:   5.2354E-06
 CPU time [min]:   115.400                   Wall time [min]:   115.692
 
 Iteration  5  CI energy:    -6.88200791  Energy decrease:   1.5435E-10
 ======================================================================
 
 Iteration has converged in  5 steps.
 
 Final results:
 Total LR-CCS energy [au]:            -6.882007910843
 Excitation energy [eV]:          14.9864
 Excitation energy [cm^-1]:   120873.49
 Absorption wavelength [nm]:      82.73
 Spin multiplicity:                     2
 
 
 
 Dominant CI coefficients
 Printing threshold:  1.00E-02
 
    0.120415  2a -> 31a                                                 
    0.990577  2a -> 55a                                                 
   -0.023936  2a -> 102a                                                
   -0.059415  2a -> 104a                                                
 
 Starting right-hand LR-CC iteration for root                     14 ...
 ======================================================================
 Norm of residual vector:     0.03128480      Convergence:   1.00000000
 CPU time [min]:   115.449                   Wall time [min]:   115.693
 
 Iteration  1  CI energy:    -6.65935511  Energy decrease:   0.77339289
 ======================================================================
 Norm of residual vector:     0.00138677      Convergence:   0.05502119
 CPU time [min]:   115.497                   Wall time [min]:   115.695
 
 Iteration  2  CI energy:    -6.65921432  Energy decrease:   0.00014079
 ======================================================================
 Norm of residual vector:     0.00000808      Convergence:   0.00034510
 CPU time [min]:   115.546                   Wall time [min]:   115.697
 
 Iteration  3  CI energy:    -6.65921473  Energy decrease:   0.00000041
 ======================================================================
 Norm of residual vector:     0.0000E+00      Convergence:   1.8265E-06
 CPU time [min]:   115.595                   Wall time [min]:   115.698
 
 Iteration  4  CI energy:    -6.65921473  Energy decrease:   3.6321E-11
 ======================================================================
 
 Iteration has converged in  4 steps.
 
 Final results:
 Total LR-CCS energy [au]:            -6.659214727240
 Excitation energy [eV]:          21.0489
 Excitation energy [cm^-1]:   169770.94
 Absorption wavelength [nm]:      58.90
 Spin multiplicity:                     2
 
 
 
 Dominant CI coefficients
 Printing threshold:  1.00E-02
 
[...]
 ======================================================================
 Norm of residual vector:     0.00000107      Convergence:   0.00000644
 CPU time [min]:  1571.758                   Wall time [min]:   882.905
 
 Iteration  6  CI energy:    -6.70264072  Energy decrease:   2.1875E-09
 ======================================================================
 Norm of residual vector:     0.00000044      Convergence:   0.00000133
 CPU time [min]:  1582.583                   Wall time [min]:   888.410
 
 Iteration  7  CI energy:    -6.70264072  Energy decrease:   1.7613E-11
 ======================================================================
 Norm of residual vector:     0.0000E+00      Convergence:   3.3835E-07
 CPU time [min]:  1593.030                   Wall time [min]:   893.633
 
 Iteration  8  CI energy:    -6.70264072  Energy decrease:   2.3358E-11
 ======================================================================
 
 Iteration has converged in  8 steps.
 
 Final results:
 Total LR-CCSD energy [au]:           -6.702640720494
 Excitation energy [eV]:          21.0897
 Excitation energy [cm^-1]:   170100.29
 Absorption wavelength [nm]:      58.79
 Spin multiplicity:                     2
 
 
 
 Dominant CI coefficients
 Printing threshold:  1.00E-02
 
    0.035578  2a -> 38a                                                 
   -0.027402  2a -> 42a                                                 
   -0.016725  2a -> 43a                                                 
    0.998234  2a -> 70a                                                 
    0.023082  2a -> 122a                                                
   -0.022254  2a -> 123a                                                
 
 Starting right-hand LR-CC iteration for root                     16 ...
 ======================================================================
 Norm of residual vector:     0.07799155      Convergence:   1.00000000
 CPU time [min]:  1603.518                   Wall time [min]:   899.051
 
 Iteration  1  CI energy:    -6.70171193  Energy decrease:   0.77596269
 ======================================================================
 Norm of residual vector:     0.00663888      Convergence:   0.01400923
 CPU time [min]:  1614.151                   Wall time [min]:   904.180
 
 Iteration  2  CI energy:    -6.70262648  Energy decrease:   0.00091455
 ======================================================================
 Norm of residual vector:     0.00072989      Convergence:   0.00261692
 CPU time [min]:  1624.861                   Wall time [min]:   909.921
 
 Iteration  3  CI energy:    -6.70264100  Energy decrease:   0.00001452
 ======================================================================
 Norm of residual vector:     0.00006250      Convergence:   0.00027520
 CPU time [min]:  1635.559                   Wall time [min]:   915.217
 
 Iteration  4  CI energy:    -6.70264075  Energy decrease:   0.00000025
 ======================================================================
 Norm of residual vector:     0.00000593      Convergence:   0.00003411
 CPU time [min]:  1646.201                   Wall time [min]:   920.316
 
 Iteration  5  CI energy:    -6.70264072  Energy decrease:   0.00000003
 ======================================================================
 Norm of residual vector:     0.00000120      Convergence:   0.00000805
 CPU time [min]:  1657.738                   Wall time [min]:   925.798
 
 Iteration  6  CI energy:    -6.70264072  Energy decrease:   2.1934E-09
 ======================================================================
 Norm of residual vector:     0.00000058      Convergence:   0.00000150
 CPU time [min]:  1668.550                   Wall time [min]:   931.048
 
 Iteration  7  CI energy:    -6.70264072  Energy decrease:   2.6682E-11
 ======================================================================
 Norm of residual vector:     0.0000E+00      Convergence:   3.7075E-07
 CPU time [min]:  1679.708                   Wall time [min]:   936.483
 
 Iteration  8  CI energy:    -6.70264072  Energy decrease:   2.7234E-11
 ======================================================================
 
 Iteration has converged in  8 steps.
 
 Final results:
 Total LR-CCSD energy [au]:           -6.702640720495
 Excitation energy [eV]:          21.0897
 Excitation energy [cm^-1]:   170100.29
 Absorption wavelength [nm]:      58.79
 Spin multiplicity:                     2
 
 
 
 Dominant CI coefficients
 Printing threshold:  1.00E-02
 
    0.011584  2a -> 38a                                                 
    0.034235  2a -> 42a                                                 
   -0.031468  2a -> 43a                                                 
    0.998234  2a -> 75a                                                 
   -0.032051  2a -> 125a                                                
 
 Starting right-hand LR-CC iteration for root                     17 ...
 ======================================================================
 Norm of residual vector:     0.07374055      Convergence:   1.00000000
 CPU time [min]:  1689.846                   Wall time [min]:   941.386
 
 Iteration  1  CI energy:    -6.44425178  Energy decrease:   1.03342284
 ======================================================================
 Norm of residual vector:     0.00613330      Convergence:   0.01174463
 CPU time [min]:  1699.928                   Wall time [min]:   946.387
 
 Iteration  2  CI energy:    -6.44497890  Energy decrease:   0.00072712
 ======================================================================
 Norm of residual vector:     0.00048142      Convergence:   0.00250666
 CPU time [min]:  1709.928                   Wall time [min]:   951.530
 
 Iteration  3  CI energy:    -6.44499202  Energy decrease:   0.00001312
 ======================================================================
 Norm of residual vector:     0.00002853      Convergence:   0.00015856
 CPU time [min]:  1720.087                   Wall time [min]:   956.500
 
 Iteration  4  CI energy:    -6.44499185  Energy decrease:   0.00000017
 ======================================================================
 Norm of residual vector:     0.00000240      Convergence:   0.00000882
 CPU time [min]:  1730.944                   Wall time [min]:   961.826
 
 Iteration  5  CI energy:    -6.44499182  Energy decrease:   0.00000002
 ======================================================================
 Norm of residual vector:     0.00000032      Convergence:   0.00000241
 CPU time [min]:  1742.386                   Wall time [min]:   966.953
 
 Iteration  6  CI energy:    -6.44499182  Energy decrease:   2.2434E-09
 ======================================================================
 Norm of residual vector:     0.0000E+00      Convergence:   4.8984E-07
 CPU time [min]:  1752.507                   Wall time [min]:   971.941
 
 Iteration  7  CI energy:    -6.44499182  Energy decrease:   1.1744E-10
 ======================================================================
 
 Iteration has converged in  7 steps.
 
 Final results:
 Total LR-CCSD energy [au]:           -6.444991819571
 Excitation energy [eV]:          28.1007
 Excitation energy [cm^-1]:   226647.69
 Absorption wavelength [nm]:      44.12
 Spin multiplicity:                     2
 
 
 
 Dominant CI coefficients
 Printing threshold:  1.00E-02
 
   -0.999883  2a -> 83a                                                 
 
 Starting right-hand LR-CC iteration for root                     18 ...
 ======================================================================
 Norm of residual vector:     0.07374055      Convergence:   1.00000000
 CPU time [min]:  1762.707                   Wall time [min]:   977.001
 
 Iteration  1  CI energy:    -6.44425178  Energy decrease:   1.03342284
 ======================================================================
 Norm of residual vector:     0.00613357      Convergence:   0.01174521
 CPU time [min]:  1773.957                   Wall time [min]:   982.398
 
 Iteration  2  CI energy:    -6.44497890  Energy decrease:   0.00072712
 ======================================================================
 Norm of residual vector:     0.00048153      Convergence:   0.00250653
 CPU time [min]:  1785.455                   Wall time [min]:   987.389
 
 Iteration  3  CI energy:    -6.44499202  Energy decrease:   0.00001311
 ======================================================================
 Norm of residual vector:     0.00002858      Convergence:   0.00015893
 CPU time [min]:  1796.946                   Wall time [min]:   992.400
 
 Iteration  4  CI energy:    -6.44499185  Energy decrease:   0.00000017
 ======================================================================
 Norm of residual vector:     0.00000247      Convergence:   0.00001079
 CPU time [min]:  1808.394                   Wall time [min]:   997.348
 
 Iteration  5  CI energy:    -6.44499182  Energy decrease:   0.00000002
 ======================================================================
 Norm of residual vector:     0.00000047      Convergence:   0.00000364
 CPU time [min]:  1818.012                   Wall time [min]:  1002.154
 
 Iteration  6  CI energy:    -6.44499182  Energy decrease:   2.2659E-09
 ======================================================================
 Norm of residual vector:     0.0000E+00      Convergence:   6.2610E-07
 CPU time [min]:  1828.009                   Wall time [min]:  1007.196
 
 Iteration  7  CI energy:    -6.44499182  Energy decrease:   1.3856E-10
 ======================================================================
 
 Iteration has converged in  7 steps.
 
 Final results:
 Total LR-CCSD energy [au]:           -6.444991819532
 Excitation energy [eV]:          28.1007
 Excitation energy [cm^-1]:   226647.69
 Absorption wavelength [nm]:      44.12
 Spin multiplicity:                     2
 
 
 
 Dominant CI coefficients
 Printing threshold:  1.00E-02
 
   -0.999883  2a -> 88a                                                 
 
 Starting right-hand LR-CC iteration for root                     19 ...
 ======================================================================
 Norm of residual vector:     0.07374055      Convergence:   1.00000000
 CPU time [min]:  1838.031                   Wall time [min]:  1012.325
 
 Iteration  1  CI energy:    -6.44425178  Energy decrease:   1.03342284
 ======================================================================
 Norm of residual vector:     0.00613316      Convergence:   0.01174547
 CPU time [min]:  1847.907                   Wall time [min]:  1017.337
 
 Iteration  2  CI energy:    -6.44497890  Energy decrease:   0.00072712
 ======================================================================
 Norm of residual vector:     0.00048163      Convergence:   0.00250629
 CPU time [min]:  1857.859                   Wall time [min]:  1022.413
 
 Iteration  3  CI energy:    -6.44499202  Energy decrease:   0.00001311
 ======================================================================
 Norm of residual vector:     0.00002857      Convergence:   0.00015859
 CPU time [min]:  1867.509                   Wall time [min]:  1027.294
 
 Iteration  4  CI energy:    -6.44499185  Energy decrease:   0.00000017
 ======================================================================
 Norm of residual vector:     0.00000240      Convergence:   0.00000847
 CPU time [min]:  1877.659                   Wall time [min]:  1033.095
 
 Iteration  5  CI energy:    -6.44499182  Energy decrease:   0.00000002
 ======================================================================
 Norm of residual vector:     0.00000028      Convergence:   0.00000195
 CPU time [min]:  1887.723                   Wall time [min]:  1038.027
 
 Iteration  6  CI energy:    -6.44499182  Energy decrease:   2.2459E-09
 ======================================================================
 Norm of residual vector:     0.0000E+00      Convergence:   4.5330E-07
 CPU time [min]:  1898.018                   Wall time [min]:  1043.304
 
 Iteration  7  CI energy:    -6.44499182  Energy decrease:   1.1524E-10
 ======================================================================
 
 Iteration has converged in  7 steps.
 
 Final results:
 Total LR-CCSD energy [au]:           -6.444991819580
 Excitation energy [eV]:          28.1007
 Excitation energy [cm^-1]:   226647.69
 Absorption wavelength [nm]:      44.12
 Spin multiplicity:                     2
 
 
 
 Dominant CI coefficients
 Printing threshold:  1.00E-02
 
    0.999883  2a -> 90a                                                 
 
 Starting right-hand LR-CC iteration for root                     20 ...
 ======================================================================
 Norm of residual vector:     0.07374055      Convergence:   1.00000000
 CPU time [min]:  1908.128                   Wall time [min]:  1048.236
 
 Iteration  1  CI energy:    -6.44425178  Energy decrease:   1.03342284
 ======================================================================
 Norm of residual vector:     0.00613370      Convergence:   0.01174546
 CPU time [min]:  1917.962                   Wall time [min]:  1053.089
 
 Iteration  2  CI energy:    -6.44497890  Energy decrease:   0.00072712
 ======================================================================
 Norm of residual vector:     0.00048163      Convergence:   0.00250650
 CPU time [min]:  1927.731                   Wall time [min]:  1057.931
 
 Iteration  3  CI energy:    -6.44499202  Energy decrease:   0.00001311
 ======================================================================
 Norm of residual vector:     0.00002858      Convergence:   0.00015907
 CPU time [min]:  1937.665                   Wall time [min]:  1062.734
 
 Iteration  4  CI energy:    -6.44499185  Energy decrease:   0.00000017
 ======================================================================
 Norm of residual vector:     0.00000249      Convergence:   0.00001139
 CPU time [min]:  1947.393                   Wall time [min]:  1067.526
 
 Iteration  5  CI energy:    -6.44499182  Energy decrease:   0.00000002
 ======================================================================
 Norm of residual vector:     0.00000052      Convergence:   0.00000386
 CPU time [min]:  1956.894                   Wall time [min]:  1072.348
 
 Iteration  6  CI energy:    -6.44499182  Energy decrease:   2.2730E-09
 ======================================================================
 Norm of residual vector:     0.0000E+00      Convergence:   6.6128E-07
 CPU time [min]:  1966.633                   Wall time [min]:  1077.157
 
 Iteration  7  CI energy:    -6.44499182  Energy decrease:   1.4259E-10
 ======================================================================
 
 Iteration has converged in  7 steps.
 
 Final results:
 Total LR-CCSD energy [au]:           -6.444991819521
 Excitation energy [eV]:          28.1007
 Excitation energy [cm^-1]:   226647.69
 Absorption wavelength [nm]:      44.12
 Spin multiplicity:                     2
 
 Dominant CI coefficients
 Printing threshold:  1.00E-02
 
    0.999883  2a -> 91a                                                 

 ************************ 2018-03-21 14:05:56 *************************
 Executing goldstone...

 Generation of CC equations in terms of H and T...
 Generation of antisymmetrized Goldstone diagrams...
 Number of diagrams in T^1 equations:    15
 Number of diagrams in T^2 equations:    37
 Number of diagrams in T^3 equations:    47
 Translation of diagrams to factorized equations...
 Optimizing intermediate calculation...
 Optimizing right-hand EOMCC calculation...
 Number of floating-point operations per iteration step:   1.2323E+11
 Probable CPU time per iteration step (hours):      1.23
 Required memory (Mbytes):  770103.5
 Number of intermediates:                                 160
 Number of intermediates to be stored:                     62
 Length of intermediate file (Mbytes):   11889.0

 ************************ 2018-03-21 14:06:00 *************************
 Executing xmrcc...

 **********************************************************************
 CC(                     3 ) calculation 
 
 
 Allocation of****** Mbytes of memory...
 Number of spinorbitals:                   558
 Number of alpha electrons:                        2
 Number of beta electrons:                         1
 z-component of spin:  0.5
 Spatial symmetry:                      1
 Convergence criterion:  1.0E-07
 Construction of occupation graphs...
 Number of                     0 -fold excitations:                      1
 Number of                     1 -fold excitations:                    172
 Number of                     2 -fold excitations:                  26618
 Number of                     3 -fold excitations:                1353612
 Total number of configurations:                1380403
 Calculation of coupling coefficients...
 Length of intermediate file (Mbytes):    8940.2
 
 ======================================================================
 
 ======================================================================
 
 ======================================================================
 
 ======================================================================
 
 ======================================================================
 
 ======================================================================
 
 ======================================================================
 
 ======================================================================
 
 ======================================================================
 
 ======================================================================
 
 ======================================================================
 
 ======================================================================
 
 ======================================================================
 
 ======================================================================
 
 ======================================================================
 
 ======================================================================
 
 ======================================================================
 
 ======================================================================
 
 ======================================================================
 
 ======================================================================
 
 Memory requirements /Mbyte/: 
               Minimal        Optimal
 Real*8:       7013.6321     47522.6402
 Integer:        13.0524
 Total:        7026.6845     47535.6925
 

 ************************ 2018-03-21 14:06:03 *************************
 Executing mrcc...

 **********************************************************************
 LR-CCSDT calculation                                                   
 
 
 OpenMP parallel version is running.
 Number of CPUs:  32
 Allocation of20466.9 Mbytes of memory...
 Number of spinorbitals: 558
 Number of alpha electrons:  2
 Number of beta  electrons:  1
 z-component of spin:  0.5
 Spatial symmetry: 1
 Convergence criterion:  1.0E-07
 Construction of occupation graphs...
 Number of 0-fold excitations: 1
 Number of 1-fold excitations: 172
 Number of 2-fold excitations: 26618
 Number of 3-fold excitations: 1353612
 Total number of determinants: 1380403
 Calculation of coupling coefficients...
 Initial cluster amplitudes are read from unit 16.
 Length of intermediate file (Mbytes):    8940.2
 Reading integral list from unit 55...
 Warning! Executing out-of-core algorithm!
 Reading integral list: cycle  1 of  3
 Sorting integrals...
 Reading integral list: cycle  2 of  3
 Sorting integrals...
 Reading integral list: cycle  3 of  3
 Sorting integrals...
 Reading integral list: cycle  1 of  3
 Sorting integrals...
 Reading integral list: cycle  2 of  3
 Sorting integrals...
