 --invoking executable--
/home/nike/cfour_v2.00beta/cfour_v2.00beta/bin/xjoda


   *************************************************************************
         <<<     CCCCCC     CCCCCC   |||     CCCCCC     CCCCCC   >>>
       <<<      CCC        CCC       |||    CCC        CCC         >>>
      <<<      CCC        CCC        |||   CCC        CCC            >>>
    <<<        CCC        CCC        |||   CCC        CCC              >>>
      <<<      CCC        CCC        |||   CCC        CCC            >>>
       <<<      CCC        CCC       |||    CCC        CCC         >>>
         <<<     CCCCCC     CCCCCC   |||     CCCCCC     CCCCCC   >>>
   *************************************************************************

     ****************************************************************
     * CFOUR Coupled-Cluster techniques for Computational Chemistry *
     ****************************************************************
 

   Department of Chemistry                Institut fuer Physikalische Chemie
   University of Texas at Austin          Universitaet Mainz
   Austin, TX  78712, USA                 D-55099 Mainz, Germany
 
                       Version 2.00beta
 
                     blg8332.int.ets1.calculquebec.ca                  
                     Mo 17. Feb 23:10:26 EST 2020                      
                     integer*8 version is running
 
********************************************************************************
*                          Input from ZMAT file                                *
********************************************************************************
TITLE                                                                           
Br                                                                              
Br 1 R                                                                          
                                                                                
R=4.31051669082                                                                 
                                                                                
*ACES2(CALC=CCSD(T)                                                             
UNITS=BOHR                                                                      
#GEOM=2.2810272*10/5.29177210903_in2013JMSLeRoy                                 
#COORD=CARTESIAN                                                                
COORD=INTERNAL                                                                  
PRINT=4                                                                         
JODA_PRINT=4                                                                    
INPUT_MRCC=OFF                                                                  
#CC_PROG=MRCC                                                                   
FROZEN_CORE=ON                                                                  
#DROPMO=1>5                                                                     
CONTRACTION=GENERAL                                                             
#CONTRACTION=SEGMENTED                                                          
RELATIVISTIC=OFF                                                                
#EXCITE=EOMEE                                                                   
#ESTATE_CONV=5                                                                  
#ESTATE_SYM=2/2/2/2/2/2/2/2                                                     
XFORM_TOL=18                                                                    
SAVE_INTS=ON                                                                    
SCF_EXPORDER=6                                                                  
SCF_EXPSTART=5                                                                  
#SCF_DAMPING=1000                                                               
SCF_EXTRAPOLATION=ON                                                            
SCF_CONV=13                                                                     
SCF_MAXCYC=9999                                                                 
CC_CONV=9                                                                       
CC_MAXCYC=999                                                                   
T3_EXTRAPOL=ON                                                                  
REFERENCE=RHF                                                                   
CHARGE=+0                                                                       
MULT=1                                                                          
ABCDTYPE=STANDARD                                                               
#OCCUPATION=3-2-2-0-1-0-0-0/3-1-1-0-1-0-0-0                                     
MEM=12                                                                          
MEM_UNIT=GB                                                                     
BASIS=SPECIAL)                                                                  
                                                                                
BR:def2-TZVPP                                                                   
BR:def2-TZVPP                                                                   
                                                                                
********************************************************************************
  @GTFLGS-W, Keyword #GEOM not known and is ignored.
  @GTFLGS-W, Keyword #COORD not known and is ignored.
  @GTFLGS-W, Keyword #CC_PROG not known and is ignored.
  @GTFLGS-W, Keyword #DROPMO not known and is ignored.
  @GTFLGS-W, Keyword #CONTRACTION not known and is ignored.
  @GTFLGS-W, Keyword #EXCITE not known and is ignored.
  @GTFLGS-W, Keyword #ESTATE_CONV not known and is ignored.
  @GTFLGS-W, Keyword #ESTATE_SYM not known and is ignored.
  @GTFLGS-W, Keyword #SCF_DAMPING not known and is ignored.
  @GTFLGS-W, Keyword #OCCUPATION not known and is ignored.
    -------------------------------------------------------------------
                    CFOUR Control Parameters 
    -------------------------------------------------------------------
        External           Internal           Value            Units
          Name               Name
    -------------------------------------------------------------------
       ABCDTYPE             IABCDT         STANDARD     [  0]   ***   
       ANHARMONIC           IANHAR         OFF          [  0]   ***   
       ANH_ALGORIT          IANALG         STANDARD     [  0]   ***   
       ANH_DERIVAT          IANDER         SECOND       [  1]   ***   
       ANH_STEPSIZ          ICUBST             50000          x 10-6  
       ANH_SYMMETR          IANHSM         ABELIAN      [  0]   ***   
       AO_LADDERS           IAOLAD         SINGLEPASS   [  1]   ***   
       BASIS                IBASIS         SPECIAL      [  0]   ***   
       BREIT                IBREIT         OFF          [  0]   ***   
       BRUCK_CONV           IBRTOL          10D-  4             ***   
       BRUECKNER            IBRKNR             OFF      [  0]   ***   
       BUFFERSIZE           IBUFFS            600               ***   
       CACHE_RECS           ICHREC             10               ***   
       CALCLEVEL            ICLLVL           CCSD(T)    [ 22]   ***   
       CCORBOPT             ICCORB             OFF      [  0] x 0.01  
       CC_CONV              ICCCNV          10D-  9             ***   
       CC_EXPORDER          ICCEOR              5               ***   
       CC_EXTRAPOL          ICCEXT             DIIS     [  1]   ***   
       CC_MAXCYC            ICCCYC            999              cycles 
       CC_PROGRAM           ICCPRO         VCC          [  0]   ***   
       CHARGE               ICHRGE              0               ***   
       CHOLESKY             ICHOLE         OFF          [  0]   ***   
       CIS_CONV             ICISTL              5               ***   
       COMM_SIZE            IPSIZE            ***               ***   
       CONSTANT             ICONST         OLD          [  1]   ***   
       CONTINUUM            ICONTU         NONE         [  0]   ***   
       CONTRACTION          ICNTYP          GENERAL     [  1]   ***   
       COORDINATES          ICOORD         INTERNAL     [  0]   ***   
       CPHF_CONVER          ICPHFT          10D- 16             ***   
       CPHF_MAXCYC          ICPHFC             64              cycles 
       CUBIC                ICUBIC         OFF          [  0]   ***   
       CURVILINEAR          ICURVY            OFF       [  0]   ***   
       DBOC                 IDBOC          OFF          [  0]   ***   
       DCT                  IDCT           OFF          [  0]   ***   
       DERIV_LEV            IDRLVL            ZERO      [  0]   ***   
       DIAG_MRCC            IEOMST          10D-  0             ***   
       DIFF_TYPE            IDIFTY         RELAXED      [  0]   ***   
       DIRECT               IDIRCT         OFF          [  0]   ***   
       DROPMO               IDRPMO      NONE         
       ECP                  IECP           OFF          [  0]   ***   
       EIGENVECTOR          IVEC                1               ***   
       EL_ANHARM            IELANH         OFF          [  0]   ***   
       EOMFOLLOW            IEOMSR         ENERGY       [  0]   ***   
       EOM_MRCC             IMRCCE         NEW          [  1]   ***   
       EOM_NONIT            EOMNON         OFF          [  0]   ***   
       EOM_NSING            IEOMSI          10D-  0             ***   
       EOM_NSTATES          IMRCCD         DAVIDSON     [  0]   ***   
       EOM_NTRIP            IEOMTR          10D-  0             ***   
       EOM_ORDER            IEXORD         ENERGY       [  0]   ***   
       ESTATE_CONV          IEXTOL          10D-  5             ***   
       ESTATE_DIAG          IEXDIG         ITERATIVE    [  0]   ***   
       ESTATE_LOCK          IESLOC         ON           [  1]   ***   
       ESTATE_MAXC          IEXMXC             20               ***   
       ESTATE_PROP          IEXPRP         OFF          [  0]   ***   
       EVAL_HESS            IRECAL              0            # of cyc.
       EXCITATION           IEXCIT              0               ***   
       EXCITE               IEXCIT         NONE         [  0]   ***   
       FCGRADNEW            IFCGNW         OFF          [  0]   ***   
       FC_FIELD             IFINFC              0             x 10-6  
       FD_CALTYPE           IFDCAL         GRADONLY     [  0]   ***   
       FD_PROJECT           IFDPRJ         OFF          [  1]   ***   
       FD_STEPSIZE          IDISFD              0            10-4 bohr
       FD_USEGROUP          IFDGRP         FULL         [  0]   ***   
       FILE_RECSIZ          IFLREC              4096           words  
       FINITE_PERT          IFIPER              0             x 10-6  
       FIXGEOM              IFIXGM         OFF          [  0]   ***   
       FOCK                 IFOCK          AO           [  1]   ***   
       FREQ_ALGORI          IVIALG         STANDARD     [  0]   ***   
       FROZEN_CORE          IFROCO         ON           [  1]   ***   
       FROZEN_VIRT          IFROVI         OFF          [  0]   ***   
       GAMMA_ABCD           IGABCD         STORE        [  0]   ***   
       GAMMA_ABCI           IGABCI         STORE        [  0]   ***   
       GENBAS_1             IGNBS1              0               ***   
       GENBAS_2             IGNBS2              0               ***   
       GENBAS_3             IGNBS3              0               ***   
       GENBAS_4             IGNBS4              0               ***   
       GEO_CONV             ICONTL              5              H/bohr 
       GEO_MAXCYC           IOPTCY             50               ***   
       GEO_MAXSTEP          IMXSTP            300            millibohr
       GEO_METHOD           INR            SINGLE_POINT [  5]   ***   
       GIAO                 IGIAO          OFF          [  1]   ***   
       GIMIC                IGIMIC         OFF          [  0]   ***   
       GRID                 IGRID          OFF          [  0]   ***   
       GRID_ALGO            IGALGO         SERIAL       [  0]   ***   
       GUESS                IGUESS            MOREAD    [  0]   ***   
       HBAR                 IHBAR              OFF      [  0]   ***   
       HESS_TYPE            IHESTP         SCF          [  0]   ***   
       HF2_FILE             IHF2Fl         USE          [  1]   ***   
       HFSTABILITY          ISTABL         OFF          [  0]   ***   
       INCORE               INCORE             OFF      [  0]   ***   
       INPUT_MRCC           IMRCC          OFF          [  0]   ***   
       INTEGRALS            INTTYP             VMOL     [  1]   ***   
       JODA_PRINT           IJPRNT              4               ***   
       LINDEP_TOL           ILINDP              8               ***   
       LINEQ_CONV           IZTACN          10D-  7           cycles  
       LINEQ_EXPOR          ILMAXD              5               ***   
       LINEQ_MAXCY          ILMAXC             50               ***   
       LINEQ_TYPE           ILTYPE         DIIS         [  1]   ***   
       LOCK_ORBOCC          ILOCOC             OFF      [  0]   ***   
       MEMORY_SIZE          IMEMSZ         *********           words  
       MEM_UNIT             IMEMU          GB           [  3]   ***   
       MRCC                 IMRCCC         OFF          [  0]   ***   
       MULTIPLICTY          IMULTP              1               ***   
       NEGEVAL              IDIE             ABORT      [  0]   ***   
       NEWNORM              INEWNO         OFF          [  0]   ***   
       NON-HF               INONHF             OFF      [  0]   ***   
       NTOP_TAMP            ITOPT2             15               ***   
       NUC_MODEL            INUCMO         POINT        [  0]   ***   
       OCCUPATION           IOCCU   ESTIMATED BY SCF 
       OPEN-SHELL           IOPEN          SPIN-ORBITAL [  0]   ***   
       ORBITALS             IORBTP           STANDARD   [  0]   ***   
       PARALLEL             IPARAL         ON           [  1]   ***   
       PARA_INT             IPINTS         ON           [  1]   ***   
       PARA_PRINT           IPPRIN              0               ***   
       PERT_ORB             IPTORB         STANDARD     [  0]   ***   
       POINTS               IGRDFD              0               ***   
       PRINT                IPRNT               4               ***   
       PROPS                IPROPS             OFF      [  0]   ***   
       PROP_INTEGR          IINTYP         INTERNAL     [  0]   ***   
       PSI                  IPSI           OFF          [  0]   ***   
       QUARTIC              IQUART         OFF          [  0]   ***   
       RAMAN_INT            IRAMIN         OFF          [  0]   ***   
       RAMAN_ORB            IRAMRE         UNRELAXED    [  0]   ***   
       RDO                  IRDOFM             OFF      [  0]   ***   
       REFERENCE            IREFNC             RHF      [  0]   ***   
       RELATIVIST           IRELAT         OFF          [  0]   ***   
       RELAX_DENS           IRDENS             OFF      [  0]   ***   
       RESET_FLAGS          IRESET             OFF      [  0]   ***   
       RESTART_CC           ICCRES         OFF          [  0]   ***   
       ROT_EVEC             ROTVEC              0               ***   
       SAVE_INTS            ISVINT              ON      [  1]   ***   
       SCALE_ON             ISTCRT              0               ***   
       SCF_CONV             ISCFCV          10D- 13             ***   
       SCF_DAMPING          IDAMP               0             x 10-3  
       SCF_EXPORDE          IRPPOR              6               ***   
       SCF_EXPSTAR          IRPPLS              5               ***   
       SCF_EXTRAPO          IRPP                ON      [  1]   ***   
       SCF_MAXCYC           ISCFCY            ***              cycles 
       SCF_NOSTOP           ISCFST         OFF          [  0]   ***   
       SCF_PRINT            ISCFPR              0               ***   
       SD_FIELD             IFINSD              0             x 10-6  
       SEQUENCE             ISEQUE         OFF          [  0]   ***   
       SOPERT               IPERSO         OFF          [  0]   ***   
       SPHERICAL            IDFGHI             ON       [  1]   ***   
       SPINORBIT            ISOCAL         OFF          [  0]   ***   
       SPINROTATIO          ISRCON         OFF          [  0]   ***   
       SPIN_FLIP            ISPFLP         OFF          [  0]   ***   
       SPIN_ORBIT           ISPORB         OFF          [  0]   ***   
       SPIN_SCAL            ISCSMP         OFF          [  0]   ***   
       SUBGROUP             ISUBGP         DEFAULT      [  0]   ***   
       SUBGRPAXIS           ISBXYZ         X            [  0]   ***   
       SYMMETRY             ISYM             ON         [  0]   ***   
       SYM_CHECK            ISYMCK         OVERRIDE     [  1]   ***   
       T3_EXTRAPOL          IT3EXT         ON           [  1]   ***   
       TAMP_SUM             IEVERY              5               ***   
       TESTSUITE            ITESTS         OFF          [  0]   ***   
       THERMOCH             ITHERM         OFF          [  0]   ***   
       TOL_CHOLESK          ITOLCH          10D-  4             ***   
       TRANGRAD             IRESRM         OFF          [  0]   ***   
       TRANS_INV            ITRAIN         USE          [  0]   ***   
       TREAT_PERT           ITREAT         SIMULTANEOUS [  0]   ***   
       UIJ_THRESHO          IUIJTH              1               ***   
       UNITS                IUNITS         BOHR         [  1]   ***   
       UNOS                 IUNOS          OFF          [  0]   ***   
       UPDATE_HESS          IHUPDT         ON           [  1]   ***   
       VIBPHASE             ISETPH         STANDARD     [  0]   ***   
       VIBRATION            IVIB              NO        [  0]   ***   
       VIB_ALGORIT          IGEALG         STANDARD     [  0]   ***   
       VNATORB              IVNORB         OFF          [  0]   ***   
       VTRAN                IVTRAN         FULL/PARTIAL [  0]   ***   
       XFIELD               IXEFLD              0             x 10-6  
       XFORM_TOL            IXFTOL          10D- 18             ***   
       YFIELD               IYEFLD              0             x 10-6  
       ZFIELD               IZEFLD              0             x 10-6  
    -------------------------------------------------------------------
   2 entries found in Z-matrix 
   Job Title : TITLE                                                                           
 Variable names read by FETCHZ
  1           
  2           
  3           
  4 R         
  5           
  6           
 Atomic symbols read by FETCHZ
  1 Br   
  2 Br   
 Connectivity matrix read by FETCHZ
  1   0
  2   0
  3   0
  4   1
  5   0
  6   0
   There are  1 unique internal coordinates.
   Of these,  0 will be optimized.
   User supplied Z-matrix: 
--------------------------------------------------------------------------------
       SYMBOL    BOND      LENGTH    ANGLE     ANGLE     DIHED     ANGLE
                  TO      (ANGST)    WRT      (DEG)      WRT      (DEG)
--------------------------------------------------------------------------------
        Br   
        Br         1         R    
                  *Initial values for internal coordinates* 
                      Name             Value
                        R               4.3105166908
--------------------------------------------------------------------------------
  1  BR        35    78.91834
  2  BR        35    78.91834
   78.9183361000
   78.9183361000
 After translation to center of mass coordinates 
        0.000000000000    0.000000000000   -2.155258345410
        0.000000000000    0.000000000000    2.155258345410
  Inertia tensor (amu*bohr**2)
  733.17321    0.00000    0.00000
    0.00000  733.17321    0.00000
    0.00000    0.00000    0.00000
    Inertia tensor:
      733.173208344901    0.000000000000    0.000000000000
        0.000000000000  733.173208344901    0.000000000000
        0.000000000000    0.000000000000    0.000000000000
    Principal axis orientation for molecular system: 
       -0.000000000000    0.000000000000    2.155258345410
        0.000000000000    0.000000000000   -2.155258345410
    Diagonalized inertia tensor:
      733.173208344901    0.000000000000    0.000000000000
        0.000000000000  733.173208344901    0.000000000000
        0.000000000000    0.000000000000    0.000000000000
    Eigenvectors of inertia tensor: 
        1.000000000000    0.000000000000    0.000000000000
        0.000000000000    1.000000000000    0.000000000000
        0.000000000000    0.000000000000   -1.000000000000
 factor:   60.1997200000000     
   Rotational constants (in cm-1): 
          0.0821084558             0.0821084558
   Rotational constants (in MHz): 
       2461.5499247226          2461.5499247226
  @SYMMETRY-I, Handedness of inertial frame:-1.00000
  @SYMMETRY-I, Sense of inertial frame y-axis will be changed.
  @SYMMETRY-I, The symmetry group is 2-fold degenerate.
  @SYMMETRY-I, The molecule belongs to a point group with doubly degenerate representations.
  @SYMMETRY-I, The molecule is linear.
   Principal axis orientation for molecule:
       -0.000000000000    0.000000000000    2.155258345410
        0.000000000000    0.000000000000   -2.155258345410
   Reflection in plane  3 is a valid symmetry operation.
   Rotation about  3 is a valid symmetry operation 
   Reflection in plane  2 is a valid symmetry operation.
   Rotation about  2 is a valid symmetry operation 
   Reflection in plane  1 is a valid symmetry operation.
   Rotation about  1 is a valid symmetry operation 
   The molecule possesses an inversion center. 
  Symmetry bits:    7   7   1
********************************************************************************
   The full molecular point group is DXh .
   The largest Abelian subgroup of the full molecular point group is D2h .
   The computational point group is D2h .
********************************************************************************
--------------------------------------------------------------------------------
   Analysis of internal coordinates specified by Z-matrix 
--------------------------------------------------------------------------------
   *The nuclear repulsion energy is  284.188668752600336 a.u.
   *There is   1 degree of freedom within the tot. symm. molecular subspace.
   *Z-matrix requests optimization of   0 coordinates.
   *The optimization is constrained.
   *The following   1 parameters can have non-zero 
    derivatives within the totally symmetric subspace:
             R    [ 1]
   *The following   0 parameters are to be optimized:

   *The following coordinates must be varied in an  unconstrained optimization.
             R    [ 1]
--------------------------------------------------------------------------------
 ----------------------------------------------------------------
 Z-matrix   Atomic            Coordinates (in bohr)
  Symbol    Number           X              Y              Z
 ----------------------------------------------------------------
     BR       35        -0.00000000     0.00000000     2.15525835
     BR       35         0.00000000     0.00000000    -2.15525835
 ----------------------------------------------------------------
   Interatomic distance matrix (Angstroms) 
 
                 BR            BR   
                [ 1]        [ 2]
  BR   [ 1]     0.00000
  BR   [ 2]     2.28103     0.00000
  Inertia tensor (amu*bohr**2)
  733.17321    0.00000    0.00000
    0.00000  733.17321    0.00000
    0.00000    0.00000    0.00000
   Rotational constants (in cm-1): 
          0.0821084558             0.0000000000
   Rotational constants (in MHz): 
       2461.5499247226             0.0000000000
  @GTFLGS-W, Keyword #GEOM not known and is ignored.
  @GTFLGS-W, Keyword #COORD not known and is ignored.
  @GTFLGS-W, Keyword #CC_PROG not known and is ignored.
  @GTFLGS-W, Keyword #DROPMO not known and is ignored.
  @GTFLGS-W, Keyword #CONTRACTION not known and is ignored.
  @GTFLGS-W, Keyword #EXCITE not known and is ignored.
  @GTFLGS-W, Keyword #ESTATE_CONV not known and is ignored.
  @GTFLGS-W, Keyword #ESTATE_SYM not known and is ignored.
  @GTFLGS-W, Keyword #SCF_DAMPING not known and is ignored.
  @GTFLGS-W, Keyword #OCCUPATION not known and is ignored.
  There are  28 frozen-core orbitals.
  There are   96 basis functions.
 @GEOPT-W, Archive file not created for single-point calculation.
  @CHECKOUT-I, Total execution time (CPU/WALL):        0.49/       0.88 seconds.
--executable xjoda finished with status     0 in        5.33 seconds (walltime).
 --invoking executable--
/home/nike/cfour_v2.00beta/cfour_v2.00beta/bin/xvmol
 Serial version of molecule started
********************************************************************************
                    Input from MOL file
********************************************************************************
INTGRL        1    0    1    0    0    0    0    0    0                         
         *** CFOUR Program System (Release V0.1) ***                            
TITLE                                                                           
    1    3 X  Y   Z   0.10E-08              0    0                              
   9999.00      3.00                                                            
         35.00000000    1    4    1    1    1    1                              
BR#1  -0.000000000000000   0.000000000000000   2.155258345410000                
   17    6                                                                      
   565073.252560000       2.366031469000000E-004  0.000000000000000E+000        
  0.000000000000000E+000  0.000000000000000E+000  0.000000000000000E+000        
  0.000000000000000E+000                                                        
   84701.7231790000       1.834833250800000E-003  0.000000000000000E+000        
  0.000000000000000E+000  0.000000000000000E+000  0.000000000000000E+000        
  0.000000000000000E+000                                                        
   19276.2719000000       9.546584986000001E-003  0.000000000000000E+000        
  0.000000000000000E+000  0.000000000000000E+000  0.000000000000000E+000        
  0.000000000000000E+000                                                        
   5456.42845760000       3.887714215300000E-002  0.000000000000000E+000        
  0.000000000000000E+000  0.000000000000000E+000  0.000000000000000E+000        
  0.000000000000000E+000                                                        
   1776.95035000000       0.127183142310000       0.000000000000000E+000        
  0.000000000000000E+000  0.000000000000000E+000  0.000000000000000E+000        
  0.000000000000000E+000                                                        
   639.193982760000       0.304376621910000       0.000000000000000E+000        
  0.000000000000000E+000  0.000000000000000E+000  0.000000000000000E+000        
  0.000000000000000E+000                                                        
   248.788239610000       0.444909404970000       0.000000000000000E+000        
  0.000000000000000E+000  0.000000000000000E+000  0.000000000000000E+000        
  0.000000000000000E+000                                                        
   98.6783054940000       0.243816430580000       0.000000000000000E+000        
  0.000000000000000E+000  0.000000000000000E+000  0.000000000000000E+000        
  0.000000000000000E+000                                                        
   606.078245680000       0.000000000000000E+000 -2.652715870900000E-002        
  0.000000000000000E+000  0.000000000000000E+000  0.000000000000000E+000        
  0.000000000000000E+000                                                        
   188.455984840000       0.000000000000000E+000 -0.124845848090000             
  0.000000000000000E+000  0.000000000000000E+000  0.000000000000000E+000        
  0.000000000000000E+000                                                        
   31.4971445060000       0.000000000000000E+000  0.564686835590000             
  0.000000000000000E+000  0.000000000000000E+000  0.000000000000000E+000        
  0.000000000000000E+000                                                        
   13.7360083200000       0.000000000000000E+000  0.555552685640000             
  0.000000000000000E+000  0.000000000000000E+000  0.000000000000000E+000        
  0.000000000000000E+000                                                        
   21.2032127660000       0.000000000000000E+000  0.000000000000000E+000        
 -0.249409204930000       0.000000000000000E+000  0.000000000000000E+000        
  0.000000000000000E+000                                                        
   3.76164201780000       0.000000000000000E+000  0.000000000000000E+000        
  0.712131197430000       0.000000000000000E+000  0.000000000000000E+000        
  0.000000000000000E+000                                                        
   1.77359339620000       0.000000000000000E+000  0.000000000000000E+000        
  0.000000000000000E+000   1.00000000000000       0.000000000000000E+000        
  0.000000000000000E+000                                                        
  0.451974136640000       0.000000000000000E+000  0.000000000000000E+000        
  0.000000000000000E+000  0.000000000000000E+000   1.00000000000000             
  0.000000000000000E+000                                                        
  0.166133770990000       0.000000000000000E+000  0.000000000000000E+000        
  0.000000000000000E+000  0.000000000000000E+000  0.000000000000000E+000        
   1.00000000000000                                                             
   13    5                                                                      
   3019.69557230000       2.497104979800000E-003  0.000000000000000E+000        
  0.000000000000000E+000  0.000000000000000E+000  0.000000000000000E+000        
   715.354811260000       2.041926759600000E-002  0.000000000000000E+000        
  0.000000000000000E+000  0.000000000000000E+000  0.000000000000000E+000        
   229.983287510000       9.689714830899999E-002  0.000000000000000E+000        
  0.000000000000000E+000  0.000000000000000E+000  0.000000000000000E+000        
   86.1678446150000       0.280539012520000       0.000000000000000E+000        
  0.000000000000000E+000  0.000000000000000E+000  0.000000000000000E+000        
   34.6678708020000       0.446063904730000       0.000000000000000E+000        
  0.000000000000000E+000  0.000000000000000E+000  0.000000000000000E+000        
   14.1138703070000       0.244100739230000       0.000000000000000E+000        
  0.000000000000000E+000  0.000000000000000E+000  0.000000000000000E+000        
   57.0856530820000       0.000000000000000E+000 -2.185595071000000E-002        
  0.000000000000000E+000  0.000000000000000E+000  0.000000000000000E+000        
   8.81938458400000       0.000000000000000E+000  0.327070753200000             
  0.000000000000000E+000  0.000000000000000E+000  0.000000000000000E+000        
   3.93403028720000       0.000000000000000E+000  0.578552295200000             
  0.000000000000000E+000  0.000000000000000E+000  0.000000000000000E+000        
   1.79988303840000       0.000000000000000E+000  0.335709876980000             
  0.000000000000000E+000  0.000000000000000E+000  0.000000000000000E+000        
  0.668994105120000       0.000000000000000E+000  0.000000000000000E+000        
   1.00000000000000       0.000000000000000E+000  0.000000000000000E+000        
  0.271362382310000       0.000000000000000E+000  0.000000000000000E+000        
  0.000000000000000E+000   1.00000000000000       0.000000000000000E+000        
  0.100837902430000       0.000000000000000E+000  0.000000000000000E+000        
  0.000000000000000E+000  0.000000000000000E+000   1.00000000000000             
    8    4                                                                      
   168.853702570000       8.966398198799999E-003  0.000000000000000E+000        
  0.000000000000000E+000  0.000000000000000E+000                                
   49.9779499190000       6.206205931600000E-002  0.000000000000000E+000        
  0.000000000000000E+000  0.000000000000000E+000                                
   18.2749133380000       0.214747323840000       0.000000000000000E+000        
  0.000000000000000E+000  0.000000000000000E+000                                
   7.24556946310000       0.403353367460000       0.000000000000000E+000        
  0.000000000000000E+000  0.000000000000000E+000                                
   2.85623150250000       0.422088130800000       0.000000000000000E+000        
  0.000000000000000E+000  0.000000000000000E+000                                
   1.04596211440000       0.000000000000000E+000  0.178748132670000             
  0.000000000000000E+000  0.000000000000000E+000                                
  0.568656550000000       0.000000000000000E+000  0.000000000000000E+000        
   1.00000000000000       0.000000000000000E+000                                
  0.220314900000000       0.000000000000000E+000  0.000000000000000E+000        
  0.000000000000000E+000   1.00000000000000                                     
    1    1                                                                      
  0.570833120000000        1.00000000000000                                     
FINISH                                                                          
 
********************************************************************************
 One- and two-electron integrals over symmetry-adapted AOs are calculated.

  Spherical harmonics are used.
  
   1 types of atoms
   3 symmetry operations

   Reflection in the YZ-plane
   Reflection in the XZ-plane
   Reflection in the XY-plane
  
  Integrals less than  0.10E-13 are neglected.

  Atomic type number  1 :
  -----------------------

    Nuclear charge:                       35
    number of symmetry independent atoms:  1
    highest orbital type:                  f

      1 groups of CGTOs of s type
      1 groups of CGTOs of p type
      1 groups of CGTOs of d type
      1 groups of CGTOs of f type

    nuclear coordinates (in a.u.) are :

    BR#1        0.000000000000000        0.000000000000000        2.155258345410000
  
   Basis function not normalized: 
   Center (as ordered in MOL file):   1
   Angular Momentum type          : s
   Offset within angular momentum :  1
   <chi|chi>                      :    0.9780076170
   Basis function not normalized: 
   Center (as ordered in MOL file):   1
   Angular Momentum type          : s
   Offset within angular momentum :  2
   <chi|chi>                      :    0.9727011625
   Basis function not normalized: 
   Center (as ordered in MOL file):   1
   Angular Momentum type          : s
   Offset within angular momentum :  3
   <chi|chi>                      :    1.6798761328
   Basis function not normalized: 
   Center (as ordered in MOL file):   1
   Angular Momentum type          : p
   Offset within angular momentum :  1
   <chi|chi>                      :    1.0804098112
   Basis function not normalized: 
   Center (as ordered in MOL file):   1
   Angular Momentum type          : p
   Offset within angular momentum :  2
   <chi|chi>                      :    0.8825142330
   Basis function not normalized: 
   Center (as ordered in MOL file):   1
   Angular Momentum type          : d
   Offset within angular momentum :  1
   <chi|chi>                      :    1.0977459955
   Basis function not normalized: 
   Center (as ordered in MOL file):   1
   Angular Momentum type          : d
   Offset within angular momentum :  2
   <chi|chi>                      :    5.5944640375
   Internuclear distances (A) :

     for atom BR#1 (coordinates :   0.00000   0.00000   2.15526)

     BR#1   5     distance is  2.281

   Group multiplication table :

         1   2   3   4   5   6   7   8
         2   1   4   3   6   5   8   7
         3   4   1   2   7   8   5   6
         4   3   2   1   8   7   6   5
         5   6   7   8   1   2   3   4
         6   5   8   7   2   1   4   3
         7   8   5   6   3   4   1   2
         8   7   6   5   4   3   2   1

   Gaussian basis information :

   atom                 exponent      coefficients

 BR#1  1    S   
+                 1  565073.252560   0.0002366   0.0000000   0.0000000   0.0000000   0.0000000   0.0000000
                  2   84701.723179   0.0018348   0.0000000   0.0000000   0.0000000   0.0000000   0.0000000
                  3   19276.271900   0.0095466   0.0000000   0.0000000   0.0000000   0.0000000   0.0000000
                  4    5456.428458   0.0388771   0.0000000   0.0000000   0.0000000   0.0000000   0.0000000
                  5    1776.950350   0.1271831   0.0000000   0.0000000   0.0000000   0.0000000   0.0000000
                  6     639.193983   0.3043766   0.0000000   0.0000000   0.0000000   0.0000000   0.0000000
                  7     248.788240   0.4449094   0.0000000   0.0000000   0.0000000   0.0000000   0.0000000
                  8      98.678305   0.2438164   0.0000000   0.0000000   0.0000000   0.0000000   0.0000000
                  9     606.078246   0.0000000  -0.0265272   0.0000000   0.0000000   0.0000000   0.0000000
                 10     188.455985   0.0000000  -0.1248458   0.0000000   0.0000000   0.0000000   0.0000000
                 11      31.497145   0.0000000   0.5646868   0.0000000   0.0000000   0.0000000   0.0000000
                 12      13.736008   0.0000000   0.5555527   0.0000000   0.0000000   0.0000000   0.0000000
                 13      21.203213   0.0000000   0.0000000  -0.2494092   0.0000000   0.0000000   0.0000000
                 14       3.761642   0.0000000   0.0000000   0.7121312   0.0000000   0.0000000   0.0000000
                 15       1.773593   0.0000000   0.0000000   0.0000000   1.0000000   0.0000000   0.0000000
                 16       0.451974   0.0000000   0.0000000   0.0000000   0.0000000   1.0000000   0.0000000
                 17       0.166134   0.0000000   0.0000000   0.0000000   0.0000000   0.0000000   1.0000000

 BR#1  5    S   
+                18  565073.252560   0.0002366   0.0000000   0.0000000   0.0000000   0.0000000   0.0000000
                 19   84701.723179   0.0018348   0.0000000   0.0000000   0.0000000   0.0000000   0.0000000
                 20   19276.271900   0.0095466   0.0000000   0.0000000   0.0000000   0.0000000   0.0000000
                 21    5456.428458   0.0388771   0.0000000   0.0000000   0.0000000   0.0000000   0.0000000
                 22    1776.950350   0.1271831   0.0000000   0.0000000   0.0000000   0.0000000   0.0000000
                 23     639.193983   0.3043766   0.0000000   0.0000000   0.0000000   0.0000000   0.0000000
                 24     248.788240   0.4449094   0.0000000   0.0000000   0.0000000   0.0000000   0.0000000
                 25      98.678305   0.2438164   0.0000000   0.0000000   0.0000000   0.0000000   0.0000000
                 26     606.078246   0.0000000  -0.0265272   0.0000000   0.0000000   0.0000000   0.0000000
                 27     188.455985   0.0000000  -0.1248458   0.0000000   0.0000000   0.0000000   0.0000000
                 28      31.497145   0.0000000   0.5646868   0.0000000   0.0000000   0.0000000   0.0000000
                 29      13.736008   0.0000000   0.5555527   0.0000000   0.0000000   0.0000000   0.0000000
                 30      21.203213   0.0000000   0.0000000  -0.2494092   0.0000000   0.0000000   0.0000000
                 31       3.761642   0.0000000   0.0000000   0.7121312   0.0000000   0.0000000   0.0000000
                 32       1.773593   0.0000000   0.0000000   0.0000000   1.0000000   0.0000000   0.0000000
                 33       0.451974   0.0000000   0.0000000   0.0000000   0.0000000   1.0000000   0.0000000
                 34       0.166134   0.0000000   0.0000000   0.0000000   0.0000000   0.0000000   1.0000000

 BR#1  1    X   
+                35    3019.695572   0.0024971   0.0000000   0.0000000   0.0000000   0.0000000
                 36     715.354811   0.0204193   0.0000000   0.0000000   0.0000000   0.0000000
                 37     229.983288   0.0968971   0.0000000   0.0000000   0.0000000   0.0000000
                 38      86.167845   0.2805390   0.0000000   0.0000000   0.0000000   0.0000000
                 39      34.667871   0.4460639   0.0000000   0.0000000   0.0000000   0.0000000
                 40      14.113870   0.2441007   0.0000000   0.0000000   0.0000000   0.0000000
                 41      57.085653   0.0000000  -0.0218560   0.0000000   0.0000000   0.0000000
                 42       8.819385   0.0000000   0.3270708   0.0000000   0.0000000   0.0000000
                 43       3.934030   0.0000000   0.5785523   0.0000000   0.0000000   0.0000000
                 44       1.799883   0.0000000   0.3357099   0.0000000   0.0000000   0.0000000
                 45       0.668994   0.0000000   0.0000000   1.0000000   0.0000000   0.0000000
                 46       0.271362   0.0000000   0.0000000   0.0000000   1.0000000   0.0000000
                 47       0.100838   0.0000000   0.0000000   0.0000000   0.0000000   1.0000000

 BR#1  5    X   
+                48    3019.695572   0.0024971   0.0000000   0.0000000   0.0000000   0.0000000
                 49     715.354811   0.0204193   0.0000000   0.0000000   0.0000000   0.0000000
                 50     229.983288   0.0968971   0.0000000   0.0000000   0.0000000   0.0000000
                 51      86.167845   0.2805390   0.0000000   0.0000000   0.0000000   0.0000000
                 52      34.667871   0.4460639   0.0000000   0.0000000   0.0000000   0.0000000
                 53      14.113870   0.2441007   0.0000000   0.0000000   0.0000000   0.0000000
                 54      57.085653   0.0000000  -0.0218560   0.0000000   0.0000000   0.0000000
                 55       8.819385   0.0000000   0.3270708   0.0000000   0.0000000   0.0000000
                 56       3.934030   0.0000000   0.5785523   0.0000000   0.0000000   0.0000000
                 57       1.799883   0.0000000   0.3357099   0.0000000   0.0000000   0.0000000
                 58       0.668994   0.0000000   0.0000000   1.0000000   0.0000000   0.0000000
                 59       0.271362   0.0000000   0.0000000   0.0000000   1.0000000   0.0000000
                 60       0.100838   0.0000000   0.0000000   0.0000000   0.0000000   1.0000000

 BR#1  1    Y   
+                61    3019.695572   0.0024971   0.0000000   0.0000000   0.0000000   0.0000000
                 62     715.354811   0.0204193   0.0000000   0.0000000   0.0000000   0.0000000
                 63     229.983288   0.0968971   0.0000000   0.0000000   0.0000000   0.0000000
                 64      86.167845   0.2805390   0.0000000   0.0000000   0.0000000   0.0000000
                 65      34.667871   0.4460639   0.0000000   0.0000000   0.0000000   0.0000000
                 66      14.113870   0.2441007   0.0000000   0.0000000   0.0000000   0.0000000
                 67      57.085653   0.0000000  -0.0218560   0.0000000   0.0000000   0.0000000
                 68       8.819385   0.0000000   0.3270708   0.0000000   0.0000000   0.0000000
                 69       3.934030   0.0000000   0.5785523   0.0000000   0.0000000   0.0000000
                 70       1.799883   0.0000000   0.3357099   0.0000000   0.0000000   0.0000000
                 71       0.668994   0.0000000   0.0000000   1.0000000   0.0000000   0.0000000
                 72       0.271362   0.0000000   0.0000000   0.0000000   1.0000000   0.0000000
                 73       0.100838   0.0000000   0.0000000   0.0000000   0.0000000   1.0000000

 BR#1  5    Y   
+                74    3019.695572   0.0024971   0.0000000   0.0000000   0.0000000   0.0000000
                 75     715.354811   0.0204193   0.0000000   0.0000000   0.0000000   0.0000000
                 76     229.983288   0.0968971   0.0000000   0.0000000   0.0000000   0.0000000
                 77      86.167845   0.2805390   0.0000000   0.0000000   0.0000000   0.0000000
                 78      34.667871   0.4460639   0.0000000   0.0000000   0.0000000   0.0000000
                 79      14.113870   0.2441007   0.0000000   0.0000000   0.0000000   0.0000000
                 80      57.085653   0.0000000  -0.0218560   0.0000000   0.0000000   0.0000000
                 81       8.819385   0.0000000   0.3270708   0.0000000   0.0000000   0.0000000
                 82       3.934030   0.0000000   0.5785523   0.0000000   0.0000000   0.0000000
                 83       1.799883   0.0000000   0.3357099   0.0000000   0.0000000   0.0000000
                 84       0.668994   0.0000000   0.0000000   1.0000000   0.0000000   0.0000000
                 85       0.271362   0.0000000   0.0000000   0.0000000   1.0000000   0.0000000
                 86       0.100838   0.0000000   0.0000000   0.0000000   0.0000000   1.0000000

 BR#1  1    Z   
+                87    3019.695572   0.0024971   0.0000000   0.0000000   0.0000000   0.0000000
                 88     715.354811   0.0204193   0.0000000   0.0000000   0.0000000   0.0000000
                 89     229.983288   0.0968971   0.0000000   0.0000000   0.0000000   0.0000000
                 90      86.167845   0.2805390   0.0000000   0.0000000   0.0000000   0.0000000
                 91      34.667871   0.4460639   0.0000000   0.0000000   0.0000000   0.0000000
                 92      14.113870   0.2441007   0.0000000   0.0000000   0.0000000   0.0000000
                 93      57.085653   0.0000000  -0.0218560   0.0000000   0.0000000   0.0000000
                 94       8.819385   0.0000000   0.3270708   0.0000000   0.0000000   0.0000000
                 95       3.934030   0.0000000   0.5785523   0.0000000   0.0000000   0.0000000
                 96       1.799883   0.0000000   0.3357099   0.0000000   0.0000000   0.0000000
                 97       0.668994   0.0000000   0.0000000   1.0000000   0.0000000   0.0000000
                 98       0.271362   0.0000000   0.0000000   0.0000000   1.0000000   0.0000000
                 99       0.100838   0.0000000   0.0000000   0.0000000   0.0000000   1.0000000

 BR#1  5    Z   
+               100    3019.695572   0.0024971   0.0000000   0.0000000   0.0000000   0.0000000
                101     715.354811   0.0204193   0.0000000   0.0000000   0.0000000   0.0000000
                102     229.983288   0.0968971   0.0000000   0.0000000   0.0000000   0.0000000
                103      86.167845   0.2805390   0.0000000   0.0000000   0.0000000   0.0000000
                104      34.667871   0.4460639   0.0000000   0.0000000   0.0000000   0.0000000
                105      14.113870   0.2441007   0.0000000   0.0000000   0.0000000   0.0000000
                106      57.085653   0.0000000  -0.0218560   0.0000000   0.0000000   0.0000000
                107       8.819385   0.0000000   0.3270708   0.0000000   0.0000000   0.0000000
                108       3.934030   0.0000000   0.5785523   0.0000000   0.0000000   0.0000000
                109       1.799883   0.0000000   0.3357099   0.0000000   0.0000000   0.0000000
                110       0.668994   0.0000000   0.0000000   1.0000000   0.0000000   0.0000000
                111       0.271362   0.0000000   0.0000000   0.0000000   1.0000000   0.0000000
                112       0.100838   0.0000000   0.0000000   0.0000000   0.0000000   1.0000000

 BR#1  1    XX  
+               113     168.853703   0.0089664   0.0000000   0.0000000   0.0000000
                114      49.977950   0.0620621   0.0000000   0.0000000   0.0000000
                115      18.274913   0.2147473   0.0000000   0.0000000   0.0000000
                116       7.245569   0.4033534   0.0000000   0.0000000   0.0000000
                117       2.856232   0.4220881   0.0000000   0.0000000   0.0000000
                118       1.045962   0.0000000   0.1787481   0.0000000   0.0000000
                119       0.568657   0.0000000   0.0000000   1.0000000   0.0000000
                120       0.220315   0.0000000   0.0000000   0.0000000   1.0000000

 BR#1  5    XX  
+               121     168.853703   0.0089664   0.0000000   0.0000000   0.0000000
                122      49.977950   0.0620621   0.0000000   0.0000000   0.0000000
                123      18.274913   0.2147473   0.0000000   0.0000000   0.0000000
                124       7.245569   0.4033534   0.0000000   0.0000000   0.0000000
                125       2.856232   0.4220881   0.0000000   0.0000000   0.0000000
                126       1.045962   0.0000000   0.1787481   0.0000000   0.0000000
                127       0.568657   0.0000000   0.0000000   1.0000000   0.0000000
                128       0.220315   0.0000000   0.0000000   0.0000000   1.0000000

 BR#1  1    XY  
+               129     168.853703   0.0089664   0.0000000   0.0000000   0.0000000
                130      49.977950   0.0620621   0.0000000   0.0000000   0.0000000
                131      18.274913   0.2147473   0.0000000   0.0000000   0.0000000
                132       7.245569   0.4033534   0.0000000   0.0000000   0.0000000
                133       2.856232   0.4220881   0.0000000   0.0000000   0.0000000
                134       1.045962   0.0000000   0.1787481   0.0000000   0.0000000
                135       0.568657   0.0000000   0.0000000   1.0000000   0.0000000
                136       0.220315   0.0000000   0.0000000   0.0000000   1.0000000

 BR#1  5    XY  
+               137     168.853703   0.0089664   0.0000000   0.0000000   0.0000000
                138      49.977950   0.0620621   0.0000000   0.0000000   0.0000000
                139      18.274913   0.2147473   0.0000000   0.0000000   0.0000000
                140       7.245569   0.4033534   0.0000000   0.0000000   0.0000000
                141       2.856232   0.4220881   0.0000000   0.0000000   0.0000000
                142       1.045962   0.0000000   0.1787481   0.0000000   0.0000000
                143       0.568657   0.0000000   0.0000000   1.0000000   0.0000000
                144       0.220315   0.0000000   0.0000000   0.0000000   1.0000000

 BR#1  1    XZ  
+               145     168.853703   0.0089664   0.0000000   0.0000000   0.0000000
                146      49.977950   0.0620621   0.0000000   0.0000000   0.0000000
                147      18.274913   0.2147473   0.0000000   0.0000000   0.0000000
                148       7.245569   0.4033534   0.0000000   0.0000000   0.0000000
                149       2.856232   0.4220881   0.0000000   0.0000000   0.0000000
                150       1.045962   0.0000000   0.1787481   0.0000000   0.0000000
                151       0.568657   0.0000000   0.0000000   1.0000000   0.0000000
                152       0.220315   0.0000000   0.0000000   0.0000000   1.0000000

 BR#1  5    XZ  
+               153     168.853703   0.0089664   0.0000000   0.0000000   0.0000000
                154      49.977950   0.0620621   0.0000000   0.0000000   0.0000000
                155      18.274913   0.2147473   0.0000000   0.0000000   0.0000000
                156       7.245569   0.4033534   0.0000000   0.0000000   0.0000000
                157       2.856232   0.4220881   0.0000000   0.0000000   0.0000000
                158       1.045962   0.0000000   0.1787481   0.0000000   0.0000000
                159       0.568657   0.0000000   0.0000000   1.0000000   0.0000000
                160       0.220315   0.0000000   0.0000000   0.0000000   1.0000000

 BR#1  1    YY  
+               161     168.853703   0.0089664   0.0000000   0.0000000   0.0000000
                162      49.977950   0.0620621   0.0000000   0.0000000   0.0000000
                163      18.274913   0.2147473   0.0000000   0.0000000   0.0000000
                164       7.245569   0.4033534   0.0000000   0.0000000   0.0000000
                165       2.856232   0.4220881   0.0000000   0.0000000   0.0000000
                166       1.045962   0.0000000   0.1787481   0.0000000   0.0000000
                167       0.568657   0.0000000   0.0000000   1.0000000   0.0000000
                168       0.220315   0.0000000   0.0000000   0.0000000   1.0000000

 BR#1  5    YY  
+               169     168.853703   0.0089664   0.0000000   0.0000000   0.0000000
                170      49.977950   0.0620621   0.0000000   0.0000000   0.0000000
                171      18.274913   0.2147473   0.0000000   0.0000000   0.0000000
                172       7.245569   0.4033534   0.0000000   0.0000000   0.0000000
                173       2.856232   0.4220881   0.0000000   0.0000000   0.0000000
                174       1.045962   0.0000000   0.1787481   0.0000000   0.0000000
                175       0.568657   0.0000000   0.0000000   1.0000000   0.0000000
                176       0.220315   0.0000000   0.0000000   0.0000000   1.0000000

 BR#1  1    YZ  
+               177     168.853703   0.0089664   0.0000000   0.0000000   0.0000000
                178      49.977950   0.0620621   0.0000000   0.0000000   0.0000000
                179      18.274913   0.2147473   0.0000000   0.0000000   0.0000000
                180       7.245569   0.4033534   0.0000000   0.0000000   0.0000000
                181       2.856232   0.4220881   0.0000000   0.0000000   0.0000000
                182       1.045962   0.0000000   0.1787481   0.0000000   0.0000000
                183       0.568657   0.0000000   0.0000000   1.0000000   0.0000000
                184       0.220315   0.0000000   0.0000000   0.0000000   1.0000000

 BR#1  5    YZ  
+               185     168.853703   0.0089664   0.0000000   0.0000000   0.0000000
                186      49.977950   0.0620621   0.0000000   0.0000000   0.0000000
                187      18.274913   0.2147473   0.0000000   0.0000000   0.0000000
                188       7.245569   0.4033534   0.0000000   0.0000000   0.0000000
                189       2.856232   0.4220881   0.0000000   0.0000000   0.0000000
                190       1.045962   0.0000000   0.1787481   0.0000000   0.0000000
                191       0.568657   0.0000000   0.0000000   1.0000000   0.0000000
                192       0.220315   0.0000000   0.0000000   0.0000000   1.0000000

 BR#1  1    ZZ  
+               193     168.853703   0.0089664   0.0000000   0.0000000   0.0000000
                194      49.977950   0.0620621   0.0000000   0.0000000   0.0000000
                195      18.274913   0.2147473   0.0000000   0.0000000   0.0000000
                196       7.245569   0.4033534   0.0000000   0.0000000   0.0000000
                197       2.856232   0.4220881   0.0000000   0.0000000   0.0000000
                198       1.045962   0.0000000   0.1787481   0.0000000   0.0000000
                199       0.568657   0.0000000   0.0000000   1.0000000   0.0000000
                200       0.220315   0.0000000   0.0000000   0.0000000   1.0000000

 BR#1  5    ZZ  
+               201     168.853703   0.0089664   0.0000000   0.0000000   0.0000000
                202      49.977950   0.0620621   0.0000000   0.0000000   0.0000000
                203      18.274913   0.2147473   0.0000000   0.0000000   0.0000000
                204       7.245569   0.4033534   0.0000000   0.0000000   0.0000000
                205       2.856232   0.4220881   0.0000000   0.0000000   0.0000000
                206       1.045962   0.0000000   0.1787481   0.0000000   0.0000000
                207       0.568657   0.0000000   0.0000000   1.0000000   0.0000000
                208       0.220315   0.0000000   0.0000000   0.0000000   1.0000000

 BR#1  1    F300
+               209       0.570833   1.0000000

 BR#1  5    F300
+               210       0.570833   1.0000000

 BR#1  1    F210
+               211       0.570833   1.0000000

 BR#1  5    F210
+               212       0.570833   1.0000000

 BR#1  1    F201
+               213       0.570833   1.0000000

 BR#1  5    F201
+               214       0.570833   1.0000000

 BR#1  1    F120
+               215       0.570833   1.0000000

 BR#1  5    F120
+               216       0.570833   1.0000000

 BR#1  1    F111
+               217       0.570833   1.0000000

 BR#1  5    F111
+               218       0.570833   1.0000000

 BR#1  1    F102
+               219       0.570833   1.0000000

 BR#1  5    F102
+               220       0.570833   1.0000000

 BR#1  1    F030
+               221       0.570833   1.0000000

 BR#1  5    F030
+               222       0.570833   1.0000000

 BR#1  1    F021
+               223       0.570833   1.0000000

 BR#1  5    F021
+               224       0.570833   1.0000000

 BR#1  1    F012
+               225       0.570833   1.0000000

 BR#1  5    F012
+               226       0.570833   1.0000000

 BR#1  1    F003
+               227       0.570833   1.0000000

 BR#1  5    F003
+               228       0.570833   1.0000000
110 96
  1  2  3  4  5  6  7  8  9 10 11 12 13 14 15 16 17 18 19************ 20 21
*** 22 23 24 25 26 27 28 29 30 31 32*** 33 34 35 36 37 38 39 40 41 42 43***
 44 45 46 47 48 49 50 51 52 53 54 55 56 57 58 59 60 61 62 63 64 65 66 67***
********* 68 69*** 70 71 72 73 74 75 76 77 78 79 80*** 81 82 83 84 85 86 87
 88 89 90 91*** 92 93 94 95 96
1

             SYMMETRY TRANSFORMATION INFO
             96 SYMMETRY ADAPTED BASIS FUNCTIONS 


          irreducible representation number 1

    1    1  BR#1     1s     2   1   1.0   2   1.0
    2    2  BR#1     1s     2   3   1.0   4   1.0
    3    3  BR#1     1s     2   5   1.0   6   1.0
    4    4  BR#1     1s     2   7   1.0   8   1.0
    5    5  BR#1     1s     2   9   1.0  10   1.0
    6    6  BR#1     1s     2  11   1.0  12   1.0
    7    7  BR#1     2pz    2  33   1.0  34  -1.0
    8    8  BR#1     2pz    2  35   1.0  36  -1.0
    9    9  BR#1     2pz    2  37   1.0  38  -1.0
   10   10  BR#1     2pz    2  39   1.0  40  -1.0
   11   11  BR#1     2pz    2  41   1.0  42  -1.0
   12   12  BR#1     3d2-   6  43  -1.0  67  -1.0  83   2.0  44  -1.0  68  -1.0  84   2.0
   13   13  BR#1     3d2-   6  45  -1.0  69  -1.0  85   2.0  46  -1.0  70  -1.0  86   2.0
   14   14  BR#1     3d2-   6  47  -1.0  71  -1.0  87   2.0  48  -1.0  72  -1.0  88   2.0
   15   15  BR#1     3d2-   6  49  -1.0  73  -1.0  89   2.0  50  -1.0  74  -1.0  90   2.0
   16   16  BR#1     3d1+   4  43   1.0  67  -1.0  44   1.0  68  -1.0
   17   17  BR#1     3d1+   4  45   1.0  69  -1.0  46   1.0  70  -1.0
   18   18  BR#1     3d1+   4  47   1.0  71  -1.0  48   1.0  72  -1.0
   19   19  BR#1     3d1+   4  49   1.0  73  -1.0  50   1.0  74  -1.0
   20   20  BR#1     4f1-   6  95  -3.0 105  -3.0 109   2.0  96   3.0 106   3.0 110  -2.0
   21   21  BR#1     4f3+   4  95   1.0 105  -1.0  96  -1.0 106   1.0


          irreducible representation number 2

   22    1  BR#1     2px    2  13   1.0  14   1.0
   23    2  BR#1     2px    2  15   1.0  16   1.0
   24    3  BR#1     2px    2  17   1.0  18   1.0
   25    4  BR#1     2px    2  19   1.0  20   1.0
   26    5  BR#1     2px    2  21   1.0  22   1.0
   27    6  BR#1     3d0    2  59   1.0  60  -1.0
   28    7  BR#1     3d0    2  61   1.0  62  -1.0
   29    8  BR#1     3d0    2  63   1.0  64  -1.0
   30    9  BR#1     3d0    2  65   1.0  66  -1.0
   31   10  BR#1     4f3-   6  91  -1.0  97  -1.0 101   4.0  92  -1.0  98  -1.0 102   4.0
   32   11  BR#1     4f0    4  91   1.0  97  -3.0  92   1.0  98  -3.0


          irreducible representation number 3

   33    1  BR#1     2py    2  23   1.0  24   1.0
   34    2  BR#1     2py    2  25   1.0  26   1.0
   35    3  BR#1     2py    2  27   1.0  28   1.0
   36    4  BR#1     2py    2  29   1.0  30   1.0
   37    5  BR#1     2py    2  31   1.0  32   1.0
   38    6  BR#1     3d2+   2  75   1.0  76  -1.0
   39    7  BR#1     3d2+   2  77   1.0  78  -1.0
   40    8  BR#1     3d2+   2  79   1.0  80  -1.0
   41    9  BR#1     3d2+   2  81   1.0  82  -1.0
   42   10  BR#1     4f2-   6  93  -1.0 103  -1.0 107   4.0  94  -1.0 104  -1.0 108   4.0
   43   11  BR#1     4f2+   4  93   3.0 103  -1.0  94   3.0 104  -1.0


          irreducible representation number 4

   44    1  BR#1     3d1-   2  51   1.0  52   1.0
   45    2  BR#1     3d1-   2  53   1.0  54   1.0
   46    3  BR#1     3d1-   2  55   1.0  56   1.0
   47    4  BR#1     3d1-   2  57   1.0  58   1.0
   48    5  BR#1     4f1+   2  99   1.0 100  -1.0


          irreducible representation number 5

   49    1  BR#1     1s     2   1   1.0   2  -1.0
   50    2  BR#1     1s     2   3   1.0   4  -1.0
   51    3  BR#1     1s     2   5   1.0   6  -1.0
   52    4  BR#1     1s     2   7   1.0   8  -1.0
   53    5  BR#1     1s     2   9   1.0  10  -1.0
   54    6  BR#1     1s     2  11   1.0  12  -1.0
   55    7  BR#1     2pz    2  33   1.0  34   1.0
   56    8  BR#1     2pz    2  35   1.0  36   1.0
   57    9  BR#1     2pz    2  37   1.0  38   1.0
   58   10  BR#1     2pz    2  39   1.0  40   1.0
   59   11  BR#1     2pz    2  41   1.0  42   1.0
   60   12  BR#1     3d2-   6  43  -1.0  67  -1.0  83   2.0  44   1.0  68   1.0  84  -2.0
   61   13  BR#1     3d2-   6  45  -1.0  69  -1.0  85   2.0  46   1.0  70   1.0  86  -2.0
   62   14  BR#1     3d2-   6  47  -1.0  71  -1.0  87   2.0  48   1.0  72   1.0  88  -2.0
   63   15  BR#1     3d2-   6  49  -1.0  73  -1.0  89   2.0  50   1.0  74   1.0  90  -2.0
   64   16  BR#1     3d1+   4  43   1.0  67  -1.0  44  -1.0  68   1.0
   65   17  BR#1     3d1+   4  45   1.0  69  -1.0  46  -1.0  70   1.0
   66   18  BR#1     3d1+   4  47   1.0  71  -1.0  48  -1.0  72   1.0
   67   19  BR#1     3d1+   4  49   1.0  73  -1.0  50  -1.0  74   1.0
   68   20  BR#1     4f1-   6  95  -3.0 105  -3.0 109   2.0  96  -3.0 106  -3.0 110   2.0
   69   21  BR#1     4f3+   4  95   1.0 105  -1.0  96   1.0 106  -1.0


          irreducible representation number 6

   70    1  BR#1     2px    2  13   1.0  14  -1.0
   71    2  BR#1     2px    2  15   1.0  16  -1.0
   72    3  BR#1     2px    2  17   1.0  18  -1.0
   73    4  BR#1     2px    2  19   1.0  20  -1.0
   74    5  BR#1     2px    2  21   1.0  22  -1.0
   75    6  BR#1     3d0    2  59   1.0  60   1.0
   76    7  BR#1     3d0    2  61   1.0  62   1.0
   77    8  BR#1     3d0    2  63   1.0  64   1.0
   78    9  BR#1     3d0    2  65   1.0  66   1.0
   79   10  BR#1     4f3-   6  91  -1.0  97  -1.0 101   4.0  92   1.0  98   1.0 102  -4.0
   80   11  BR#1     4f0    4  91   1.0  97  -3.0  92  -1.0  98   3.0


          irreducible representation number 7

   81    1  BR#1     2py    2  23   1.0  24  -1.0
   82    2  BR#1     2py    2  25   1.0  26  -1.0
   83    3  BR#1     2py    2  27   1.0  28  -1.0
   84    4  BR#1     2py    2  29   1.0  30  -1.0
   85    5  BR#1     2py    2  31   1.0  32  -1.0
   86    6  BR#1     3d2+   2  75   1.0  76   1.0
   87    7  BR#1     3d2+   2  77   1.0  78   1.0
   88    8  BR#1     3d2+   2  79   1.0  80   1.0
   89    9  BR#1     3d2+   2  81   1.0  82   1.0
   90   10  BR#1     4f2-   6  93  -1.0 103  -1.0 107   4.0  94   1.0 104   1.0 108  -4.0
   91   11  BR#1     4f2+   4  93   3.0 103  -1.0  94  -3.0 104   1.0


          irreducible representation number 8

   92    1  BR#1     3d1-   2  51   1.0  52  -1.0
   93    2  BR#1     3d1-   2  53   1.0  54  -1.0
   94    3  BR#1     3d1-   2  55   1.0  56  -1.0
   95    4  BR#1     3d1-   2  57   1.0  58  -1.0
   96    5  BR#1     4f1+   2  99   1.0 100   1.0
  Nuclear repulsion energy :  284.1886687526 a.u.
  required memory for a1 array               10029264  words 
  required memory for a2 array                2676157  words 
 @GETMEM-I,  Allocated     112 MB of main memory.
  @MOLECU-I, One electron integrals (CPU/WALL):        0.04/       0.05 seconds.
  @TWOEL-I,      38538 integrals of symmetry type  I I I I
  @TWOEL-I,     316593 integrals of symmetry type  I J I J
  @TWOEL-I,     183460 integrals of symmetry type  I I J J
  @TWOEL-I,     654291 integrals of symmetry type  I J K L
  @TWOEL-I, Total number of 2-e integrals    1192882.
  @MOLECU-I, Two electron integrals (CPU/WALL):       14.03/       1.77 seconds.
  @CHECKOUT-I, Total execution time (CPU/WALL):       14.43/       2.25 seconds.
--executable xvmol finished with status     0 in        2.31 seconds (walltime).
 --invoking executable--
/home/nike/cfour_v2.00beta/cfour_v2.00beta/bin/xvmol2ja
 @GETMEM-I,  Allocated   11444 MB of main memory.
  @CHECKOUT-I, Total execution time (CPU/WALL):        0.06/       0.02 seconds.
--executable xvmol2ja finished with status     0 in        0.06 seconds (walltime).
 --invoking executable--
/home/nike/cfour_v2.00beta/cfour_v2.00beta/bin/xvscf
  There are   96 functions in the AO basis.

  There are 8 irreducible representations.

       Irrep        # of functions
         1                 21
         2                 11
         3                 11
         4                  5
         5                 21
         6                 11
         7                 11
         8                  5


  Parameters for SCF calculation: 
        SCF reference function:  RHF  
  Maximum number of iterations: 9999
     Full symmetry point group: DXh 
     Computational point group: D2h 
        Initial density matrix: MOREAD                 
     SCF convergence tolerance: 10**(-13)
  DIIS convergence acceleration:  ON
          Latest start for DIIS:   5
                     DIIS order:   6

  Memory information:     421666 words required.
  Fock matrices are constructed from AO integral file.
 @GETMEM-I,  Allocated       3 MB of main memory.
  Initialization and symmetry analysis required      0.019 seconds.

  @INITGES-I, Occupancies from core Hamiltonian:

          Alpha population by irrep:   9    3    4    1    9    4    4    1
           Beta population by irrep:   9    3    4    1    9    4    4    1


 total no. of electrons in initial guess :  0.000000000000000E+000
  --------------------------------------------------------------------
  Iteration         Total Energy            Largest Density Difference
  --------------------------------------------------------------------
       0           284.188668752600336              0.0000000000D+00
   current occupation vector 
     9  3  4  1  9  4  4  1
     9  3  4  1  9  4  4  1
  processed                  38538  ao basis integrals from 
                    65  buffers.
  processed                 183460  ao basis integrals from 
                   306  buffers.
  processed                 316593  ao basis integrals from 
                   528  buffers.
       1         -5063.570924159063907              0.1024464970D+02
   current occupation vector 
     9  3  4  1  9  4  4  1
     9  3  4  1  9  4  4  1
  processed                  38538  ao basis integrals from 
                    65  buffers.
  processed                 183460  ao basis integrals from 
                   306  buffers.
  processed                 316593  ao basis integrals from 
                   528  buffers.
       2         -4942.319629863856790              0.9776342001D+01
   current occupation vector 
     9  4  4  1  9  4  3  1
     9  4  4  1  9  4  3  1
  processed                  38538  ao basis integrals from 
                    65  buffers.
  processed                 183460  ao basis integrals from 
                   306  buffers.
  processed                 316593  ao basis integrals from 
                   528  buffers.
       3         -5107.147890930767971              0.7900081460D+01
   current occupation vector 
     9  4  4  1  8  4  4  1
     9  4  4  1  8  4  4  1
  processed                  38538  ao basis integrals from 
                    65  buffers.
  processed                 183460  ao basis integrals from 
                   306  buffers.
  processed                 316593  ao basis integrals from 
                   528  buffers.
       4         -5099.480763324411782              0.6235343834D+01
   current occupation vector 
     8  4  4  1  9  4  4  1
     8  4  4  1  9  4  4  1
 
 sum over diagonal and offdiagdiagonal of C(T)*S*C for irrep
                     1
  1.072475441787901E-013 -7.325983010286960E-014
 reorthoganalization of MOs is carried out
 sum over diagonal and offdiagdiagonal of C(T)*S*C for irrep
                     1
  1.665334536937735E-015  4.779997192971834E-016
 
 sum over diagonal and offdiagdiagonal of C(T)*S*C for irrep
                     2
  5.218048215738236E-015  2.906897062615204E-014
 reorthoganalization of MOs is carried out
 sum over diagonal and offdiagdiagonal of C(T)*S*C for irrep
                     2
 -7.771561172376096E-016 -2.349069371372503E-015
 
 sum over diagonal and offdiagdiagonal of C(T)*S*C for irrep
                     3
  1.276756478318930E-014  3.267203088797161E-014
 reorthoganalization of MOs is carried out
 sum over diagonal and offdiagdiagonal of C(T)*S*C for irrep
                     3
  8.881784197001252E-016  4.038980805899390E-015
 
 sum over diagonal and offdiagdiagonal of C(T)*S*C for irrep
                     4
  6.550315845288424E-015 -1.263580522274890E-014
 reorthoganalization of MOs is carried out
 sum over diagonal and offdiagdiagonal of C(T)*S*C for irrep
                     4
 -5.551115123125783E-016  9.303737957838079E-016
 
 sum over diagonal and offdiagdiagonal of C(T)*S*C for irrep
                     5
  2.176037128265307E-014  1.183199661772542E-013
 reorthoganalization of MOs is carried out
 sum over diagonal and offdiagdiagonal of C(T)*S*C for irrep
                     5
  8.881784197001252E-016  8.601518285890439E-015
 
 sum over diagonal and offdiagdiagonal of C(T)*S*C for irrep
                     6
  6.883382752675971E-015 -4.067669298170187E-014
 reorthoganalization of MOs is carried out
 sum over diagonal and offdiagdiagonal of C(T)*S*C for irrep
                     6
  1.887379141862766E-015  3.015744286654850E-015
 
 sum over diagonal and offdiagdiagonal of C(T)*S*C for irrep
                     7
  2.320366121466577E-014  4.957045618503951E-015
 reorthoganalization of MOs is carried out
 sum over diagonal and offdiagdiagonal of C(T)*S*C for irrep
                     7
 -1.110223024625157E-016  3.580931782330613E-015
 
 sum over diagonal and offdiagdiagonal of C(T)*S*C for irrep
                     8
  6.550315845288424E-015 -4.863321600956190E-015
 reorthoganalization of MOs is carried out
 sum over diagonal and offdiagdiagonal of C(T)*S*C for irrep
                     8
 -5.551115123125783E-016  1.856168265067543E-015
  processed                  38538  ao basis integrals from 
                    65  buffers.
  processed                 183460  ao basis integrals from 
                   306  buffers.
  processed                 316593  ao basis integrals from 
                   528  buffers.
       5         -5130.391735957652600              0.6241868302D+01
   current occupation vector 
     9  4  4  1  8  4  4  1
     9  4  4  1  8  4  4  1
  processed                  38538  ao basis integrals from 
                    65  buffers.
  processed                 183460  ao basis integrals from 
                   306  buffers.
  processed                 316593  ao basis integrals from 
                   528  buffers.
       6         -5144.534736591253932              0.9879372570D+00
   current occupation vector 
     9  4  4  1  8  4  4  1
     9  4  4  1  8  4  4  1
  processed                  38538  ao basis integrals from 
                    65  buffers.
  processed                 183460  ao basis integrals from 
                   306  buffers.
  processed                 316593  ao basis integrals from 
                   528  buffers.
       7         -5144.786967769862713              0.1010510927D+00
   current occupation vector 
     9  4  4  1  8  4  4  1
     9  4  4  1  8  4  4  1
  processed                  38538  ao basis integrals from 
                    65  buffers.
  processed                 183460  ao basis integrals from 
                   306  buffers.
  processed                 316593  ao basis integrals from 
                   528  buffers.
       8         -5144.820021403884311              0.3437722042D-01
   current occupation vector 
     9  4  4  1  8  4  4  1
     9  4  4  1  8  4  4  1
  processed                  38538  ao basis integrals from 
                    65  buffers.
  processed                 183460  ao basis integrals from 
                   306  buffers.
  processed                 316593  ao basis integrals from 
                   528  buffers.
       9         -5144.820651988068676              0.4757950409D-02
   current occupation vector 
     9  4  4  1  8  4  4  1
     9  4  4  1  8  4  4  1
 
 sum over diagonal and offdiagdiagonal of C(T)*S*C for irrep
                     1
  1.132427485117660E-013 -1.247609851087092E-013
 reorthoganalization of MOs is carried out
 sum over diagonal and offdiagdiagonal of C(T)*S*C for irrep
                     1
  2.775557561562891E-015  6.539704783888720E-016
 
 sum over diagonal and offdiagdiagonal of C(T)*S*C for irrep
                     2
  3.885780586188048E-015 -1.214410158961232E-014
 reorthoganalization of MOs is carried out
 sum over diagonal and offdiagdiagonal of C(T)*S*C for irrep
                     2
  1.110223024625157E-016  7.710867912177714E-016
 
 sum over diagonal and offdiagdiagonal of C(T)*S*C for irrep
                     3
 -1.998401444325282E-015 -1.192612652200418E-014
 reorthoganalization of MOs is carried out
 sum over diagonal and offdiagdiagonal of C(T)*S*C for irrep
                     3
 -3.330669073875470E-016 -2.446297371489642E-016
 
 sum over diagonal and offdiagdiagonal of C(T)*S*C for irrep
                     4
  6.439293542825908E-015  1.023198008203981E-015
 reorthoganalization of MOs is carried out
 sum over diagonal and offdiagdiagonal of C(T)*S*C for irrep
                     4
  0.000000000000000E+000 -3.553957258971758E-016
 
 sum over diagonal and offdiagdiagonal of C(T)*S*C for irrep
                     5
  8.770761894538737E-015  4.115509795877387E-014
 reorthoganalization of MOs is carried out
 sum over diagonal and offdiagdiagonal of C(T)*S*C for irrep
                     5
 -3.108624468950438E-015  2.459355147978619E-015
 
 sum over diagonal and offdiagdiagonal of C(T)*S*C for irrep
                     6
  1.887379141862766E-015 -1.093762829443761E-014
 reorthoganalization of MOs is carried out
 sum over diagonal and offdiagdiagonal of C(T)*S*C for irrep
                     6
  1.110223024625157E-016  1.643216602533543E-015
 
 sum over diagonal and offdiagdiagonal of C(T)*S*C for irrep
                     7
  8.215650382226158E-015  2.053441155142487E-014
 reorthoganalization of MOs is carried out
 sum over diagonal and offdiagdiagonal of C(T)*S*C for irrep
                     7
 -1.332267629550188E-015 -2.109018663140401E-015
 
 sum over diagonal and offdiagdiagonal of C(T)*S*C for irrep
                     8
  1.332267629550188E-015 -6.049298356751640E-016
 reorthoganalization of MOs is carried out
 sum over diagonal and offdiagdiagonal of C(T)*S*C for irrep
                     8
 -3.330669073875470E-016  4.997396183018446E-017
  processed                  38538  ao basis integrals from 
                    65  buffers.
  processed                 183460  ao basis integrals from 
                   306  buffers.
  processed                 316593  ao basis integrals from 
                   528  buffers.
      10         -5144.820681761063497              0.1661238426D-02
   current occupation vector 
     9  4  4  1  8  4  4  1
     9  4  4  1  8  4  4  1
  processed                  38538  ao basis integrals from 
                    65  buffers.
  processed                 183460  ao basis integrals from 
                   306  buffers.
  processed                 316593  ao basis integrals from 
                   528  buffers.
      11         -5144.820682677328477              0.2630997386D-03
   current occupation vector 
     9  4  4  1  8  4  4  1
     9  4  4  1  8  4  4  1
  processed                  38538  ao basis integrals from 
                    65  buffers.
  processed                 183460  ao basis integrals from 
                   306  buffers.
  processed                 316593  ao basis integrals from 
                   528  buffers.
      12         -5144.820682686809960              0.3386767044D-04
   current occupation vector 
     9  4  4  1  8  4  4  1
     9  4  4  1  8  4  4  1
  processed                  38538  ao basis integrals from 
                    65  buffers.
  processed                 183460  ao basis integrals from 
                   306  buffers.
  processed                 316593  ao basis integrals from 
                   528  buffers.
      13         -5144.820682687094632              0.4968933353D-05
   current occupation vector 
     9  4  4  1  8  4  4  1
     9  4  4  1  8  4  4  1
  processed                  38538  ao basis integrals from 
                    65  buffers.
  processed                 183460  ao basis integrals from 
                   306  buffers.
  processed                 316593  ao basis integrals from 
                   528  buffers.
      14         -5144.820682687103726              0.5989771218D-06
   current occupation vector 
     9  4  4  1  8  4  4  1
     9  4  4  1  8  4  4  1
 
 sum over diagonal and offdiagdiagonal of C(T)*S*C for irrep
                     1
  1.311173392082310E-013 -1.106461634769404E-013
 reorthoganalization of MOs is carried out
 sum over diagonal and offdiagdiagonal of C(T)*S*C for irrep
                     1
  1.221245327087672E-015 -2.812097096685917E-015
 
 sum over diagonal and offdiagdiagonal of C(T)*S*C for irrep
                     2
  1.454392162258955E-014 -8.806376123279639E-015
 reorthoganalization of MOs is carried out
 sum over diagonal and offdiagdiagonal of C(T)*S*C for irrep
                     2
 -1.998401444325282E-015  1.725818561760481E-015
 
 sum over diagonal and offdiagdiagonal of C(T)*S*C for irrep
                     3
  7.882583474838611E-015 -1.206352797447800E-014
 reorthoganalization of MOs is carried out
 sum over diagonal and offdiagdiagonal of C(T)*S*C for irrep
                     3
  6.661338147750939E-016  1.136180813507607E-015
 
 sum over diagonal and offdiagdiagonal of C(T)*S*C for irrep
                     4
  2.775557561562891E-015 -3.881883861360859E-015
 reorthoganalization of MOs is carried out
 sum over diagonal and offdiagdiagonal of C(T)*S*C for irrep
                     4
  9.992007221626409E-016  2.416644357952882E-017
 
 sum over diagonal and offdiagdiagonal of C(T)*S*C for irrep
                     5
 -1.809663530139005E-014  5.811436542514127E-014
 reorthoganalization of MOs is carried out
 sum over diagonal and offdiagdiagonal of C(T)*S*C for irrep
                     5
  2.220446049250313E-016 -4.365206562683327E-015
 
 sum over diagonal and offdiagdiagonal of C(T)*S*C for irrep
                     6
 -1.165734175856414E-014 -1.415363348008125E-014
 reorthoganalization of MOs is carried out
 sum over diagonal and offdiagdiagonal of C(T)*S*C for irrep
                     6
 -1.110223024625157E-016  2.026345348581541E-015
 
 sum over diagonal and offdiagdiagonal of C(T)*S*C for irrep
                     7
  1.332267629550188E-014  2.530723765175554E-014
 reorthoganalization of MOs is carried out
 sum over diagonal and offdiagdiagonal of C(T)*S*C for irrep
                     7
[...]
   The AB contribution to the correlation energy is:   -0.2764686 a.u.
   The total correlation energy is -0.350999055587 a.u.
   The total correlation energy is -0.350999055587 a.u.
  Current DIIS expansion coefficients : 
 [   1] 1.2502829678 [   2]-0.0001818663 [   3] 0.0265255414 [   4]-0.1138729056
 [   5]-0.1627537374
  Convergence information after    11 iterations: 
  Largest element of residual vector : -0.30944795E-06.
  Largest element of DIIS residual   : -0.16535606E-06.
  W(mnij) AB contribution =  0.0615768572 a.u.
  W(abef) AB contribution =  0.0797644633 a.u.
  W(mbej) AB contribution = -0.2039416877 a.u.
   After  12 iterations, amplitude changes are:
    -------------------------------------------------------------------
                 Spin      RMS          Max.      Max. change for
     Amplitude   Case     Change       Change       i    j    a    b
    -------------------------------------------------------------------
        T1        AA    0.0000000013-0.0000000567    5        38
        T2        AA    0.0000000000 0.0000000089    6    2   38   21
        T2        AB    0.0000000000-0.0000000757    7    7   38   38
    -------------------------------------------------------------------
   The AA contribution to the correlation energy is:   -0.0372652 a.u.
   The AB contribution to the correlation energy is:   -0.2764686 a.u.
   The total correlation energy is -0.350999055890 a.u.
   The total correlation energy is -0.350999055890 a.u.
  Current DIIS expansion coefficients : 
 [   1]-0.1742396961 [   2] 1.2174269972 [   3] 0.0026281302 [   4] 0.0063256385
 [   5]-0.0521410698
  Convergence information after    12 iterations: 
  Largest element of residual vector : -0.75658081E-07.
  Largest element of DIIS residual   :  0.53377977E-07.
  W(mnij) AB contribution =  0.0615768585 a.u.
  W(abef) AB contribution =  0.0797644650 a.u.
  W(mbej) AB contribution = -0.2039416982 a.u.
   After  13 iterations, amplitude changes are:
    -------------------------------------------------------------------
                 Spin      RMS          Max.      Max. change for
     Amplitude   Case     Change       Change       i    j    a    b
    -------------------------------------------------------------------
        T1        AA    0.0000000003-0.0000000087    5        38
        T2        AA    0.0000000000 0.0000000024    7    1   38   27
        T2        AB    0.0000000000-0.0000000375    7    7   38   38
    -------------------------------------------------------------------
   The AA contribution to the correlation energy is:   -0.0372652 a.u.
   The AB contribution to the correlation energy is:   -0.2764686 a.u.
   The total correlation energy is -0.350999056508 a.u.
   The total correlation energy is -0.350999056508 a.u.
  Current DIIS expansion coefficients : 
 [   1]-0.0601101631 [   2]-0.0813076653 [   3] 1.1322132474 [   4] 0.0015283970
 [   5] 0.0076761841
  Convergence information after    13 iterations: 
  Largest element of residual vector : -0.37494847E-07.
  Largest element of DIIS residual   : -0.28912499E-07.
  W(mnij) AB contribution =  0.0615768581 a.u.
  W(abef) AB contribution =  0.0797644654 a.u.
  W(mbej) AB contribution = -0.2039416987 a.u.
   After  14 iterations, amplitude changes are:
    -------------------------------------------------------------------
                 Spin      RMS          Max.      Max. change for
     Amplitude   Case     Change       Change       i    j    a    b
    -------------------------------------------------------------------
        T1        AA    0.0000000001-0.0000000028    5        41
        T2        AA    0.0000000000-0.0000000009    7    5   59   38
        T2        AB    0.0000000000-0.0000000151    6    6   38   38
    -------------------------------------------------------------------
   The AA contribution to the correlation energy is:   -0.0372652 a.u.
   The AB contribution to the correlation energy is:   -0.2764686 a.u.
   The total correlation energy is -0.350999056246 a.u.
   The total correlation energy is -0.350999056246 a.u.
  Current DIIS expansion coefficients : 
 [   1] 0.0392452553 [   2]-0.1159179553 [   3]-0.3244470124 [   4] 1.4032612388
 [   5]-0.0021415265
  Convergence information after    14 iterations: 
  Largest element of residual vector : -0.15073004E-07.
  Largest element of DIIS residual   :  0.99380270E-08.
  W(mnij) AB contribution =  0.0615768575 a.u.
  W(abef) AB contribution =  0.0797644652 a.u.
  W(mbej) AB contribution = -0.2039416979 a.u.
   After  15 iterations, amplitude changes are:
    -------------------------------------------------------------------
                 Spin      RMS          Max.      Max. change for
     Amplitude   Case     Change       Change       i    j    a    b
    -------------------------------------------------------------------
        T1        AA    0.0000000001 0.0000000040    5        38
        T2        AA    0.0000000000 0.0000000004    7    6   28   21
        T2        AB    0.0000000000-0.0000000066    6    6   38   38
    -------------------------------------------------------------------
   The AA contribution to the correlation energy is:   -0.0372652 a.u.
   The AB contribution to the correlation energy is:   -0.2764686 a.u.
   The total correlation energy is -0.350999056017 a.u.
   The total correlation energy is -0.350999056017 a.u.
  Current DIIS expansion coefficients : 
 [   1]-0.0050502244 [   2] 0.0513436877 [   3]-0.0534327789 [   4]-0.3738377592
 [   5] 1.3809770748
  Convergence information after    15 iterations: 
  Largest element of residual vector : -0.65736957E-08.
  Largest element of DIIS residual   : -0.40229814E-08.
   Largest T1 amplitudes for spin case AA:
   i       a                 i       a                 i       a    
-----------------------------------------------------------------------------
[  2      10    ] 0.01188 [  2      11    ]-0.01187 [  5      41    ] 0.01043
[  4      28    ]-0.00994 [  3      21    ]-0.00994 [  5      38    ] 0.00886
[  2       8    ]-0.00855 [  2      15    ] 0.00507 [  1      10    ] 0.00433
[  4      27    ] 0.00355 [  3      20    ] 0.00355 [  5      44    ] 0.00348
[  1      11    ] 0.00285 [  1       8    ]-0.00281 [  2      12    ]-0.00265
-----------------------------------------------------------------------------
   Norm of T1AA vector (       65 symmetry allowed elements):  0.0296807161.
-----------------------------------------------------------------------------
   Largest T2 amplitudes for spin case AB:
       _       _                 _       _                 _       _
   i   j   a   b             i   j   a   b             i   j   a   b
-----------------------------------------------------------------------------
[  2   2  38  38]-0.10215 [  2   2  39  38] 0.03662 [  2   2  38  39] 0.03662
[  7   2  28  38] 0.03253 [  2   7  38  28] 0.03253 [  6   2  21  38] 0.03253
[  2   6  38  21] 0.03253 [  6   6  38  38]-0.03120 [  7   7  38  38]-0.03120
[  6   6  21  21]-0.02569 [  7   7  28  28]-0.02569 [  5   5  38  38]-0.02317
[  3   3  21  21]-0.02156 [  4   4  28  28]-0.02156 [  3   3   9   9]-0.02030
-----------------------------------------------------------------------------
   Norm of T2AB vector (    23445 symmetry allowed elements):  0.3621312283.
-----------------------------------------------------------------------------
  W(mnij) AB contribution =  0.0615768575 a.u.
  W(abef) AB contribution =  0.0797644653 a.u.
  W(mbej) AB contribution = -0.2039416981 a.u.
   After  16 iterations, amplitude changes are:
    -------------------------------------------------------------------
                 Spin      RMS          Max.      Max. change for
     Amplitude   Case     Change       Change       i    j    a    b
    -------------------------------------------------------------------
        T1        AA    0.0000000000-0.0000000006    4        27
        T2        AA    0.0000000000-0.0000000002    6    2   38   21
        T2        AB    0.0000000000-0.0000000022    7    7   38   38
    -------------------------------------------------------------------
   The AA contribution to the correlation energy is:   -0.0372652 a.u.
   The AB contribution to the correlation energy is:   -0.2764686 a.u.
   The total correlation energy is -0.350999056150 a.u.
   The total correlation energy is -0.350999056150 a.u.
  Current DIIS expansion coefficients : 
 [   1] 1.1994075643 [   2]-0.0000571125 [   3] 0.0108383598 [   4]-0.0530687598
 [   5]-0.1571200518
  Convergence information after    16 iterations: 
  Largest element of residual vector : -0.21931407E-08.
  Largest element of DIIS residual   : -0.12017482E-08.
  W(mnij) AB contribution =  0.0615768577 a.u.
  W(abef) AB contribution =  0.0797644655 a.u.
  W(mbej) AB contribution = -0.2039416989 a.u.
   After  17 iterations, amplitude changes are:
    -------------------------------------------------------------------
                 Spin      RMS          Max.      Max. change for
     Amplitude   Case     Change       Change       i    j    a    b
    -------------------------------------------------------------------
        T1        AA    0.0000000000 0.0000000003    5        38
        T2        AA    0.0000000000-0.0000000001    5    4   38   28
        T2        AB    0.0000000000-0.0000000007    7    7   38   38
    -------------------------------------------------------------------
   The AA contribution to the correlation energy is:   -0.0372652 a.u.
   The AB contribution to the correlation energy is:   -0.2764686 a.u.
   The total correlation energy is -0.350999056130 a.u.
   The total correlation energy is -0.350999056130 a.u.
  Current DIIS expansion coefficients : 
 [   1]-0.0381532957 [   2] 1.1370702640 [   3] 0.0033165621 [   4] 0.0189066712
 [   5]-0.1211402017
  Convergence information after    17 iterations: 
  Largest element of residual vector : -0.68390094E-09.
  Largest element of DIIS residual   : -0.30790844E-09.
  Amplitude equations converged in    17iterations.
   The AA contribution to the correlation energy is:   -0.0372652 a.u.
   The AB contribution to the correlation energy is:   -0.2764686 a.u.
   The total correlation energy is -0.350999056147 a.u.
   The total correlation energy is -0.350999056147 a.u.
   The CC iterations have converged.

   Largest T1 amplitudes for spin case AA:
   i       a                 i       a                 i       a    
-----------------------------------------------------------------------------
[  2      10    ] 0.01188 [  2      11    ]-0.01187 [  5      41    ] 0.01043
[  4      28    ]-0.00994 [  3      21    ]-0.00994 [  5      38    ] 0.00886
[  2       8    ]-0.00855 [  2      15    ] 0.00507 [  1      10    ] 0.00433
[  3      20    ] 0.00355 [  4      27    ] 0.00355 [  5      44    ] 0.00348
[  1      11    ] 0.00285 [  1       8    ]-0.00281 [  2      12    ]-0.00265
-----------------------------------------------------------------------------
   Norm of T1AA vector (       65 symmetry allowed elements):  0.0296807159.
-----------------------------------------------------------------------------
   Largest T2 amplitudes for spin case AB:
       _       _                 _       _                 _       _
   i   j   a   b             i   j   a   b             i   j   a   b
-----------------------------------------------------------------------------
[  2   2  38  38]-0.10215 [  2   2  39  38] 0.03662 [  2   2  38  39] 0.03662
[  6   2  21  38] 0.03253 [  2   6  38  21] 0.03253 [  7   2  28  38] 0.03253
[  2   7  38  28] 0.03253 [  6   6  38  38]-0.03120 [  7   7  38  38]-0.03120
[  7   7  28  28]-0.02569 [  6   6  21  21]-0.02569 [  5   5  38  38]-0.02317
[  4   4  28  28]-0.02156 [  3   3  21  21]-0.02156 [  4   4  34  34]-0.02030
-----------------------------------------------------------------------------
   Norm of T2AB vector (    23445 symmetry allowed elements):  0.3621312294.
-----------------------------------------------------------------------------
       Summary of iterative solution of CC equations 
      -----------------------------------------------------------
                       Correlation           Total
       Iteration         Energy              Energy
      -----------------------------------------------------------
            0        -0.322066868262   -5145.142749555365  DIIS 
            1        -0.342087268686   -5145.162769955790  DIIS 
            2        -0.348949433252   -5145.169632120356  DIIS 
            3        -0.350475153276   -5145.171157840379  DIIS 
            4        -0.350970609517   -5145.171653296620  DIIS 
            5        -0.350999640862   -5145.171682327966  DIIS 
            6        -0.350999585976   -5145.171682273080  DIIS 
            7        -0.350998476208   -5145.171681163311  DIIS 
            8        -0.350998478927   -5145.171681166031  DIIS 
            9        -0.350998973477   -5145.171681660580  DIIS 
           10        -0.350999004912   -5145.171681692015  DIIS 
           11        -0.350999055587   -5145.171681742690  DIIS 
           12        -0.350999055890   -5145.171681742993  DIIS 
           13        -0.350999056508   -5145.171681743612  DIIS 
           14        -0.350999056246   -5145.171681743350  DIIS 
           15        -0.350999056017   -5145.171681743121  DIIS 
           16        -0.350999056150   -5145.171681743253  DIIS 
           17        -0.350999056147   -5145.171681743251  DIIS 
      -----------------------------------------------------------
      A miracle has come to pass. The CC iterations have converged.
 @DIMT3-I, Dimensions of T3 amplitudes : 
               # abc          # ijk       Symmetry    Spin 
                     4574              2     1          1
                     4515              4     2          1
                     4515              4     3          1
                     4406              6     4          1
                     4544              5     5          1
                     4515              4     6          1
                     4515              4     7          1
                     4406              6     8          1
                    14442             18     1          2
                    13965             18     2          2
                    13965             18     3          2
                    13458             18     4          2
                    14412             21     5          2
                    13965             18     6          2
                    13965             18     7          2
                    13458             18     8          2
                    14442             18     1          3
                    13965             18     2          3
                    13965             18     3          3
                    13458             18     4          3
                    14412             21     5          3
                    13965             18     6          3
                    13965             18     7          3
                    13458             18     8          3
                     4574              2     1          4
                     4515              4     2          4
                     4515              4     3          4
                     4406              6     4          4
                     4544              5     5          4
                     4515              4     6          4
                     4515              4     7          4
                     4406              6     8          4
 @DIMT3-I, Dimensions of T3 amplitudes : 
               # abc          # ijk       Symmetry    Spin 
                     4574              2     1          1
                     4515              4     2          1
                     4515              4     3          1
                     4406              6     4          1
                     4544              5     5          1
                     4515              4     6          1
                     4515              4     7          1
                     4406              6     8          1
                    14442             18     1          2
                    13965             18     2          2
                    13965             18     3          2
                    13458             18     4          2
                    14412             21     5          2
                    13965             18     6          2
                    13965             18     7          2
                    13458             18     8          2
                    14442             18     1          3
                    13965             18     2          3
                    13965             18     3          3
                    13458             18     4          3
                    14412             21     5          3
                    13965             18     6          3
                    13965             18     7          3
                    13458             18     8          3
                     4574              2     1          4
                     4515              4     2          4
                     4515              4     3          4
                     4406              6     4          4
                     4544              5     5          4
                     4515              4     6          4
                     4515              4     7          4
                     4406              6     8          4
 @TRPS-I, Welcome to TRPS. Watch your RUs ! 
 @TRPS-I, Method is CCSD(T) 
 @TRPS-I, Calculation type is energy 
 @TRPS-I, Reference function information : 
          Reference function is Hartree-Fock 
          Reference function is RHF Hartree-Fock 
 @TRPS-I, INT1 is true 
 @TRPS-I, INT2 is false 
 @TRPS-I, Lengths of ijka integrals. #1       1137
                                     #2       1137
                                     #3       2729
                                     #4       2729
                                    Max       2729
 @INITRP-I, Initializing W intermediate lists. 
 @SETOOOV-I, Some OOOV lists are being transposed. 
 @TRPS-I, Available memory in integer words   1499959040
          Number of pre-allocated words for TRPS2        17542
          Number of free words for TRPS2   1499941498
 @TRPS2-I, Spin case AAB 
 @TRPS2-I, Number of free integer words 1499941498
           Number of free double  words 1499941498
           Ratio                                 1
 @TRPS2-I, E4TBAA      -0.006964576089
  @TRPS2-I, E4TAAA  -3.796078594991549E-004
 @TRPS2-I, E5ST A    0.000040370196844
 @TRPS2-I, E5ST B    0.000034583970762
 @SETOOOV-I, Some OOOV lists are being transposed. 
 @CCENRG-I, CCSD/QCISD energy will now be evaluated. 
 @CCENRG-I, Correlation energies. ECCAA       -0.037265205584
                                  ECCBB        0.000000000000
                                  ECCAB       -0.276468644979
                                  Total       -0.350999056147
 @CCENRG-I, Reference   energy   -5144.820682687104
            CCSD/QCISD energy    -5145.171681743251
          E4T (T(CCSD)) = -0.014688367897
          E5ST          =  0.000149908335
          E4ST          =  0.000000000000
          In other words  
          <T3[2](Dagger) D3  T3[2]> = -0.014688367897
          <T1   (Dagger) Q1 WT3[2]> =  0.000149908335
          <T2   (Dagger) Q2 FT3[2]> =  0.000000000000
        E(CCSD)           =   -5145.171681743251
        E(CCSD + T(CCSD)) =   -5145.186370111148
        E(CCSD(T))        =   -5145.186220202812
  @CHECKOUT-I, Total execution time (CPU/WALL):        9.42/       1.21 seconds.
--executable xvcc finished with status     0 in        1.25 seconds (walltime).
  The final electronic energy is     -5145.186220202812365 a.u. 
  This computation required                           12.29 seconds (walltime).
