 --invoking executable--
/home/nike/cfour_v2.00beta/cfour_v2.00beta/bin/xjoda


   *************************************************************************
         <<<     CCCCCC     CCCCCC   |||     CCCCCC     CCCCCC   >>>
       <<<      CCC        CCC       |||    CCC        CCC         >>>
      <<<      CCC        CCC        |||   CCC        CCC            >>>
    <<<        CCC        CCC        |||   CCC        CCC              >>>
      <<<      CCC        CCC        |||   CCC        CCC            >>>
       <<<      CCC        CCC       |||    CCC        CCC         >>>
         <<<     CCCCCC     CCCCCC   |||     CCCCCC     CCCCCC   >>>
   *************************************************************************

     ****************************************************************
     * CFOUR Coupled-Cluster techniques for Computational Chemistry *
     ****************************************************************
 

   Department of Chemistry                Institut fuer Physikalische Chemie
   University of Texas at Austin          Universitaet Mainz
   Austin, TX  78712, USA                 D-55099 Mainz, Germany
 
                       Version 2.00beta
 
                     blg4111.int.ets1.calculquebec.ca                  
                     Sa 7. Mär 16:47:18 EST 2020                      
                     integer*8 version is running
 
********************************************************************************
*                          Input from ZMAT file                                *
********************************************************************************
TITLE                                                                           
Ti                                                                              
F 1 R                                                                           
F 1 R 2 A                                                                       
F 1 R 2 A 3 D                                                                   
F 1 R 2 A 3 E                                                                   
                                                                                
R=3.31835907484                                                                 
A=109.4712206                                                                   
D=240.0                                                                         
E=120.0                                                                         
                                                                                
*ACES2(CALC=CCSD(T)                                                             
UNITS=BOHR                                                                      
#GEOM=1.756*10/5.29177210903_CRC2016                                            
#COORD=CARTESIAN                                                                
COORD=INTERNAL                                                                  
PRINT=4                                                                         
JODA_PRINT=4                                                                    
INPUT_MRCC=OFF                                                                  
#CC_PROG=MRCC                                                                   
#FROZEN_CORE=ON                                                                 
DROPMO=1>9                                                                      
CONTRACTION=GENERAL                                                             
#CONTRACTION=SEGMENTED                                                          
RELATIVISTIC=OFF                                                                
#EXCITE=EOMEE                                                                   
#ESTATE_CONV=5                                                                  
#ESTATE_SYM=2/2/2/2/2/2/2/2                                                     
XFORM_TOL=18                                                                    
SAVE_INTS=ON                                                                    
SCF_EXPORDER=6                                                                  
SCF_EXPSTART=5                                                                  
#SCF_DAMPING=1000                                                               
SCF_EXTRAPOLATION=ON                                                            
SCF_CONV=12                                                                     
SCF_MAXCYC=99999                                                                
CC_CONV=9                                                                       
CC_MAXCYC=999                                                                   
T3_EXTRAPOL=ON                                                                  
REFERENCE=RHF                                                                   
CHARGE=+0                                                                       
MULT=1                                                                          
ABCDTYPE=STANDARD                                                               
#OCCUPATION=3-2-2-0-1-0-0-0/3-1-1-0-1-0-0-0                                     
MEM=12                                                                          
MEM_UNIT=GB                                                                     
ECP=OFF                                                                         
BASIS=SPECIAL)                                                                  
                                                                                
TI:def2-TZVPP                                                                   
F:def2-TZVPP                                                                    
F:def2-TZVPP                                                                    
F:def2-TZVPP                                                                    
F:def2-TZVPP                                                                    
                                                                                
TI:def2-TZVPP                                                                   
F:def2-TZVPP                                                                    
F:def2-TZVPP                                                                    
F:def2-TZVPP                                                                    
F:def2-TZVPP                                                                    
                                                                                
********************************************************************************
  @GTFLGS-W, Keyword #GEOM not known and is ignored.
  @GTFLGS-W, Keyword #COORD not known and is ignored.
  @GTFLGS-W, Keyword #CC_PROG not known and is ignored.
  @GTFLGS-W, Keyword #FROZEN_CORE not known and is ignored.
  @GTFLGS-W, Keyword #CONTRACTION not known and is ignored.
  @GTFLGS-W, Keyword #EXCITE not known and is ignored.
  @GTFLGS-W, Keyword #ESTATE_CONV not known and is ignored.
  @GTFLGS-W, Keyword #ESTATE_SYM not known and is ignored.
  @GTFLGS-W, Keyword #SCF_DAMPING not known and is ignored.
  @GTFLGS-W, Keyword #OCCUPATION not known and is ignored.
    -------------------------------------------------------------------
                    CFOUR Control Parameters 
    -------------------------------------------------------------------
        External           Internal           Value            Units
          Name               Name
    -------------------------------------------------------------------
       ABCDTYPE             IABCDT         STANDARD     [  0]   ***   
       ANHARMONIC           IANHAR         OFF          [  0]   ***   
       ANH_ALGORIT          IANALG         STANDARD     [  0]   ***   
       ANH_DERIVAT          IANDER         SECOND       [  1]   ***   
       ANH_STEPSIZ          ICUBST             50000          x 10-6  
       ANH_SYMMETR          IANHSM         ABELIAN      [  0]   ***   
       AO_LADDERS           IAOLAD         SINGLEPASS   [  1]   ***   
       BASIS                IBASIS         SPECIAL      [  0]   ***   
       BREIT                IBREIT         OFF          [  0]   ***   
       BRUCK_CONV           IBRTOL          10D-  4             ***   
       BRUECKNER            IBRKNR             OFF      [  0]   ***   
       BUFFERSIZE           IBUFFS            600               ***   
       CACHE_RECS           ICHREC             10               ***   
       CALCLEVEL            ICLLVL           CCSD(T)    [ 22]   ***   
       CCORBOPT             ICCORB             OFF      [  0] x 0.01  
       CC_CONV              ICCCNV          10D-  9             ***   
       CC_EXPORDER          ICCEOR              5               ***   
       CC_EXTRAPOL          ICCEXT             DIIS     [  1]   ***   
       CC_MAXCYC            ICCCYC            999              cycles 
       CC_PROGRAM           ICCPRO         VCC          [  0]   ***   
       CHARGE               ICHRGE              0               ***   
       CHOLESKY             ICHOLE         OFF          [  0]   ***   
       CIS_CONV             ICISTL              5               ***   
       COMM_SIZE            IPSIZE            ***               ***   
       CONSTANT             ICONST         OLD          [  1]   ***   
       CONTINUUM            ICONTU         NONE         [  0]   ***   
       CONTRACTION          ICNTYP          GENERAL     [  1]   ***   
       COORDINATES          ICOORD         INTERNAL     [  0]   ***   
       CPHF_CONVER          ICPHFT          10D- 16             ***   
       CPHF_MAXCYC          ICPHFC             64              cycles 
       CUBIC                ICUBIC         OFF          [  0]   ***   
       CURVILINEAR          ICURVY            OFF       [  0]   ***   
       DBOC                 IDBOC          OFF          [  0]   ***   
       DCT                  IDCT           OFF          [  0]   ***   
       DERIV_LEV            IDRLVL            ZERO      [  0]   ***   
       DIAG_MRCC            IEOMST          10D-  0             ***   
       DIFF_TYPE            IDIFTY         RELAXED      [  0]   ***   
       DIRECT               IDIRCT         OFF          [  0]   ***   
       DROPMO               IDRPMO   1,  2,  3,  4,  5,  6,  7,  8,
                                     9,
       ECP                  IECP           OFF          [  0]   ***   
       EIGENVECTOR          IVEC                1               ***   
       EL_ANHARM            IELANH         OFF          [  0]   ***   
       EOMFOLLOW            IEOMSR         ENERGY       [  0]   ***   
       EOM_MRCC             IMRCCE         NEW          [  1]   ***   
       EOM_NONIT            EOMNON         OFF          [  0]   ***   
       EOM_NSING            IEOMSI          10D-  0             ***   
       EOM_NSTATES          IMRCCD         DAVIDSON     [  0]   ***   
       EOM_NTRIP            IEOMTR          10D-  0             ***   
       EOM_ORDER            IEXORD         ENERGY       [  0]   ***   
       ESTATE_CONV          IEXTOL          10D-  5             ***   
       ESTATE_DIAG          IEXDIG         ITERATIVE    [  0]   ***   
       ESTATE_LOCK          IESLOC         ON           [  1]   ***   
       ESTATE_MAXC          IEXMXC             20               ***   
       ESTATE_PROP          IEXPRP         OFF          [  0]   ***   
       EVAL_HESS            IRECAL              0            # of cyc.
       EXCITATION           IEXCIT              0               ***   
       EXCITE               IEXCIT         NONE         [  0]   ***   
       FCGRADNEW            IFCGNW         OFF          [  0]   ***   
       FC_FIELD             IFINFC              0             x 10-6  
       FD_CALTYPE           IFDCAL         GRADONLY     [  0]   ***   
       FD_PROJECT           IFDPRJ         OFF          [  1]   ***   
       FD_STEPSIZE          IDISFD              0            10-4 bohr
       FD_USEGROUP          IFDGRP         FULL         [  0]   ***   
       FILE_RECSIZ          IFLREC              4096           words  
       FINITE_PERT          IFIPER              0             x 10-6  
       FIXGEOM              IFIXGM         OFF          [  0]   ***   
       FOCK                 IFOCK          AO           [  1]   ***   
       FREQ_ALGORI          IVIALG         STANDARD     [  0]   ***   
       FROZEN_CORE          IFROCO         OFF          [  0]   ***   
       FROZEN_VIRT          IFROVI         OFF          [  0]   ***   
       GAMMA_ABCD           IGABCD         STORE        [  0]   ***   
       GAMMA_ABCI           IGABCI         STORE        [  0]   ***   
       GENBAS_1             IGNBS1              0               ***   
       GENBAS_2             IGNBS2              0               ***   
       GENBAS_3             IGNBS3              0               ***   
       GENBAS_4             IGNBS4              0               ***   
       GEO_CONV             ICONTL              5              H/bohr 
       GEO_MAXCYC           IOPTCY             50               ***   
       GEO_MAXSTEP          IMXSTP            300            millibohr
       GEO_METHOD           INR            SINGLE_POINT [  5]   ***   
       GIAO                 IGIAO          OFF          [  1]   ***   
       GIMIC                IGIMIC         OFF          [  0]   ***   
       GRID                 IGRID          OFF          [  0]   ***   
       GRID_ALGO            IGALGO         SERIAL       [  0]   ***   
       GUESS                IGUESS            MOREAD    [  0]   ***   
       HBAR                 IHBAR              OFF      [  0]   ***   
       HESS_TYPE            IHESTP         SCF          [  0]   ***   
       HF2_FILE             IHF2Fl         USE          [  1]   ***   
       HFSTABILITY          ISTABL         OFF          [  0]   ***   
       INCORE               INCORE             OFF      [  0]   ***   
       INPUT_MRCC           IMRCC          OFF          [  0]   ***   
       INTEGRALS            INTTYP             VMOL     [  1]   ***   
       JODA_PRINT           IJPRNT              4               ***   
       LINDEP_TOL           ILINDP              8               ***   
       LINEQ_CONV           IZTACN          10D-  7           cycles  
       LINEQ_EXPOR          ILMAXD              5               ***   
       LINEQ_MAXCY          ILMAXC             50               ***   
       LINEQ_TYPE           ILTYPE         DIIS         [  1]   ***   
       LOCK_ORBOCC          ILOCOC             OFF      [  0]   ***   
       MEMORY_SIZE          IMEMSZ         *********           words  
       MEM_UNIT             IMEMU          GB           [  3]   ***   
       MRCC                 IMRCCC         OFF          [  0]   ***   
       MULTIPLICTY          IMULTP              1               ***   
       NEGEVAL              IDIE             ABORT      [  0]   ***   
       NEWNORM              INEWNO         OFF          [  0]   ***   
       NON-HF               INONHF             OFF      [  0]   ***   
       NTOP_TAMP            ITOPT2             15               ***   
       NUC_MODEL            INUCMO         POINT        [  0]   ***   
       OCCUPATION           IOCCU   ESTIMATED BY SCF 
       OPEN-SHELL           IOPEN          SPIN-ORBITAL [  0]   ***   
       ORBITALS             IORBTP           STANDARD   [  0]   ***   
       PARALLEL             IPARAL         ON           [  1]   ***   
       PARA_INT             IPINTS         ON           [  1]   ***   
       PARA_PRINT           IPPRIN              0               ***   
       PERT_ORB             IPTORB         STANDARD     [  0]   ***   
       POINTS               IGRDFD              0               ***   
       PRINT                IPRNT               4               ***   
       PROPS                IPROPS             OFF      [  0]   ***   
       PROP_INTEGR          IINTYP         INTERNAL     [  0]   ***   
       PSI                  IPSI           OFF          [  0]   ***   
       QUARTIC              IQUART         OFF          [  0]   ***   
       RAMAN_INT            IRAMIN         OFF          [  0]   ***   
       RAMAN_ORB            IRAMRE         UNRELAXED    [  0]   ***   
       RDO                  IRDOFM             OFF      [  0]   ***   
       REFERENCE            IREFNC             RHF      [  0]   ***   
       RELATIVIST           IRELAT         OFF          [  0]   ***   
       RELAX_DENS           IRDENS             OFF      [  0]   ***   
       RESET_FLAGS          IRESET             OFF      [  0]   ***   
       RESTART_CC           ICCRES         OFF          [  0]   ***   
       ROT_EVEC             ROTVEC              0               ***   
       SAVE_INTS            ISVINT              ON      [  1]   ***   
       SCALE_ON             ISTCRT              0               ***   
       SCF_CONV             ISCFCV          10D- 12             ***   
       SCF_DAMPING          IDAMP               0             x 10-3  
       SCF_EXPORDE          IRPPOR              6               ***   
       SCF_EXPSTAR          IRPPLS              5               ***   
       SCF_EXTRAPO          IRPP                ON      [  1]   ***   
       SCF_MAXCYC           ISCFCY            ***              cycles 
       SCF_NOSTOP           ISCFST         OFF          [  0]   ***   
       SCF_PRINT            ISCFPR              0               ***   
       SD_FIELD             IFINSD              0             x 10-6  
       SEQUENCE             ISEQUE         OFF          [  0]   ***   
       SOPERT               IPERSO         OFF          [  0]   ***   
       SPHERICAL            IDFGHI             ON       [  1]   ***   
       SPINORBIT            ISOCAL         OFF          [  0]   ***   
       SPINROTATIO          ISRCON         OFF          [  0]   ***   
       SPIN_FLIP            ISPFLP         OFF          [  0]   ***   
       SPIN_ORBIT           ISPORB         OFF          [  0]   ***   
       SPIN_SCAL            ISCSMP         OFF          [  0]   ***   
       SUBGROUP             ISUBGP         DEFAULT      [  0]   ***   
       SUBGRPAXIS           ISBXYZ         X            [  0]   ***   
       SYMMETRY             ISYM             ON         [  0]   ***   
       SYM_CHECK            ISYMCK         OVERRIDE     [  1]   ***   
       T3_EXTRAPOL          IT3EXT         ON           [  1]   ***   
       TAMP_SUM             IEVERY              5               ***   
       TESTSUITE            ITESTS         OFF          [  0]   ***   
       THERMOCH             ITHERM         OFF          [  0]   ***   
       TOL_CHOLESK          ITOLCH          10D-  4             ***   
       TRANGRAD             IRESRM         OFF          [  0]   ***   
       TRANS_INV            ITRAIN         USE          [  0]   ***   
       TREAT_PERT           ITREAT         SIMULTANEOUS [  0]   ***   
       UIJ_THRESHO          IUIJTH              1               ***   
       UNITS                IUNITS         BOHR         [  1]   ***   
       UNOS                 IUNOS          OFF          [  0]   ***   
       UPDATE_HESS          IHUPDT         ON           [  1]   ***   
       VIBPHASE             ISETPH         STANDARD     [  0]   ***   
       VIBRATION            IVIB              NO        [  0]   ***   
       VIB_ALGORIT          IGEALG         STANDARD     [  0]   ***   
       VNATORB              IVNORB         OFF          [  0]   ***   
       VTRAN                IVTRAN         FULL/PARTIAL [  0]   ***   
       XFIELD               IXEFLD              0             x 10-6  
       XFORM_TOL            IXFTOL          10D- 18             ***   
       YFIELD               IYEFLD              0             x 10-6  
       ZFIELD               IZEFLD              0             x 10-6  
    -------------------------------------------------------------------
   5 entries found in Z-matrix 
   Job Title : TITLE                                                                           
 Variable names read by FETCHZ
  1           
  2           
  3           
  4 R         
  5           
  6           
  7 R         
  8 A         
  9           
 10 R         
 11 A         
 12 D         
 13 R         
 14 A         
 15 E         
 Atomic symbols read by FETCHZ
  1 Ti   
  2 F    
  3 F    
  4 F    
  5 F    
 Connectivity matrix read by FETCHZ
  1   0
  2   0
  3   0
  4   1
  5   0
  6   0
  7   1
  8   2
  9   0
 10   1
 11   2
 12   3
 13   1
 14   2
 15   3
   There are  4 unique internal coordinates.
   Of these,  0 will be optimized.
   User supplied Z-matrix: 
--------------------------------------------------------------------------------
       SYMBOL    BOND      LENGTH    ANGLE     ANGLE     DIHED     ANGLE
                  TO      (ANGST)    WRT      (DEG)      WRT      (DEG)
--------------------------------------------------------------------------------
        Ti   
        F          1         R    
        F          1         R          2        A    
        F          1         R          2        A          3        D    
        F          1         R          2        A          3        E    
                  *Initial values for internal coordinates* 
                      Name             Value
                        R               3.3183590748
                        A             109.4712206000
                        D             240.0000000000
                        E             120.0000000000
--------------------------------------------------------------------------------
  1  TI        22    47.94795
  2  F          9    18.99840
  3  F          9    18.99840
  4  F          9    18.99840
  5  F          9    18.99840
@GMETRY-W, Internal coordinate # 12 not within bounds:
   Value was:    4.18879 and has been changed to   -2.09440.
   47.9479473000
   18.9984032200
   18.9984032200
   18.9984032200
   18.9984032200
 After translation to center of mass coordinates 
        0.000000000000    0.000000000000   -0.000000000866
        0.000000000000    0.000000000000    3.318359073974
        3.128578939641    0.000000000000   -1.106119690596
       -1.564289469820    2.709428839474   -1.106119690596
       -1.564289469820   -2.709428839474   -1.106119690596
  Inertia tensor (amu*bohr**2)
  557.86946    0.00000   -0.00000
    0.00000  557.86946   -0.00000
   -0.00000   -0.00000  557.86946
    Inertia tensor:
      557.869464115454    0.000000000000   -0.000000000000
        0.000000000000  557.869464115454   -0.000000000000
       -0.000000000000   -0.000000000000  557.869464471649
    Principal axis orientation for molecular system: 
        0.000000000000    0.000000000000   -0.000000000866
        0.000000000000    0.000000000000    3.318359073974
        2.798286072805    1.399143036402   -1.106119690596
       -2.610836449455    1.723815307904   -1.106119690596
       -0.187449623350   -3.122958344306   -1.106119690596
    Diagonalized inertia tensor:
      557.869464115454    0.000000000000    0.000000000000
        0.000000000000  557.869464115454    0.000000000000
        0.000000000000    0.000000000000  557.869464471649
    Eigenvectors of inertia tensor: 
        0.894427191000    0.447213595500    0.000000000000
       -0.447213595500    0.894427191000    0.000000000000
        0.000000000000    0.000000000000    1.000000000000
 factor:   60.1997200000000     
   Rotational constants (in cm-1): 
          0.1079100468             0.1079100468             0.1079100468
   Rotational constants (in MHz): 
       3235.0622694849          3235.0622715505          3235.0622715505
  @SYMMETRY-I, Handedness of inertial frame: 1.00000
  @SYMMETRY-I, The symmetry group is 2-fold degenerate.
  @SYMMETRY-I, The molecule belongs to a point group with doubly degenerate representations.
  @SYMMETRY-I, Z is a C[ 3] axis.
  @SYMMETRY-I, The highest order rotational axis is C[ 3] about Z.
   Principal axis orientation for molecule:
        0.000000000000   -0.000000000000   -0.000000000866
        0.000000000000   -0.000000000000    3.318359073974
       -1.564289469820   -2.709428839474   -1.106119690596
        3.128578939641    0.000000000000   -1.106119690596
       -1.564289469820    2.709428839474   -1.106119690596
   Reflection in plane  2 is a valid symmetry operation.
  Symmetry bits:    2   0   0
********************************************************************************
   The full molecular point group is C3v .
   The largest Abelian subgroup of the full molecular point group is C s .
   The computational point group is C s .
********************************************************************************
--------------------------------------------------------------------------------
   Analysis of internal coordinates specified by Z-matrix 
--------------------------------------------------------------------------------
   *The nuclear repulsion energy is  328.358980801585972 a.u.
   *There are   3 degrees of freedom within the tot. symm. molecular subspace.
   *Z-matrix requests optimization of   0 coordinates.
   *The optimization is constrained.
   *The following   1 parameters can have non-zero 
    derivatives within the totally symmetric subspace:
             R    [ 1]
   *The following   0 parameters are to be optimized:

   *The following coordinates must be varied in an  unconstrained optimization.
             R    [ 1]
--------------------------------------------------------------------------------
 ----------------------------------------------------------------
 Z-matrix   Atomic            Coordinates (in bohr)
  Symbol    Number           X              Y              Z
 ----------------------------------------------------------------
     TI       22        -0.00000000     0.00000000    -0.00000000
     F         9         3.31835907     0.00000000    -0.00000000
     F         9        -1.10611969    -1.56428947    -2.70942884
     F         9        -1.10611969     3.12857894     0.00000000
     F         9        -1.10611969    -1.56428947     2.70942884
 ----------------------------------------------------------------
   Interatomic distance matrix (Angstroms) 
 
                 TI            F             F             F             F    
                [ 1]        [ 2]        [ 3]        [ 4]        [ 5]
  TI   [ 1]     0.00000
  F    [ 2]     1.75600     0.00000
  F    [ 3]     1.75600     2.86754     0.00000
  F    [ 4]     1.75600     2.86754     2.86754     0.00000
  F    [ 5]     1.75600     2.86754     2.86754     2.86754     0.00000
  Inertia tensor (amu*bohr**2)
  557.86946   -0.00000    0.00000
   -0.00000  557.86946   -0.00000
    0.00000   -0.00000  557.86946
   Rotational constants (in cm-1): 
          0.1079100468             0.1079100468             0.1079100468
   Rotational constants (in MHz): 
       3235.0622694849          3235.0622715505          3235.0622715505
  @GTFLGS-W, Keyword #GEOM not known and is ignored.
  @GTFLGS-W, Keyword #COORD not known and is ignored.
  @GTFLGS-W, Keyword #CC_PROG not known and is ignored.
  @GTFLGS-W, Keyword #FROZEN_CORE not known and is ignored.
  @GTFLGS-W, Keyword #CONTRACTION not known and is ignored.
  @GTFLGS-W, Keyword #EXCITE not known and is ignored.
  @GTFLGS-W, Keyword #ESTATE_CONV not known and is ignored.
  @GTFLGS-W, Keyword #ESTATE_SYM not known and is ignored.
  @GTFLGS-W, Keyword #SCF_DAMPING not known and is ignored.
  @GTFLGS-W, Keyword #OCCUPATION not known and is ignored.
  There are  188 basis functions.
 @GEOPT-W, Archive file not created for single-point calculation.
  @CHECKOUT-I, Total execution time (CPU/WALL):        0.61/       1.46 seconds.
--executable xjoda finished with status     0 in        3.38 seconds (walltime).
 --invoking executable--
/home/nike/cfour_v2.00beta/cfour_v2.00beta/bin/xvmol
 Serial version of molecule started
********************************************************************************
                    Input from MOL file
********************************************************************************
INTGRL        1    0    1    0    0    0    0    0    0                         
         *** CFOUR Program System (Release V0.1) ***                            
TITLE                                                                           
    4    1 Z          0.10E-08              0    0                              
   9999.00      3.00                                                            
         22.00000000    1    5    1    1    1    1    1                         
TI#1  -0.000000000866060   0.000000000000000  -0.000000000000000                
   17    6                                                                      
   211575.690250000       2.331815101100000E-004  0.000000000000000E+000        
  0.000000000000000E+000  0.000000000000000E+000  0.000000000000000E+000        
  0.000000000000000E+000                                                        
   31714.9450580000       1.807969085100000E-003  0.000000000000000E+000        
  0.000000000000000E+000  0.000000000000000E+000  0.000000000000000E+000        
  0.000000000000000E+000                                                        
   7217.54765430000       9.398431135199999E-003  0.000000000000000E+000        
  0.000000000000000E+000  0.000000000000000E+000  0.000000000000000E+000        
  0.000000000000000E+000                                                        
   2042.93942470000       3.815685361800000E-002  0.000000000000000E+000        
  0.000000000000000E+000  0.000000000000000E+000  0.000000000000000E+000        
  0.000000000000000E+000                                                        
   665.128962080000       0.123747571970000       0.000000000000000E+000        
  0.000000000000000E+000  0.000000000000000E+000  0.000000000000000E+000        
  0.000000000000000E+000                                                        
   238.749422640000       0.292085511430000       0.000000000000000E+000        
  0.000000000000000E+000  0.000000000000000E+000  0.000000000000000E+000        
  0.000000000000000E+000                                                        
   92.5086910010000       0.412268008550000       0.000000000000000E+000        
  0.000000000000000E+000  0.000000000000000E+000  0.000000000000000E+000        
  0.000000000000000E+000                                                        
   36.4039192090000       0.210905340610000       0.000000000000000E+000        
  0.000000000000000E+000  0.000000000000000E+000  0.000000000000000E+000        
  0.000000000000000E+000                                                        
   232.726246070000       0.000000000000000E+000 -2.492014073800000E-002        
  0.000000000000000E+000  0.000000000000000E+000  0.000000000000000E+000        
  0.000000000000000E+000                                                        
   71.7912097110000       0.000000000000000E+000 -0.117464900870000             
  0.000000000000000E+000  0.000000000000000E+000  0.000000000000000E+000        
  0.000000000000000E+000                                                        
   11.1585346150000       0.000000000000000E+000  0.565033423180000             
  0.000000000000000E+000  0.000000000000000E+000  0.000000000000000E+000        
  0.000000000000000E+000                                                        
   4.65481354160000       0.000000000000000E+000  0.562111018120000             
  0.000000000000000E+000  0.000000000000000E+000  0.000000000000000E+000        
  0.000000000000000E+000                                                        
   6.80346291740000       0.000000000000000E+000  0.000000000000000E+000        
 -0.230114255030000       0.000000000000000E+000  0.000000000000000E+000        
  0.000000000000000E+000                                                        
   1.12010764030000       0.000000000000000E+000  0.000000000000000E+000        
  0.721031867350000       0.000000000000000E+000  0.000000000000000E+000        
  0.000000000000000E+000                                                        
  0.480801188390000       0.000000000000000E+000  0.000000000000000E+000        
  0.000000000000000E+000   1.00000000000000       0.000000000000000E+000        
  0.000000000000000E+000                                                        
  8.515727497700000E-002  0.000000000000000E+000  0.000000000000000E+000        
  0.000000000000000E+000  0.000000000000000E+000   1.00000000000000             
  0.000000000000000E+000                                                        
  3.265747704600000E-002  0.000000000000000E+000  0.000000000000000E+000        
  0.000000000000000E+000  0.000000000000000E+000  0.000000000000000E+000        
   1.00000000000000                                                             
   12    5                                                                      
   1063.14747320000       2.469083932000000E-003  0.000000000000000E+000        
  0.000000000000000E+000  0.000000000000000E+000  0.000000000000000E+000        
   251.565070610000       1.977334552300000E-002  0.000000000000000E+000        
  0.000000000000000E+000  0.000000000000000E+000  0.000000000000000E+000        
   80.4085548540000       9.098797667200000E-002  0.000000000000000E+000        
  0.000000000000000E+000  0.000000000000000E+000  0.000000000000000E+000        
   29.7681932690000       0.255599004130000       0.000000000000000E+000        
  0.000000000000000E+000  0.000000000000000E+000  0.000000000000000E+000        
   11.7368305560000       0.404893867640000       0.000000000000000E+000        
  0.000000000000000E+000  0.000000000000000E+000  0.000000000000000E+000        
   4.71423752300000       0.236934025580000       0.000000000000000E+000        
  0.000000000000000E+000  0.000000000000000E+000  0.000000000000000E+000        
   17.7968037040000       0.000000000000000E+000 -2.787863961500000E-002        
  0.000000000000000E+000  0.000000000000000E+000  0.000000000000000E+000        
   2.42726986800000       0.000000000000000E+000  0.556729146680000             
  0.000000000000000E+000  0.000000000000000E+000  0.000000000000000E+000        
  0.968234455370000       0.000000000000000E+000   1.00554473500000             
  0.000000000000000E+000  0.000000000000000E+000  0.000000000000000E+000        
  0.370566941650000       0.000000000000000E+000  0.000000000000000E+000        
   1.00000000000000       0.000000000000000E+000  0.000000000000000E+000        
  0.141800000000000       0.000000000000000E+000  0.000000000000000E+000        
  0.000000000000000E+000   1.00000000000000       0.000000000000000E+000        
  5.427000000000000E-002  0.000000000000000E+000  0.000000000000000E+000        
  0.000000000000000E+000  0.000000000000000E+000   1.00000000000000             
    7    4                                                                      
   37.7133847230000       1.151383509200000E-002  0.000000000000000E+000        
  0.000000000000000E+000  0.000000000000000E+000                                
   10.6929311840000       6.724634399600000E-002  0.000000000000000E+000        
  0.000000000000000E+000  0.000000000000000E+000                                
   3.67284469900000       0.214842077750000       0.000000000000000E+000        
  0.000000000000000E+000  0.000000000000000E+000                                
   1.35885903030000       0.388908927790000       0.000000000000000E+000        
  0.000000000000000E+000  0.000000000000000E+000                                
  0.492132952530000       0.000000000000000E+000  0.430408352430000             
  0.000000000000000E+000  0.000000000000000E+000                                
  0.163305206530000       0.000000000000000E+000  0.000000000000000E+000        
  0.232533054650000       0.000000000000000E+000                                
  5.400000000000000E-002  0.000000000000000E+000  0.000000000000000E+000        
  0.000000000000000E+000   1.00000000000000                                     
    2    2                                                                      
  0.253900000000000        1.00000000000000       0.000000000000000E+000        
   1.07500000000000       0.000000000000000E+000   1.00000000000000             
    1    1                                                                      
  0.634000000000000        1.00000000000000                                     
          9.00000000    1    4    1    1    1    1                              
F #2   3.318359073973940   0.000000000000000  -0.000000000000000                
   11    5                                                                      
   35479.1004410000       2.154501488800000E-004  0.000000000000000E+000        
  0.000000000000000E+000  0.000000000000000E+000  0.000000000000000E+000        
   5318.47289830000       1.670068652700000E-003  0.000000000000000E+000        
  0.000000000000000E+000  0.000000000000000E+000  0.000000000000000E+000        
   1210.48109750000       8.673321147599999E-003  0.000000000000000E+000        
  0.000000000000000E+000  0.000000000000000E+000  0.000000000000000E+000        
   342.855181400000       3.504993317500000E-002  0.000000000000000E+000        
  0.000000000000000E+000  0.000000000000000E+000  0.000000000000000E+000        
   112.019431810000       0.111653201330000       0.000000000000000E+000        
  0.000000000000000E+000  0.000000000000000E+000  0.000000000000000E+000        
   40.7147402480000       0.259885066470000       0.000000000000000E+000        
  0.000000000000000E+000  0.000000000000000E+000  0.000000000000000E+000        
   16.0396781110000       0.000000000000000E+000  0.394229668800000             
  0.000000000000000E+000  0.000000000000000E+000  0.000000000000000E+000        
   6.50381867400000       0.000000000000000E+000  0.249982385510000             
  0.000000000000000E+000  0.000000000000000E+000  0.000000000000000E+000        
   1.54404775090000       0.000000000000000E+000  0.000000000000000E+000        
   1.00000000000000       0.000000000000000E+000  0.000000000000000E+000        
  0.612234528620000       0.000000000000000E+000  0.000000000000000E+000        
  0.000000000000000E+000   1.00000000000000       0.000000000000000E+000        
  0.240279796980000       0.000000000000000E+000  0.000000000000000E+000        
  0.000000000000000E+000  0.000000000000000E+000   1.00000000000000             
    6    3                                                                      
   80.2339004830000       6.368599913400000E-003  0.000000000000000E+000        
  0.000000000000000E+000                                                        
   18.5940107430000       4.430314353000000E-002  0.000000000000000E+000        
  0.000000000000000E+000                                                        
   5.68679026530000       0.168672487080000       0.000000000000000E+000        
  0.000000000000000E+000                                                        
   1.95110062940000       0.361663462550000       0.000000000000000E+000        
  0.000000000000000E+000                                                        
  0.669702112980000       0.000000000000000E+000  0.442029014910000             
  0.000000000000000E+000                                                        
  0.216513004100000       0.000000000000000E+000  0.000000000000000E+000        
  0.243198757300000                                                             
    2    2                                                                      
   3.10700000000000        1.00000000000000       0.000000000000000E+000        
  0.855000000000000       0.000000000000000E+000   1.00000000000000             
    1    1                                                                      
   1.91700000000000        1.00000000000000                                     
          9.00000000    1    4    1    1    1    1                              
F #3  -1.106119690596063  -1.564289469820450  -2.709428839474002                
   11    5                                                                      
   35479.1004410000       2.154501488800000E-004  0.000000000000000E+000        
  0.000000000000000E+000  0.000000000000000E+000  0.000000000000000E+000        
   5318.47289830000       1.670068652700000E-003  0.000000000000000E+000        
  0.000000000000000E+000  0.000000000000000E+000  0.000000000000000E+000        
   1210.48109750000       8.673321147599999E-003  0.000000000000000E+000        
  0.000000000000000E+000  0.000000000000000E+000  0.000000000000000E+000        
   342.855181400000       3.504993317500000E-002  0.000000000000000E+000        
  0.000000000000000E+000  0.000000000000000E+000  0.000000000000000E+000        
   112.019431810000       0.111653201330000       0.000000000000000E+000        
  0.000000000000000E+000  0.000000000000000E+000  0.000000000000000E+000        
   40.7147402480000       0.259885066470000       0.000000000000000E+000        
  0.000000000000000E+000  0.000000000000000E+000  0.000000000000000E+000        
   16.0396781110000       0.000000000000000E+000  0.394229668800000             
  0.000000000000000E+000  0.000000000000000E+000  0.000000000000000E+000        
   6.50381867400000       0.000000000000000E+000  0.249982385510000             
  0.000000000000000E+000  0.000000000000000E+000  0.000000000000000E+000        
   1.54404775090000       0.000000000000000E+000  0.000000000000000E+000        
   1.00000000000000       0.000000000000000E+000  0.000000000000000E+000        
  0.612234528620000       0.000000000000000E+000  0.000000000000000E+000        
  0.000000000000000E+000   1.00000000000000       0.000000000000000E+000        
  0.240279796980000       0.000000000000000E+000  0.000000000000000E+000        
  0.000000000000000E+000  0.000000000000000E+000   1.00000000000000             
    6    3                                                                      
   80.2339004830000       6.368599913400000E-003  0.000000000000000E+000        
  0.000000000000000E+000                                                        
   18.5940107430000       4.430314353000000E-002  0.000000000000000E+000        
  0.000000000000000E+000                                                        
   5.68679026530000       0.168672487080000       0.000000000000000E+000        
  0.000000000000000E+000                                                        
   1.95110062940000       0.361663462550000       0.000000000000000E+000        
  0.000000000000000E+000                                                        
  0.669702112980000       0.000000000000000E+000  0.442029014910000             
  0.000000000000000E+000                                                        
  0.216513004100000       0.000000000000000E+000  0.000000000000000E+000        
  0.243198757300000                                                             
    2    2                                                                      
   3.10700000000000        1.00000000000000       0.000000000000000E+000        
  0.855000000000000       0.000000000000000E+000   1.00000000000000             
    1    1                                                                      
   1.91700000000000        1.00000000000000                                     
          9.00000000    1    4    1    1    1    1                              
F #4  -1.106119690596063   3.128578939640900   0.000000000000002                
   11    5                                                                      
   35479.1004410000       2.154501488800000E-004  0.000000000000000E+000        
  0.000000000000000E+000  0.000000000000000E+000  0.000000000000000E+000        
   5318.47289830000       1.670068652700000E-003  0.000000000000000E+000        
  0.000000000000000E+000  0.000000000000000E+000  0.000000000000000E+000        
   1210.48109750000       8.673321147599999E-003  0.000000000000000E+000        
  0.000000000000000E+000  0.000000000000000E+000  0.000000000000000E+000        
   342.855181400000       3.504993317500000E-002  0.000000000000000E+000        
  0.000000000000000E+000  0.000000000000000E+000  0.000000000000000E+000        
   112.019431810000       0.111653201330000       0.000000000000000E+000        
  0.000000000000000E+000  0.000000000000000E+000  0.000000000000000E+000        
   40.7147402480000       0.259885066470000       0.000000000000000E+000        
  0.000000000000000E+000  0.000000000000000E+000  0.000000000000000E+000        
   16.0396781110000       0.000000000000000E+000  0.394229668800000             
  0.000000000000000E+000  0.000000000000000E+000  0.000000000000000E+000        
   6.50381867400000       0.000000000000000E+000  0.249982385510000             
  0.000000000000000E+000  0.000000000000000E+000  0.000000000000000E+000        
   1.54404775090000       0.000000000000000E+000  0.000000000000000E+000        
   1.00000000000000       0.000000000000000E+000  0.000000000000000E+000        
  0.612234528620000       0.000000000000000E+000  0.000000000000000E+000        
  0.000000000000000E+000   1.00000000000000       0.000000000000000E+000        
  0.240279796980000       0.000000000000000E+000  0.000000000000000E+000        
  0.000000000000000E+000  0.000000000000000E+000   1.00000000000000             
    6    3                                                                      
   80.2339004830000       6.368599913400000E-003  0.000000000000000E+000        
  0.000000000000000E+000                                                        
   18.5940107430000       4.430314353000000E-002  0.000000000000000E+000        
  0.000000000000000E+000                                                        
   5.68679026530000       0.168672487080000       0.000000000000000E+000        
  0.000000000000000E+000                                                        
   1.95110062940000       0.361663462550000       0.000000000000000E+000        
  0.000000000000000E+000                                                        
  0.669702112980000       0.000000000000000E+000  0.442029014910000             
  0.000000000000000E+000                                                        
  0.216513004100000       0.000000000000000E+000  0.000000000000000E+000        
  0.243198757300000                                                             
    2    2                                                                      
   3.10700000000000        1.00000000000000       0.000000000000000E+000        
  0.855000000000000       0.000000000000000E+000   1.00000000000000             
    1    1                                                                      
   1.91700000000000        1.00000000000000                                     
FINISH                                                                          
 
********************************************************************************
 One- and two-electron integrals over symmetry-adapted AOs are calculated.

  Spherical harmonics are used.
  
   4 types of atoms
   1 symmetry operations

   Reflection in the XY-plane
  
  Integrals less than  0.10E-13 are neglected.

  Atomic type number  1 :
  -----------------------

    Nuclear charge:                       22
    number of symmetry independent atoms:  1
    highest orbital type:                  g

      1 groups of CGTOs of s type
      1 groups of CGTOs of p type
      1 groups of CGTOs of d type
      1 groups of CGTOs of f type
      1 groups of CGTOs of g type

    nuclear coordinates (in a.u.) are :

    TI#1       -0.000000000866060        0.000000000000000        0.000000000000000
  
   Basis function not normalized: 
   Center (as ordered in MOL file):   1
   Angular Momentum type          : s
   Offset within angular momentum :  1
   <chi|chi>                      :    1.0538176244
   Basis function not normalized: 
   Center (as ordered in MOL file):   1
   Angular Momentum type          : s
   Offset within angular momentum :  2
   <chi|chi>                      :    0.9636700956
   Basis function not normalized: 
   Center (as ordered in MOL file):   1
   Angular Momentum type          : s
   Offset within angular momentum :  3
   <chi|chi>                      :    1.6225821080
   Basis function not normalized: 
   Center (as ordered in MOL file):   1
   Angular Momentum type          : p
   Offset within angular momentum :  1
   <chi|chi>                      :    1.1742099978
   Basis function not normalized: 
   Center (as ordered in MOL file):   1
   Angular Momentum type          : p
   Offset within angular momentum :  2
   <chi|chi>                      :    0.6786160740
   Basis function not normalized: 
   Center (as ordered in MOL file):   1
   Angular Momentum type          : d
   Offset within angular momentum :  1
   <chi|chi>                      :    1.7086321078
   Basis function not normalized: 
   Center (as ordered in MOL file):   1
   Angular Momentum type          : d
   Offset within angular momentum :  2
   <chi|chi>                      :    2.3233749865
   Basis function not normalized: 
   Center (as ordered in MOL file):   1
   Angular Momentum type          : d
   Offset within angular momentum :  3
   <chi|chi>                      :    4.3004638696
  Atomic type number  2 :
  -----------------------

    Nuclear charge:                        9
    number of symmetry independent atoms:  1
    highest orbital type:                  f

      1 groups of CGTOs of s type
      1 groups of CGTOs of p type
      1 groups of CGTOs of d type
      1 groups of CGTOs of f type

    nuclear coordinates (in a.u.) are :

    F #2        3.318359073973940        0.000000000000000        0.000000000000000
  
   Basis function not normalized: 
   Center (as ordered in MOL file):   2
   Angular Momentum type          : s
   Offset within angular momentum :  1
   <chi|chi>                      :    2.6077954182
   Basis function not normalized: 
   Center (as ordered in MOL file):   2
   Angular Momentum type          : s
   Offset within angular momentum :  2
   <chi|chi>                      :    1.6055721547
   Basis function not normalized: 
   Center (as ordered in MOL file):   2
   Angular Momentum type          : p
   Offset within angular momentum :  1
   <chi|chi>                      :    1.9347023376
   Basis function not normalized: 
   Center (as ordered in MOL file):   2
   Angular Momentum type          : p
   Offset within angular momentum :  2
   <chi|chi>                      :    2.2622949315
   Basis function not normalized: 
   Center (as ordered in MOL file):   2
   Angular Momentum type          : p
   Offset within angular momentum :  3
   <chi|chi>                      :    4.1118631160
  Atomic type number  3 :
  -----------------------

    Nuclear charge:                        9
    number of symmetry independent atoms:  1
    highest orbital type:                  f

      1 groups of CGTOs of s type
      1 groups of CGTOs of p type
      1 groups of CGTOs of d type
      1 groups of CGTOs of f type

    nuclear coordinates (in a.u.) are :

    F #3       -1.106119690596063       -1.564289469820450       -2.709428839474002
  
   Basis function not normalized: 
   Center (as ordered in MOL file):   3
   Angular Momentum type          : s
   Offset within angular momentum :  1
   <chi|chi>                      :    2.6077954182
   Basis function not normalized: 
   Center (as ordered in MOL file):   3
   Angular Momentum type          : s
   Offset within angular momentum :  2
   <chi|chi>                      :    1.6055721547
   Basis function not normalized: 
   Center (as ordered in MOL file):   3
   Angular Momentum type          : p
   Offset within angular momentum :  1
   <chi|chi>                      :    1.9347023376
   Basis function not normalized: 
   Center (as ordered in MOL file):   3
   Angular Momentum type          : p
   Offset within angular momentum :  2
   <chi|chi>                      :    2.2622949315
   Basis function not normalized: 
   Center (as ordered in MOL file):   3
   Angular Momentum type          : p
   Offset within angular momentum :  3
   <chi|chi>                      :    4.1118631160
  Atomic type number  4 :
  -----------------------

    Nuclear charge:                        9
    number of symmetry independent atoms:  1
    highest orbital type:                  f

      1 groups of CGTOs of s type
      1 groups of CGTOs of p type
      1 groups of CGTOs of d type
      1 groups of CGTOs of f type

    nuclear coordinates (in a.u.) are :

    F #4       -1.106119690596063        3.128578939640900        0.000000000000002
  
   Basis function not normalized: 
   Center (as ordered in MOL file):   4
   Angular Momentum type          : s
   Offset within angular momentum :  1
   <chi|chi>                      :    2.6077954182
   Basis function not normalized: 
   Center (as ordered in MOL file):   4
   Angular Momentum type          : s
   Offset within angular momentum :  2
   <chi|chi>                      :    1.6055721547
   Basis function not normalized: 
   Center (as ordered in MOL file):   4
   Angular Momentum type          : p
   Offset within angular momentum :  1
   <chi|chi>                      :    1.9347023376
   Basis function not normalized: 
   Center (as ordered in MOL file):   4
   Angular Momentum type          : p
   Offset within angular momentum :  2
   <chi|chi>                      :    2.2622949315
   Basis function not normalized: 
   Center (as ordered in MOL file):   4
   Angular Momentum type          : p
   Offset within angular momentum :  3
   <chi|chi>                      :    4.1118631160
   Internuclear distances (A) :

     for atom TI#1 (coordinates :  -0.00000   0.00000   0.00000)

     F #2   1     distance is  1.756
     F #3   1     distance is  1.756
     F #4   1     distance is  1.756

     for atom F #2 (coordinates :   3.31836   0.00000   0.00000)

     F #3   1     distance is  2.868
     F #4   1     distance is  2.868

     for atom F #3 (coordinates :  -1.10612  -1.56429  -2.70943)

     F #3   2     distance is  2.868
     F #4   1     distance is  2.868

     for atom F #4 (coordinates :  -1.10612   3.12858   0.00000)


   Group multiplication table :

         1   2
         2   1

   Gaussian basis information :

   atom                 exponent      coefficients

 TI#1  1    S   
+                 1  211575.690250   0.0002332   0.0000000   0.0000000   0.0000000   0.0000000   0.0000000
                  2   31714.945058   0.0018080   0.0000000   0.0000000   0.0000000   0.0000000   0.0000000
                  3    7217.547654   0.0093984   0.0000000   0.0000000   0.0000000   0.0000000   0.0000000
                  4    2042.939425   0.0381569   0.0000000   0.0000000   0.0000000   0.0000000   0.0000000
                  5     665.128962   0.1237476   0.0000000   0.0000000   0.0000000   0.0000000   0.0000000
                  6     238.749423   0.2920855   0.0000000   0.0000000   0.0000000   0.0000000   0.0000000
                  7      92.508691   0.4122680   0.0000000   0.0000000   0.0000000   0.0000000   0.0000000
                  8      36.403919   0.2109053   0.0000000   0.0000000   0.0000000   0.0000000   0.0000000
                  9     232.726246   0.0000000  -0.0249201   0.0000000   0.0000000   0.0000000   0.0000000
                 10      71.791210   0.0000000  -0.1174649   0.0000000   0.0000000   0.0000000   0.0000000
                 11      11.158535   0.0000000   0.5650334   0.0000000   0.0000000   0.0000000   0.0000000
                 12       4.654814   0.0000000   0.5621110   0.0000000   0.0000000   0.0000000   0.0000000
                 13       6.803463   0.0000000   0.0000000  -0.2301143   0.0000000   0.0000000   0.0000000
                 14       1.120108   0.0000000   0.0000000   0.7210319   0.0000000   0.0000000   0.0000000
                 15       0.480801   0.0000000   0.0000000   0.0000000   1.0000000   0.0000000   0.0000000
                 16       0.085157   0.0000000   0.0000000   0.0000000   0.0000000   1.0000000   0.0000000
                 17       0.032657   0.0000000   0.0000000   0.0000000   0.0000000   0.0000000   1.0000000

 TI#1  1    X   
+                18    1063.147473   0.0024691   0.0000000   0.0000000   0.0000000   0.0000000
                 19     251.565071   0.0197733   0.0000000   0.0000000   0.0000000   0.0000000
                 20      80.408555   0.0909880   0.0000000   0.0000000   0.0000000   0.0000000
                 21      29.768193   0.2555990   0.0000000   0.0000000   0.0000000   0.0000000
                 22      11.736831   0.4048939   0.0000000   0.0000000   0.0000000   0.0000000
                 23       4.714238   0.2369340   0.0000000   0.0000000   0.0000000   0.0000000
                 24      17.796804   0.0000000  -0.0278786   0.0000000   0.0000000   0.0000000
                 25       2.427270   0.0000000   0.5567291   0.0000000   0.0000000   0.0000000
                 26       0.968234   0.0000000   1.0055447   0.0000000   0.0000000   0.0000000
                 27       0.370567   0.0000000   0.0000000   1.0000000   0.0000000   0.0000000
                 28       0.141800   0.0000000   0.0000000   0.0000000   1.0000000   0.0000000
                 29       0.054270   0.0000000   0.0000000   0.0000000   0.0000000   1.0000000

 TI#1  1    Y   
+                30    1063.147473   0.0024691   0.0000000   0.0000000   0.0000000   0.0000000
                 31     251.565071   0.0197733   0.0000000   0.0000000   0.0000000   0.0000000
                 32      80.408555   0.0909880   0.0000000   0.0000000   0.0000000   0.0000000
                 33      29.768193   0.2555990   0.0000000   0.0000000   0.0000000   0.0000000
                 34      11.736831   0.4048939   0.0000000   0.0000000   0.0000000   0.0000000
                 35       4.714238   0.2369340   0.0000000   0.0000000   0.0000000   0.0000000
                 36      17.796804   0.0000000  -0.0278786   0.0000000   0.0000000   0.0000000
                 37       2.427270   0.0000000   0.5567291   0.0000000   0.0000000   0.0000000
                 38       0.968234   0.0000000   1.0055447   0.0000000   0.0000000   0.0000000
                 39       0.370567   0.0000000   0.0000000   1.0000000   0.0000000   0.0000000
                 40       0.141800   0.0000000   0.0000000   0.0000000   1.0000000   0.0000000
                 41       0.054270   0.0000000   0.0000000   0.0000000   0.0000000   1.0000000

 TI#1  1    Z   
+                42    1063.147473   0.0024691   0.0000000   0.0000000   0.0000000   0.0000000
                 43     251.565071   0.0197733   0.0000000   0.0000000   0.0000000   0.0000000
                 44      80.408555   0.0909880   0.0000000   0.0000000   0.0000000   0.0000000
                 45      29.768193   0.2555990   0.0000000   0.0000000   0.0000000   0.0000000
                 46      11.736831   0.4048939   0.0000000   0.0000000   0.0000000   0.0000000
                 47       4.714238   0.2369340   0.0000000   0.0000000   0.0000000   0.0000000
                 48      17.796804   0.0000000  -0.0278786   0.0000000   0.0000000   0.0000000
                 49       2.427270   0.0000000   0.5567291   0.0000000   0.0000000   0.0000000
                 50       0.968234   0.0000000   1.0055447   0.0000000   0.0000000   0.0000000
                 51       0.370567   0.0000000   0.0000000   1.0000000   0.0000000   0.0000000
                 52       0.141800   0.0000000   0.0000000   0.0000000   1.0000000   0.0000000
                 53       0.054270   0.0000000   0.0000000   0.0000000   0.0000000   1.0000000

 TI#1  1    XX  
+                54      37.713385   0.0115138   0.0000000   0.0000000   0.0000000
                 55      10.692931   0.0672463   0.0000000   0.0000000   0.0000000
                 56       3.672845   0.2148421   0.0000000   0.0000000   0.0000000
                 57       1.358859   0.3889089   0.0000000   0.0000000   0.0000000
                 58       0.492133   0.0000000   0.4304084   0.0000000   0.0000000
                 59       0.163305   0.0000000   0.0000000   0.2325331   0.0000000
                 60       0.054000   0.0000000   0.0000000   0.0000000   1.0000000

 TI#1  1    XY  
+                61      37.713385   0.0115138   0.0000000   0.0000000   0.0000000
                 62      10.692931   0.0672463   0.0000000   0.0000000   0.0000000
                 63       3.672845   0.2148421   0.0000000   0.0000000   0.0000000
                 64       1.358859   0.3889089   0.0000000   0.0000000   0.0000000
                 65       0.492133   0.0000000   0.4304084   0.0000000   0.0000000
                 66       0.163305   0.0000000   0.0000000   0.2325331   0.0000000
                 67       0.054000   0.0000000   0.0000000   0.0000000   1.0000000

 TI#1  1    XZ  
+                68      37.713385   0.0115138   0.0000000   0.0000000   0.0000000
                 69      10.692931   0.0672463   0.0000000   0.0000000   0.0000000
                 70       3.672845   0.2148421   0.0000000   0.0000000   0.0000000
                 71       1.358859   0.3889089   0.0000000   0.0000000   0.0000000
                 72       0.492133   0.0000000   0.4304084   0.0000000   0.0000000
                 73       0.163305   0.0000000   0.0000000   0.2325331   0.0000000
                 74       0.054000   0.0000000   0.0000000   0.0000000   1.0000000

 TI#1  1    YY  
+                75      37.713385   0.0115138   0.0000000   0.0000000   0.0000000
                 76      10.692931   0.0672463   0.0000000   0.0000000   0.0000000
                 77       3.672845   0.2148421   0.0000000   0.0000000   0.0000000
                 78       1.358859   0.3889089   0.0000000   0.0000000   0.0000000
                 79       0.492133   0.0000000   0.4304084   0.0000000   0.0000000
                 80       0.163305   0.0000000   0.0000000   0.2325331   0.0000000
                 81       0.054000   0.0000000   0.0000000   0.0000000   1.0000000

 TI#1  1    YZ  
+                82      37.713385   0.0115138   0.0000000   0.0000000   0.0000000
                 83      10.692931   0.0672463   0.0000000   0.0000000   0.0000000
                 84       3.672845   0.2148421   0.0000000   0.0000000   0.0000000
                 85       1.358859   0.3889089   0.0000000   0.0000000   0.0000000
                 86       0.492133   0.0000000   0.4304084   0.0000000   0.0000000
                 87       0.163305   0.0000000   0.0000000   0.2325331   0.0000000
                 88       0.054000   0.0000000   0.0000000   0.0000000   1.0000000

 TI#1  1    ZZ  
+                89      37.713385   0.0115138   0.0000000   0.0000000   0.0000000
                 90      10.692931   0.0672463   0.0000000   0.0000000   0.0000000
                 91       3.672845   0.2148421   0.0000000   0.0000000   0.0000000
                 92       1.358859   0.3889089   0.0000000   0.0000000   0.0000000
                 93       0.492133   0.0000000   0.4304084   0.0000000   0.0000000
                 94       0.163305   0.0000000   0.0000000   0.2325331   0.0000000
                 95       0.054000   0.0000000   0.0000000   0.0000000   1.0000000

 TI#1  1    F300
+                96       0.253900   1.0000000   0.0000000
                 97       1.075000   0.0000000   1.0000000

 TI#1  1    F210
+                98       0.253900   1.0000000   0.0000000
                 99       1.075000   0.0000000   1.0000000

 TI#1  1    F201
+               100       0.253900   1.0000000   0.0000000
                101       1.075000   0.0000000   1.0000000

 TI#1  1    F120
+               102       0.253900   1.0000000   0.0000000
                103       1.075000   0.0000000   1.0000000

 TI#1  1    F111
+               104       0.253900   1.0000000   0.0000000
                105       1.075000   0.0000000   1.0000000

 TI#1  1    F102
+               106       0.253900   1.0000000   0.0000000
                107       1.075000   0.0000000   1.0000000

 TI#1  1    F030
+               108       0.253900   1.0000000   0.0000000
                109       1.075000   0.0000000   1.0000000

 TI#1  1    F021
+               110       0.253900   1.0000000   0.0000000
                111       1.075000   0.0000000   1.0000000

 TI#1  1    F012
+               112       0.253900   1.0000000   0.0000000
                113       1.075000   0.0000000   1.0000000

 TI#1  1    F003
+               114       0.253900   1.0000000   0.0000000
                115       1.075000   0.0000000   1.0000000

 TI#1  1    G400
+               116       0.634000   1.0000000

 TI#1  1    G310
+               117       0.634000   1.0000000

 TI#1  1    G301
+               118       0.634000   1.0000000

 TI#1  1    G220
+               119       0.634000   1.0000000

 TI#1  1    G211
+               120       0.634000   1.0000000

 TI#1  1    G202
+               121       0.634000   1.0000000

 TI#1  1    G130
+               122       0.634000   1.0000000

 TI#1  1    G121
+               123       0.634000   1.0000000

 TI#1  1    G112
+               124       0.634000   1.0000000

 TI#1  1    G103
+               125       0.634000   1.0000000

 TI#1  1    G040
+               126       0.634000   1.0000000

 TI#1  1    G031
+               127       0.634000   1.0000000

 TI#1  1    G022
+               128       0.634000   1.0000000

 TI#1  1    G013
+               129       0.634000   1.0000000

 TI#1  1    G004
+               130       0.634000   1.0000000

 F #2  1    S   
+               131   35479.100441   0.0002155   0.0000000   0.0000000   0.0000000   0.0000000
                132    5318.472898   0.0016701   0.0000000   0.0000000   0.0000000   0.0000000
                133    1210.481098   0.0086733   0.0000000   0.0000000   0.0000000   0.0000000
                134     342.855181   0.0350499   0.0000000   0.0000000   0.0000000   0.0000000
                135     112.019432   0.1116532   0.0000000   0.0000000   0.0000000   0.0000000
                136      40.714740   0.2598851   0.0000000   0.0000000   0.0000000   0.0000000
                137      16.039678   0.0000000   0.3942297   0.0000000   0.0000000   0.0000000
                138       6.503819   0.0000000   0.2499824   0.0000000   0.0000000   0.0000000
                139       1.544048   0.0000000   0.0000000   1.0000000   0.0000000   0.0000000
                140       0.612235   0.0000000   0.0000000   0.0000000   1.0000000   0.0000000
                141       0.240280   0.0000000   0.0000000   0.0000000   0.0000000   1.0000000

 F #2  1    X   
+               142      80.233900   0.0063686   0.0000000   0.0000000
                143      18.594011   0.0443031   0.0000000   0.0000000
                144       5.686790   0.1686725   0.0000000   0.0000000
                145       1.951101   0.3616635   0.0000000   0.0000000
                146       0.669702   0.0000000   0.4420290   0.0000000
                147       0.216513   0.0000000   0.0000000   0.2431988

 F #2  1    Y   
+               148      80.233900   0.0063686   0.0000000   0.0000000
                149      18.594011   0.0443031   0.0000000   0.0000000
                150       5.686790   0.1686725   0.0000000   0.0000000
                151       1.951101   0.3616635   0.0000000   0.0000000
                152       0.669702   0.0000000   0.4420290   0.0000000
                153       0.216513   0.0000000   0.0000000   0.2431988

 F #2  1    Z   
+               154      80.233900   0.0063686   0.0000000   0.0000000
                155      18.594011   0.0443031   0.0000000   0.0000000
                156       5.686790   0.1686725   0.0000000   0.0000000
                157       1.951101   0.3616635   0.0000000   0.0000000
                158       0.669702   0.0000000   0.4420290   0.0000000
                159       0.216513   0.0000000   0.0000000   0.2431988

 F #2  1    XX  
+               160       3.107000   1.0000000   0.0000000
                161       0.855000   0.0000000   1.0000000

 F #2  1    XY  
+               162       3.107000   1.0000000   0.0000000
                163       0.855000   0.0000000   1.0000000

 F #2  1    XZ  
+               164       3.107000   1.0000000   0.0000000
                165       0.855000   0.0000000   1.0000000

 F #2  1    YY  
+               166       3.107000   1.0000000   0.0000000
                167       0.855000   0.0000000   1.0000000

 F #2  1    YZ  
+               168       3.107000   1.0000000   0.0000000
                169       0.855000   0.0000000   1.0000000

 F #2  1    ZZ  
+               170       3.107000   1.0000000   0.0000000
                171       0.855000   0.0000000   1.0000000

 F #2  1    F300
+               172       1.917000   1.0000000

 F #2  1    F210
+               173       1.917000   1.0000000

 F #2  1    F201
+               174       1.917000   1.0000000

 F #2  1    F120
+               175       1.917000   1.0000000

 F #2  1    F111
+               176       1.917000   1.0000000

 F #2  1    F102
+               177       1.917000   1.0000000

 F #2  1    F030
+               178       1.917000   1.0000000

 F #2  1    F021
+               179       1.917000   1.0000000

 F #2  1    F012
+               180       1.917000   1.0000000

 F #2  1    F003
+               181       1.917000   1.0000000

 F #3  1    S   
+               182   35479.100441   0.0002155   0.0000000   0.0000000   0.0000000   0.0000000
                183    5318.472898   0.0016701   0.0000000   0.0000000   0.0000000   0.0000000
                184    1210.481098   0.0086733   0.0000000   0.0000000   0.0000000   0.0000000
                185     342.855181   0.0350499   0.0000000   0.0000000   0.0000000   0.0000000
                186     112.019432   0.1116532   0.0000000   0.0000000   0.0000000   0.0000000
                187      40.714740   0.2598851   0.0000000   0.0000000   0.0000000   0.0000000
                188      16.039678   0.0000000   0.3942297   0.0000000   0.0000000   0.0000000
                189       6.503819   0.0000000   0.2499824   0.0000000   0.0000000   0.0000000
                190       1.544048   0.0000000   0.0000000   1.0000000   0.0000000   0.0000000
                191       0.612235   0.0000000   0.0000000   0.0000000   1.0000000   0.0000000
                192       0.240280   0.0000000   0.0000000   0.0000000   0.0000000   1.0000000

 F #3  2    S   
+               193   35479.100441   0.0002155   0.0000000   0.0000000   0.0000000   0.0000000
                194    5318.472898   0.0016701   0.0000000   0.0000000   0.0000000   0.0000000
                195    1210.481098   0.0086733   0.0000000   0.0000000   0.0000000   0.0000000
                196     342.855181   0.0350499   0.0000000   0.0000000   0.0000000   0.0000000
                197     112.019432   0.1116532   0.0000000   0.0000000   0.0000000   0.0000000
                198      40.714740   0.2598851   0.0000000   0.0000000   0.0000000   0.0000000
                199      16.039678   0.0000000   0.3942297   0.0000000   0.0000000   0.0000000
                200       6.503819   0.0000000   0.2499824   0.0000000   0.0000000   0.0000000
                201       1.544048   0.0000000   0.0000000   1.0000000   0.0000000   0.0000000
                202       0.612235   0.0000000   0.0000000   0.0000000   1.0000000   0.0000000
                203       0.240280   0.0000000   0.0000000   0.0000000   0.0000000   1.0000000

 F #3  1    X   
+               204      80.233900   0.0063686   0.0000000   0.0000000
                205      18.594011   0.0443031   0.0000000   0.0000000
                206       5.686790   0.1686725   0.0000000   0.0000000
                207       1.951101   0.3616635   0.0000000   0.0000000
                208       0.669702   0.0000000   0.4420290   0.0000000
                209       0.216513   0.0000000   0.0000000   0.2431988

 F #3  2    X   
+               210      80.233900   0.0063686   0.0000000   0.0000000
                211      18.594011   0.0443031   0.0000000   0.0000000
                212       5.686790   0.1686725   0.0000000   0.0000000
                213       1.951101   0.3616635   0.0000000   0.0000000
                214       0.669702   0.0000000   0.4420290   0.0000000
                215       0.216513   0.0000000   0.0000000   0.2431988

 F #3  1    Y   
+               216      80.233900   0.0063686   0.0000000   0.0000000
                217      18.594011   0.0443031   0.0000000   0.0000000
                218       5.686790   0.1686725   0.0000000   0.0000000
                219       1.951101   0.3616635   0.0000000   0.0000000
                220       0.669702   0.0000000   0.4420290   0.0000000
                221       0.216513   0.0000000   0.0000000   0.2431988

 F #3  2    Y   
+               222      80.233900   0.0063686   0.0000000   0.0000000
                223      18.594011   0.0443031   0.0000000   0.0000000
                224       5.686790   0.1686725   0.0000000   0.0000000
                225       1.951101   0.3616635   0.0000000   0.0000000
                226       0.669702   0.0000000   0.4420290   0.0000000
                227       0.216513   0.0000000   0.0000000   0.2431988

 F #3  1    Z   
+               228      80.233900   0.0063686   0.0000000   0.0000000
                229      18.594011   0.0443031   0.0000000   0.0000000
                230       5.686790   0.1686725   0.0000000   0.0000000
                231       1.951101   0.3616635   0.0000000   0.0000000
                232       0.669702   0.0000000   0.4420290   0.0000000
                233       0.216513   0.0000000   0.0000000   0.2431988

 F #3  2    Z   
+               234      80.233900   0.0063686   0.0000000   0.0000000
                235      18.594011   0.0443031   0.0000000   0.0000000
                236       5.686790   0.1686725   0.0000000   0.0000000
                237       1.951101   0.3616635   0.0000000   0.0000000
                238       0.669702   0.0000000   0.4420290   0.0000000
                239       0.216513   0.0000000   0.0000000   0.2431988

 F #3  1    XX  
+               240       3.107000   1.0000000   0.0000000
                241       0.855000   0.0000000   1.0000000

 F #3  2    XX  
+               242       3.107000   1.0000000   0.0000000
                243       0.855000   0.0000000   1.0000000

 F #3  1    XY  
+               244       3.107000   1.0000000   0.0000000
                245       0.855000   0.0000000   1.0000000

 F #3  2    XY  
+               246       3.107000   1.0000000   0.0000000
                247       0.855000   0.0000000   1.0000000

 F #3  1    XZ  
+               248       3.107000   1.0000000   0.0000000
                249       0.855000   0.0000000   1.0000000

 F #3  2    XZ  
+               250       3.107000   1.0000000   0.0000000
                251       0.855000   0.0000000   1.0000000

 F #3  1    YY  
+               252       3.107000   1.0000000   0.0000000
                253       0.855000   0.0000000   1.0000000

 F #3  2    YY  
+               254       3.107000   1.0000000   0.0000000
                255       0.855000   0.0000000   1.0000000

 F #3  1    YZ  
+               256       3.107000   1.0000000   0.0000000
                257       0.855000   0.0000000   1.0000000

 F #3  2    YZ  
+               258       3.107000   1.0000000   0.0000000
                259       0.855000   0.0000000   1.0000000

 F #3  1    ZZ  
+               260       3.107000   1.0000000   0.0000000
                261       0.855000   0.0000000   1.0000000

 F #3  2    ZZ  
+               262       3.107000   1.0000000   0.0000000
                263       0.855000   0.0000000   1.0000000

 F #3  1    F300
+               264       1.917000   1.0000000

 F #3  2    F300
+               265       1.917000   1.0000000

 F #3  1    F210
+               266       1.917000   1.0000000

 F #3  2    F210
+               267       1.917000   1.0000000

 F #3  1    F201
+               268       1.917000   1.0000000

 F #3  2    F201
+               269       1.917000   1.0000000

 F #3  1    F120
+               270       1.917000   1.0000000

 F #3  2    F120
+               271       1.917000   1.0000000

 F #3  1    F111
+               272       1.917000   1.0000000

 F #3  2    F111
+               273       1.917000   1.0000000

 F #3  1    F102
+               274       1.917000   1.0000000

 F #3  2    F102
+               275       1.917000   1.0000000

 F #3  1    F030
+               276       1.917000   1.0000000

 F #3  2    F030
+               277       1.917000   1.0000000

 F #3  1    F021
+               278       1.917000   1.0000000

 F #3  2    F021
+               279       1.917000   1.0000000

 F #3  1    F012
+               280       1.917000   1.0000000

 F #3  2    F012
+               281       1.917000   1.0000000

 F #3  1    F003
+               282       1.917000   1.0000000

 F #3  2    F003
+               283       1.917000   1.0000000

 F #4  1    S   
+               284   35479.100441   0.0002155   0.0000000   0.0000000   0.0000000   0.0000000
                285    5318.472898   0.0016701   0.0000000   0.0000000   0.0000000   0.0000000
                286    1210.481098   0.0086733   0.0000000   0.0000000   0.0000000   0.0000000
                287     342.855181   0.0350499   0.0000000   0.0000000   0.0000000   0.0000000
                288     112.019432   0.1116532   0.0000000   0.0000000   0.0000000   0.0000000
                289      40.714740   0.2598851   0.0000000   0.0000000   0.0000000   0.0000000
                290      16.039678   0.0000000   0.3942297   0.0000000   0.0000000   0.0000000
                291       6.503819   0.0000000   0.2499824   0.0000000   0.0000000   0.0000000
                292       1.544048   0.0000000   0.0000000   1.0000000   0.0000000   0.0000000
                293       0.612235   0.0000000   0.0000000   0.0000000   1.0000000   0.0000000
                294       0.240280   0.0000000   0.0000000   0.0000000   0.0000000   1.0000000

 F #4  1    X   
+               295      80.233900   0.0063686   0.0000000   0.0000000
                296      18.594011   0.0443031   0.0000000   0.0000000
                297       5.686790   0.1686725   0.0000000   0.0000000
                298       1.951101   0.3616635   0.0000000   0.0000000
                299       0.669702   0.0000000   0.4420290   0.0000000
                300       0.216513   0.0000000   0.0000000   0.2431988

 F #4  1    Y   
+               301      80.233900   0.0063686   0.0000000   0.0000000
                302      18.594011   0.0443031   0.0000000   0.0000000
                303       5.686790   0.1686725   0.0000000   0.0000000
                304       1.951101   0.3616635   0.0000000   0.0000000
                305       0.669702   0.0000000   0.4420290   0.0000000
                306       0.216513   0.0000000   0.0000000   0.2431988

 F #4  1    Z   
+               307      80.233900   0.0063686   0.0000000   0.0000000
                308      18.594011   0.0443031   0.0000000   0.0000000
                309       5.686790   0.1686725   0.0000000   0.0000000
                310       1.951101   0.3616635   0.0000000   0.0000000
                311       0.669702   0.0000000   0.4420290   0.0000000
[...]
[ 16   9 116  21] 0.01670 [  9  16  21 116] 0.01670 [ 17   7 115  24]-0.01670
-----------------------------------------------------------------------------
   Norm of T2AB vector (  5071338 symmetry allowed elements):  0.4751679072.
-----------------------------------------------------------------------------
  W(mnij) AB contribution =  0.1849777338 a.u.
  W(abef) AB contribution =  0.2014916819 a.u.
  W(mbej) AB contribution = -0.4698278782 a.u.
   After  16 iterations, amplitude changes are:
    -------------------------------------------------------------------
                 Spin      RMS          Max.      Max. change for
     Amplitude   Case     Change       Change       i    j    a    b
    -------------------------------------------------------------------
        T1        AA    0.0000000001-0.0000000746   17       115
        T2        AA    0.0000000000 0.0000000061   16    9  116   21
        T2        AB    0.0000000000-0.0000000151   17   17  115  115
    -------------------------------------------------------------------
   The AA contribution to the correlation energy is:   -0.1780498 a.u.
   The AB contribution to the correlation energy is:   -1.0634222 a.u.
   The total correlation energy is -1.419521914530 a.u.
   The total correlation energy is -1.419521914530 a.u.
  Current DIIS expansion coefficients : 
 [   1] 0.9681494005 [   2] 0.0125796700 [   3]-0.0326146279 [   4]-0.1202751092
 [   5] 0.1721606666
  Convergence information after    16 iterations: 
  Largest element of residual vector : -0.74645854E-07.
  Largest element of DIIS residual   : -0.51303367E-07.
  W(mnij) AB contribution =  0.1849777148 a.u.
  W(abef) AB contribution =  0.2014916685 a.u.
  W(mbej) AB contribution = -0.4698278090 a.u.
   After  17 iterations, amplitude changes are:
    -------------------------------------------------------------------
                 Spin      RMS          Max.      Max. change for
     Amplitude   Case     Change       Change       i    j    a    b
    -------------------------------------------------------------------
        T1        AA    0.0000000001-0.0000000352   11        24
        T2        AA    0.0000000000-0.0000000061   16    9  116   21
        T2        AB    0.0000000000 0.0000000145    9    9   21   21
    -------------------------------------------------------------------
   The AA contribution to the correlation energy is:   -0.1780498 a.u.
   The AB contribution to the correlation energy is:   -1.0634222 a.u.
   The total correlation energy is -1.419521886652 a.u.
   The total correlation energy is -1.419521886652 a.u.
  Current DIIS expansion coefficients : 
 [   1] 0.0526699852 [   2] 1.0285344805 [   3] 0.0039291733 [   4] 0.0079171414
 [   5]-0.0930507803
  Convergence information after    17 iterations: 
  Largest element of residual vector : -0.35226381E-07.
  Largest element of DIIS residual   : -0.23325712E-07.
  W(mnij) AB contribution =  0.1849777023 a.u.
  W(abef) AB contribution =  0.2014916576 a.u.
  W(mbej) AB contribution = -0.4698277870 a.u.
   After  18 iterations, amplitude changes are:
    -------------------------------------------------------------------
                 Spin      RMS          Max.      Max. change for
     Amplitude   Case     Change       Change       i    j    a    b
    -------------------------------------------------------------------
        T1        AA    0.0000000000-0.0000000280   17       115
        T2        AA    0.0000000000 0.0000000043   16    9  116   21
        T2        AB    0.0000000000-0.0000000051    9    9   21   21
    -------------------------------------------------------------------
   The AA contribution to the correlation energy is:   -0.1780499 a.u.
   The AB contribution to the correlation energy is:   -1.0634222 a.u.
   The total correlation energy is -1.419521906475 a.u.
   The total correlation energy is -1.419521906475 a.u.
  Current DIIS expansion coefficients : 
 [   1]-0.2041799367 [   2] 0.4451413435 [   3] 0.8121619269 [   4] 0.0171401227
 [   5]-0.0702634564
  Convergence information after    18 iterations: 
  Largest element of residual vector : -0.28020561E-07.
  Largest element of DIIS residual   : -0.10576104E-07.
  W(mnij) AB contribution =  0.1849777031 a.u.
  W(abef) AB contribution =  0.2014916595 a.u.
  W(mbej) AB contribution = -0.4698277829 a.u.
   After  19 iterations, amplitude changes are:
    -------------------------------------------------------------------
                 Spin      RMS          Max.      Max. change for
     Amplitude   Case     Change       Change       i    j    a    b
    -------------------------------------------------------------------
        T1        AA    0.0000000000-0.0000000093   10        22
        T2        AA    0.0000000000-0.0000000018   18   13  115   21
        T2        AB    0.0000000000 0.0000000013    8    8   23   23
    -------------------------------------------------------------------
   The AA contribution to the correlation energy is:   -0.1780499 a.u.
   The AB contribution to the correlation energy is:   -1.0634222 a.u.
   The total correlation energy is -1.419521894083 a.u.
   The total correlation energy is -1.419521894083 a.u.
  Current DIIS expansion coefficients : 
 [   1]-0.0414129010 [   2]-0.1228335891 [   3] 0.0432931718 [   4] 1.1053244007
 [   5] 0.0156289176
  Convergence information after    19 iterations: 
  Largest element of residual vector : -0.93326927E-08.
  Largest element of DIIS residual   : -0.10392966E-07.
  W(mnij) AB contribution =  0.1849777020 a.u.
  W(abef) AB contribution =  0.2014916588 a.u.
  W(mbej) AB contribution = -0.4698277822 a.u.
   After  20 iterations, amplitude changes are:
    -------------------------------------------------------------------
                 Spin      RMS          Max.      Max. change for
     Amplitude   Case     Change       Change       i    j    a    b
    -------------------------------------------------------------------
        T1        AA    0.0000000000-0.0000000032   10        22
        T2        AA    0.0000000000 0.0000000007   18   13  115   21
        T2        AB    0.0000000000-0.0000000007   13   13  115  115
    -------------------------------------------------------------------
   The AA contribution to the correlation energy is:   -0.1780499 a.u.
   The AB contribution to the correlation energy is:   -1.0634222 a.u.
   The total correlation energy is -1.419521896461 a.u.
   The total correlation energy is -1.419521896461 a.u.
  Current DIIS expansion coefficients : 
 [   1] 0.0042300078 [   2]-0.0368446637 [   3]-0.0682690268 [   4] 0.1162443135
 [   5] 0.9846393692
  Convergence information after    20 iterations: 
  Largest element of residual vector : -0.32215881E-08.
  Largest element of DIIS residual   : -0.40094924E-08.
   Largest T1 amplitudes for spin case AA:
   i       a                 i       a                 i       a    
-----------------------------------------------------------------------------
[ 17     115    ] 0.07005 [  9      21    ] 0.07005 [ 16     116    ]-0.05638
[  7      24    ] 0.05638 [  8      23    ]-0.05638 [ 18     116    ] 0.01764
[ 12      23    ] 0.01764 [ 11      24    ]-0.01764 [ 10      30    ] 0.01360
[ 16     119    ]-0.01173 [  8      29    ]-0.01173 [  7      28    ]-0.01173
[ 17     118    ]-0.00982 [  9      27    ]-0.00982 [ 18     117    ] 0.00839
-----------------------------------------------------------------------------
   Norm of T1AA vector (     1677 symmetry allowed elements):  0.1518973297.
-----------------------------------------------------------------------------
   Largest T2 amplitudes for spin case AB:
       _       _                 _       _                 _       _
   i   j   a   b             i   j   a   b             i   j   a   b
-----------------------------------------------------------------------------
[  2   2  21  21]-0.02549 [ 14  14 115 115]-0.02547 [  3   3  23  23]-0.02492
[  8   8  23  23]-0.02490 [  7   7  24  24]-0.02416 [ 16  16 116 116]-0.02416
[ 17  17 115 115]-0.01998 [  9   9  21  21]-0.01998 [ 14  14 116 116]-0.01961
[  2   2  24  24]-0.01961 [  3   3 115 115]-0.01815 [  3   3  21  21]-0.01812
[ 16   9 116  21] 0.01670 [  9  16  21 116] 0.01670 [ 17   7 115  24]-0.01670
-----------------------------------------------------------------------------
   Norm of T2AB vector (  5071338 symmetry allowed elements):  0.4751678642.
-----------------------------------------------------------------------------
  W(mnij) AB contribution =  0.1849777032 a.u.
  W(abef) AB contribution =  0.2014916596 a.u.
  W(mbej) AB contribution = -0.4698277847 a.u.
   After  21 iterations, amplitude changes are:
    -------------------------------------------------------------------
                 Spin      RMS          Max.      Max. change for
     Amplitude   Case     Change       Change       i    j    a    b
    -------------------------------------------------------------------
        T1        AA    0.0000000000-0.0000000031   10        22
        T2        AA    0.0000000000-0.0000000002   18   13  115   21
        T2        AB    0.0000000000 0.0000000005   13   13  115  115
    -------------------------------------------------------------------
   The AA contribution to the correlation energy is:   -0.1780499 a.u.
   The AB contribution to the correlation energy is:   -1.0634222 a.u.
   The total correlation energy is -1.419521895860 a.u.
   The total correlation energy is -1.419521895860 a.u.
  Current DIIS expansion coefficients : 
 [   1] 1.0007431844 [   2] 0.0119982881 [   3]-0.0157364822 [   4]-0.1535139736
 [   5] 0.1565089833
  Convergence information after    21 iterations: 
  Largest element of residual vector : -0.30775428E-08.
  Largest element of DIIS residual   : -0.19658243E-08.
  W(mnij) AB contribution =  0.1849777034 a.u.
  W(abef) AB contribution =  0.2014916599 a.u.
  W(mbej) AB contribution = -0.4698277857 a.u.
   After  22 iterations, amplitude changes are:
    -------------------------------------------------------------------
                 Spin      RMS          Max.      Max. change for
     Amplitude   Case     Change       Change       i    j    a    b
    -------------------------------------------------------------------
        T1        AA    0.0000000000-0.0000000011   10        22
        T2        AA    0.0000000000 0.0000000000   16   10  116   22
        T2        AB    0.0000000000-0.0000000003    9    9   21   21
    -------------------------------------------------------------------
   The AA contribution to the correlation energy is:   -0.1780499 a.u.
   The AB contribution to the correlation energy is:   -1.0634222 a.u.
   The total correlation energy is -1.419521896164 a.u.
   The total correlation energy is -1.419521896164 a.u.
  Current DIIS expansion coefficients : 
 [   1] 0.1782024631 [   2] 0.9183181096 [   3] 0.0009387405 [   4]-0.0475013019
 [   5]-0.0499580113
  Convergence information after    22 iterations: 
  Largest element of residual vector : -0.10626435E-08.
  Largest element of DIIS residual   : -0.92544893E-09.
  W(mnij) AB contribution =  0.1849777037 a.u.
  W(abef) AB contribution =  0.2014916600 a.u.
  W(mbej) AB contribution = -0.4698277863 a.u.
   After  23 iterations, amplitude changes are:
    -------------------------------------------------------------------
                 Spin      RMS          Max.      Max. change for
     Amplitude   Case     Change       Change       i    j    a    b
    -------------------------------------------------------------------
        T1        AA    0.0000000000-0.0000000004   10        22
        T2        AA    0.0000000000 0.0000000001   17    9  115   21
        T2        AB    0.0000000000 0.0000000001   17   17  115  115
    -------------------------------------------------------------------
   The AA contribution to the correlation energy is:   -0.1780499 a.u.
   The AB contribution to the correlation energy is:   -1.0634222 a.u.
   The total correlation energy is -1.419521896084 a.u.
   The total correlation energy is -1.419521896084 a.u.
  Current DIIS expansion coefficients : 
 [   1]-0.0950023333 [   2] 0.2142295049 [   3] 0.8842796713 [   4] 0.0076072689
 [   5]-0.0111141119
  Convergence information after    23 iterations: 
  Largest element of residual vector : -0.38674119E-09.
  Largest element of DIIS residual   : -0.31245443E-09.
  Amplitude equations converged in    23iterations.
   The AA contribution to the correlation energy is:   -0.1780499 a.u.
   The AB contribution to the correlation energy is:   -1.0634222 a.u.
   The total correlation energy is -1.419521896103 a.u.
   The total correlation energy is -1.419521896103 a.u.
   The CC iterations have converged.

   Largest T1 amplitudes for spin case AA:
   i       a                 i       a                 i       a    
-----------------------------------------------------------------------------
[ 17     115    ] 0.07005 [  9      21    ] 0.07005 [ 16     116    ]-0.05638
[  7      24    ] 0.05638 [  8      23    ]-0.05638 [ 18     116    ] 0.01764
[ 12      23    ] 0.01764 [ 11      24    ]-0.01764 [ 10      30    ] 0.01360
[ 16     119    ]-0.01173 [  8      29    ]-0.01173 [  7      28    ]-0.01173
[ 17     118    ]-0.00982 [  9      27    ]-0.00982 [ 18     117    ] 0.00839
-----------------------------------------------------------------------------
   Norm of T1AA vector (     1677 symmetry allowed elements):  0.1518973304.
-----------------------------------------------------------------------------
   Largest T2 amplitudes for spin case AB:
       _       _                 _       _                 _       _
   i   j   a   b             i   j   a   b             i   j   a   b
-----------------------------------------------------------------------------
[  2   2  21  21]-0.02549 [ 14  14 115 115]-0.02547 [  3   3  23  23]-0.02492
[  8   8  23  23]-0.02490 [  7   7  24  24]-0.02416 [ 16  16 116 116]-0.02416
[ 17  17 115 115]-0.01998 [  9   9  21  21]-0.01998 [ 14  14 116 116]-0.01961
[  2   2  24  24]-0.01961 [  3   3 115 115]-0.01815 [  3   3  21  21]-0.01812
[ 16   9 116  21] 0.01670 [  9  16  21 116] 0.01670 [ 17   7 115  24]-0.01670
-----------------------------------------------------------------------------
   Norm of T2AB vector (  5071338 symmetry allowed elements):  0.4751678649.
-----------------------------------------------------------------------------
       Summary of iterative solution of CC equations 
      -----------------------------------------------------------
                       Correlation           Total
       Iteration         Energy              Energy
      -----------------------------------------------------------
            0        -1.429514289982   -1248.053059272660  DIIS 
            1        -1.359942665272   -1247.983487647950  DIIS 
            2        -1.440378716758   -1248.063923699436  DIIS 
            3        -1.412297226783   -1248.035842209461  DIIS 
            4        -1.416934145768   -1248.040479128446  DIIS 
            5        -1.419350609067   -1248.042895591745  DIIS 
            6        -1.419454627959   -1248.042999610637  DIIS 
            7        -1.419523856145   -1248.043068838823  DIIS 
            8        -1.419546159060   -1248.043091141738  DIIS 
            9        -1.419505495024   -1248.043050477702  DIIS 
           10        -1.419520478251   -1248.043065460929  DIIS 
           11        -1.419518067399   -1248.043063050077  DIIS 
           12        -1.419522056314   -1248.043067038992  DIIS 
           13        -1.419521849609   -1248.043066832287  DIIS 
           14        -1.419521951137   -1248.043066933815  DIIS 
           15        -1.419521900522   -1248.043066883200  DIIS 
           16        -1.419521914530   -1248.043066897208  DIIS 
           17        -1.419521886652   -1248.043066869330  DIIS 
           18        -1.419521906475   -1248.043066889152  DIIS 
           19        -1.419521894083   -1248.043066876761  DIIS 
           20        -1.419521896461   -1248.043066879139  DIIS 
           21        -1.419521895860   -1248.043066878538  DIIS 
           22        -1.419521896164   -1248.043066878842  DIIS 
           23        -1.419521896103   -1248.043066878781  DIIS 
      -----------------------------------------------------------
      A miracle has come to pass. The CC iterations have converged.
 @DIMT3-I, Dimensions of T3 amplitudes : 
               # abc          # ijk       Symmetry    Spin 
                   329564            559     1          1
                   327795            581     2          1
                  1003544           1924     1          2
                   993655           1876     2          2
                  1003544           1924     1          3
                   993655           1876     2          3
                   329564            559     1          4
                   327795            581     2          4
 @DIMT3-I, Dimensions of T3 amplitudes : 
               # abc          # ijk       Symmetry    Spin 
                   329564            559     1          1
                   327795            581     2          1
                  1003544           1924     1          2
                   993655           1876     2          2
                  1003544           1924     1          3
                   993655           1876     2          3
                   329564            559     1          4
                   327795            581     2          4
 @TRPS-I, Welcome to TRPS. Watch your RUs ! 
 @TRPS-I, Method is CCSD(T) 
 @TRPS-I, Calculation type is energy 
 @TRPS-I, Reference function information : 
          Reference function is Hartree-Fock 
          Reference function is RHF Hartree-Fock 
 @TRPS-I, INT1 is true 
 @TRPS-I, INT2 is false 
 @TRPS-I, Lengths of ijka integrals. #1     302796
                                     #2     302796
                                     #3     639132
                                     #4     639132
                                    Max     639132
 @INITRP-I, Initializing W intermediate lists. 
 @SETOOOV-I, Some OOOV lists are being transposed. 
 @TRPS-I, Available memory in integer words   1499959040
          Number of pre-allocated words for TRPS2      1094988
          Number of free words for TRPS2   1498864052
 @TRPS2-I, Spin case AAB 
 @TRPS2-I, Number of free integer words 1498864052
           Number of free double  words 1498864052
           Ratio                                 1
 @TRPS2-I, E4TBAA      -0.034009981808
  @TRPS2-I, E4TAAA  -2.843549764977868E-003
 @TRPS2-I, E5ST A    0.004078793426418
 @TRPS2-I, E5ST B    0.002629062546536
 @SETOOOV-I, Some OOOV lists are being transposed. 
 @CCENRG-I, CCSD/QCISD energy will now be evaluated. 
 @CCENRG-I, Correlation energies. ECCAA       -0.178049852553
                                  ECCBB        0.000000000000
                                  ECCAB       -1.063422190996
                                  Total       -1.419521896103
 @CCENRG-I, Reference   energy   -1246.623544982678
            CCSD/QCISD energy    -1248.043066878781
          E4T (T(CCSD)) = -0.073707063147
          E5ST          =  0.013415711946
          E4ST          =  0.000000000000
          In other words  
          <T3[2](Dagger) D3  T3[2]> = -0.073707063147
          <T1   (Dagger) Q1 WT3[2]> =  0.013415711946
          <T2   (Dagger) Q2 FT3[2]> =  0.000000000000
        E(CCSD)           =   -1248.043066878781
        E(CCSD + T(CCSD)) =   -1248.116773941927
        E(CCSD(T))        =   -1248.103358229981
  @CHECKOUT-I, Total execution time (CPU/WALL):      843.98/     847.48 seconds.
--executable xvcc finished with status     0 in      847.65 seconds (walltime).
  The final electronic energy is     -1248.103358229981268 a.u. 
  This computation required                         1006.41 seconds (walltime).
