 --invoking executable--
/home/nike/cfour_v2.00beta/bin/xjoda


   *************************************************************************
         <<<     CCCCCC     CCCCCC   |||     CCCCCC     CCCCCC   >>>
       <<<      CCC        CCC       |||    CCC        CCC         >>>
      <<<      CCC        CCC        |||   CCC        CCC            >>>
    <<<        CCC        CCC        |||   CCC        CCC              >>>
      <<<      CCC        CCC        |||   CCC        CCC            >>>
       <<<      CCC        CCC       |||    CCC        CCC         >>>
         <<<     CCCCCC     CCCCCC   |||     CCCCCC     CCCCCC   >>>
   *************************************************************************

     ****************************************************************
     * CFOUR Coupled-Cluster techniques for Computational Chemistry *
     ****************************************************************
 

   Department of Chemistry                Institut fuer Physikalische Chemie
   University of Texas at Austin          Universitaet Mainz
   Austin, TX  78712, USA                 D-55099 Mainz, Germany
 
                       Version 2.00beta
 
                     wob106                                            
                     Wed Mar 28 17:27:24 EDT 2018                      
                     integer*8 version is running
 
********************************************************************************
*                          Input from ZMAT file                                *
********************************************************************************
TITLE                                                                           
B                                                                               
                                                                                
*ACES2(CALC=CCSD                                                                
INPUT_MRCC=OFF                                                                  
CC_PROG=MRCC                                                                    
XFORM_TOL=18                                                                    
SAVE_INTS=ON                                                                    
SCF_EXPORDER=6                                                                  
SCF_EXPSTART=5                                                                  
#SCF_DAMPING=1000                                                               
SCF_EXTRAPOLATION=ON                                                            
SCF_CONV=10                                                                     
SCF_MAXCYC=9999                                                                 
CC_CONV=10                                                                      
CC_MAXCYC=999                                                                   
T3_EXTRAPOL=ON                                                                  
REFERENCE=RHF                                                                   
CHARGE=+1                                                                       
MULT=1                                                                          
ABCDTYPE=STANDARD                                                               
OCCUPATION=2-0-0-0-0-0-0-0                                                      
MEM=32                                                                          
MEM_UNIT=GB                                                                     
BASIS=SPECIAL)                                                                  
                                                                                
B:aug-cc-pCVTZ                                                                  
                                                                                
********************************************************************************
  @GTFLGS-W, Keyword #SCF_DAMPING not known and is ignored.
    -------------------------------------------------------------------
                    CFOUR Control Parameters 
    -------------------------------------------------------------------
        External           Internal           Value            Units
          Name               Name
    -------------------------------------------------------------------
       ABCDTYPE             IABCDT         STANDARD     [  0]   ***   
       ANHARMONIC           IANHAR         OFF          [  0]   ***   
       ANH_ALGORIT          IANALG         STANDARD     [  0]   ***   
       ANH_DERIVAT          IANDER         SECOND       [  1]   ***   
       ANH_STEPSIZ          ICUBST             50000          x 10-6  
       ANH_SYMMETR          IANHSM         ABELIAN      [  0]   ***   
       AO_LADDERS           IAOLAD         SINGLEPASS   [  1]   ***   
       BASIS                IBASIS         SPECIAL      [  0]   ***   
       BREIT                IBREIT         OFF          [  0]   ***   
       BRUCK_CONV           IBRTOL          10D-  4             ***   
       BRUECKNER            IBRKNR             OFF      [  0]   ***   
       BUFFERSIZE           IBUFFS            600               ***   
       CACHE_RECS           ICHREC             10               ***   
       CALCLEVEL            ICLLVL           CCSD       [ 10]   ***   
       CCORBOPT             ICCORB             OFF      [  0] x 0.01  
       CC_CONV              ICCCNV          10D- 10             ***   
       CC_EXPORDER          ICCEOR              5               ***   
       CC_EXTRAPOL          ICCEXT             DIIS     [  1]   ***   
       CC_MAXCYC            ICCCYC            999              cycles 
       CC_PROGRAM           ICCPRO         MRCC         [  2]   ***   
       CHARGE               ICHRGE              1               ***   
       CHOLESKY             ICHOLE         OFF          [  0]   ***   
       CIS_CONV             ICISTL              5               ***   
       COMM_SIZE            IPSIZE            ***               ***   
       CONSTANT             ICONST         OLD          [  1]   ***   
       CONTINUUM            ICONTU         NONE         [  0]   ***   
       CONTRACTION          ICNTYP          GENERAL     [  1]   ***   
       COORDINATES          ICOORD         INTERNAL     [  0]   ***   
       CPHF_CONVER          ICPHFT          10D- 16             ***   
       CPHF_MAXCYC          ICPHFC             64              cycles 
       CUBIC                ICUBIC         OFF          [  0]   ***   
       CURVILINEAR          ICURVY            OFF       [  0]   ***   
       DBOC                 IDBOC          OFF          [  0]   ***   
       DCT                  IDCT           OFF          [  0]   ***   
       DERIV_LEV            IDRLVL            ZERO      [  0]   ***   
       DIAG_MRCC            IEOMST          10D-  0             ***   
       DIFF_TYPE            IDIFTY         RELAXED      [  0]   ***   
       DIRECT               IDIRCT         OFF          [  0]   ***   
       DROPMO               IDRPMO      NONE         
       ECP                  IECP           OFF          [  0]   ***   
       EIGENVECTOR          IVEC                1               ***   
       EL_ANHARM            IELANH         OFF          [  0]   ***   
       EOMFOLLOW            IEOMSR         ENERGY       [  0]   ***   
       EOM_MRCC             IMRCCE         NEW          [  1]   ***   
       EOM_NONIT            EOMNON         OFF          [  0]   ***   
       EOM_NSING            IEOMSI          10D-  0             ***   
       EOM_NSTATES          IMRCCD         DAVIDSON     [  0]   ***   
       EOM_NTRIP            IEOMTR          10D-  0             ***   
       EOM_ORDER            IEXORD         ENERGY       [  0]   ***   
       ESTATE_CONV          IEXTOL          10D-  5             ***   
       ESTATE_DIAG          IEXDIG         ITERATIVE    [  0]   ***   
       ESTATE_LOCK          IESLOC         ON           [  1]   ***   
       ESTATE_MAXC          IEXMXC             20               ***   
       ESTATE_PROP          IEXPRP         OFF          [  0]   ***   
       EVAL_HESS            IRECAL              0            # of cyc.
       EXCITATION           IEXCIT              0               ***   
       EXCITE               IEXCIT         NONE         [  0]   ***   
       FCGRADNEW            IFCGNW         OFF          [  0]   ***   
       FC_FIELD             IFINFC              0             x 10-6  
       FD_CALTYPE           IFDCAL         GRADONLY     [  0]   ***   
       FD_PROJECT           IFDPRJ         OFF          [  1]   ***   
       FD_STEPSIZE          IDISFD              0            10-4 bohr
       FD_USEGROUP          IFDGRP         FULL         [  0]   ***   
       FILE_RECSIZ          IFLREC              4096           words  
       FINITE_PERT          IFIPER              0             x 10-6  
       FIXGEOM              IFIXGM         OFF          [  0]   ***   
       FOCK                 IFOCK          AO           [  1]   ***   
       FREQ_ALGORI          IVIALG         STANDARD     [  0]   ***   
       FROZEN_CORE          IFROCO         OFF          [  0]   ***   
       FROZEN_VIRT          IFROVI         OFF          [  0]   ***   
       GAMMA_ABCD           IGABCD         STORE        [  0]   ***   
       GAMMA_ABCI           IGABCI         STORE        [  0]   ***   
       GENBAS_1             IGNBS1              0               ***   
       GENBAS_2             IGNBS2              0               ***   
       GENBAS_3             IGNBS3              0               ***   
       GENBAS_4             IGNBS4              0               ***   
       GEO_CONV             ICONTL              5              H/bohr 
       GEO_MAXCYC           IOPTCY             50               ***   
       GEO_MAXSTEP          IMXSTP            300            millibohr
       GEO_METHOD           INR            SINGLE_POINT [  5]   ***   
       GIAO                 IGIAO          OFF          [  1]   ***   
       GIMIC                IGIMIC         OFF          [  0]   ***   
       GRID                 IGRID          OFF          [  0]   ***   
       GRID_ALGO            IGALGO         SERIAL       [  0]   ***   
       GUESS                IGUESS            MOREAD    [  0]   ***   
       HBAR                 IHBAR              OFF      [  0]   ***   
       HESS_TYPE            IHESTP         SCF          [  0]   ***   
       HF2_FILE             IHF2Fl         USE          [  1]   ***   
       HFSTABILITY          ISTABL         OFF          [  0]   ***   
       INCORE               INCORE             OFF      [  0]   ***   
       INPUT_MRCC           IMRCC          OFF          [  0]   ***   
       INTEGRALS            INTTYP             VMOL     [  1]   ***   
       JODA_PRINT           IJPRNT              0               ***   
       LINDEP_TOL           ILINDP              8               ***   
       LINEQ_CONV           IZTACN          10D-  7           cycles  
       LINEQ_EXPOR          ILMAXD              5               ***   
       LINEQ_MAXCY          ILMAXC             50               ***   
       LINEQ_TYPE           ILTYPE         DIIS         [  1]   ***   
       LOCK_ORBOCC          ILOCOC             OFF      [  0]   ***   
       MEMORY_SIZE          IMEMSZ         *********           words  
       MEM_UNIT             IMEMU          GB           [  3]   ***   
       MRCC                 IMRCCC         OFF          [  0]   ***   
       MULTIPLICTY          IMULTP              1               ***   
       NEGEVAL              IDIE             ABORT      [  0]   ***   
       NEWNORM              INEWNO         OFF          [  0]   ***   
       NON-HF               INONHF             OFF      [  0]   ***   
       NTOP_TAMP            ITOPT2             15               ***   
       NUC_MODEL            INUCMO         POINT        [  0]   ***   
       OCCUPATION           IOCCU    2,  0,  0,  0,  0,  0,  0,  0,
       OPEN-SHELL           IOPEN          SPIN-ORBITAL [  0]   ***   
       ORBITALS             IORBTP           STANDARD   [  0]   ***   
       PARALLEL             IPARAL         ON           [  1]   ***   
       PARA_INT             IPINTS         ON           [  1]   ***   
       PARA_PRINT           IPPRIN              0               ***   
       PERT_ORB             IPTORB         STANDARD     [  0]   ***   
       POINTS               IGRDFD              0               ***   
       PRINT                IPRNT               0               ***   
       PROPS                IPROPS             OFF      [  0]   ***   
       PROP_INTEGR          IINTYP         INTERNAL     [  0]   ***   
       PSI                  IPSI           OFF          [  0]   ***   
       QUARTIC              IQUART         OFF          [  0]   ***   
       RAMAN_INT            IRAMIN         OFF          [  0]   ***   
       RAMAN_ORB            IRAMRE         UNRELAXED    [  0]   ***   
       RDO                  IRDOFM             OFF      [  0]   ***   
       REFERENCE            IREFNC             RHF      [  0]   ***   
       RELATIVIST           IRELAT         OFF          [  0]   ***   
       RELAX_DENS           IRDENS             OFF      [  0]   ***   
       RESET_FLAGS          IRESET             OFF      [  0]   ***   
       RESTART_CC           ICCRES         OFF          [  0]   ***   
       ROT_EVEC             ROTVEC              0               ***   
       SAVE_INTS            ISVINT              ON      [  1]   ***   
       SCALE_ON             ISTCRT              0               ***   
       SCF_CONV             ISCFCV          10D- 10             ***   
       SCF_DAMPING          IDAMP               0             x 10-3  
       SCF_EXPORDE          IRPPOR              6               ***   
       SCF_EXPSTAR          IRPPLS              5               ***   
       SCF_EXTRAPO          IRPP                ON      [  1]   ***   
       SCF_MAXCYC           ISCFCY            ***              cycles 
       SCF_NOSTOP           ISCFST         OFF          [  0]   ***   
       SCF_PRINT            ISCFPR              0               ***   
       SD_FIELD             IFINSD              0             x 10-6  
       SEQUENCE             ISEQUE         OFF          [  0]   ***   
       SOPERT               IPERSO         OFF          [  0]   ***   
       SPHERICAL            IDFGHI             ON       [  1]   ***   
       SPINORBIT            ISOCAL         OFF          [  0]   ***   
       SPINROTATIO          ISRCON         OFF          [  0]   ***   
       SPIN_FLIP            ISPFLP         OFF          [  0]   ***   
       SPIN_ORBIT           ISPORB         OFF          [  0]   ***   
       SPIN_SCAL            ISCSMP         OFF          [  0]   ***   
       SUBGROUP             ISUBGP         DEFAULT      [  0]   ***   
       SUBGRPAXIS           ISBXYZ         X            [  0]   ***   
       SYMMETRY             ISYM             ON         [  0]   ***   
       SYM_CHECK            ISYMCK         OVERRIDE     [  1]   ***   
       T3_EXTRAPOL          IT3EXT         ON           [  1]   ***   
       TAMP_SUM             IEVERY              5               ***   
       TESTSUITE            ITESTS         OFF          [  0]   ***   
       THERMOCH             ITHERM         OFF          [  0]   ***   
       TOL_CHOLESK          ITOLCH          10D-  4             ***   
       TRANGRAD             IRESRM         OFF          [  0]   ***   
       TRANS_INV            ITRAIN         USE          [  0]   ***   
       TREAT_PERT           ITREAT         SIMULTANEOUS [  0]   ***   
       UIJ_THRESHO          IUIJTH              1               ***   
       UNITS                IUNITS         ANGSTROM     [  0]   ***   
       UNOS                 IUNOS          OFF          [  0]   ***   
       UPDATE_HESS          IHUPDT         ON           [  1]   ***   
       VIBPHASE             ISETPH         STANDARD     [  0]   ***   
       VIBRATION            IVIB              NO        [  0]   ***   
       VIB_ALGORIT          IGEALG         STANDARD     [  0]   ***   
       VNATORB              IVNORB         OFF          [  0]   ***   
       VTRAN                IVTRAN         FULL/PARTIAL [  0]   ***   
       XFIELD               IXEFLD              0             x 10-6  
       XFORM_TOL            IXFTOL          10D- 18             ***   
       YFIELD               IYEFLD              0             x 10-6  
       ZFIELD               IZEFLD              0             x 10-6  
    -------------------------------------------------------------------
   1 entries found in Z-matrix 
   Job Title : TITLE                                                                           
  1  B          5    11.00931
 factor:   60.1997200000000     
   Rotational constants (in cm-1): 

   Rotational constants (in MHz): 

********************************************************************************
   The full molecular point group is I h .
   The largest Abelian subgroup of the full molecular point group is D2h .
   The computational point group is D2h .
********************************************************************************
  @GTFLGS-W, Keyword #SCF_DAMPING not known and is ignored.
  There are   59 basis functions.
 @GEOPT-W, Archive file not created for single-point calculation.
  @CHECKOUT-I, Total execution time (CPU/WALL):        0.23/       1.04 seconds.
--executable xjoda finished with status     0 in        1.20 seconds (walltime).
 --invoking executable--
/home/nike/cfour_v2.00beta/bin/xvmol
 Serial version of molecule started
********************************************************************************
                    Input from MOL file
********************************************************************************
INTGRL        1    0    1    0    0    0    0    0    0                         
         *** CFOUR Program System (Release V0.1) ***                            
TITLE                                                                           
    1    3 X  Y   Z   0.10E-08              0    0                              
   9999.00      3.00                                                            
          5.00000000    1    4    1    1    1    1                              
B #1   0.000000000000000   0.000000000000000   0.000000000000000                
   13    7                                                                      
   5473.00000000000       5.550000000000000E-004 -1.120000000000000E-004        
  0.000000000000000E+000  0.000000000000000E+000  0.000000000000000E+000        
  0.000000000000000E+000  0.000000000000000E+000                                
   820.900000000000       4.291000000000000E-003 -8.680000000000000E-004        
  0.000000000000000E+000  0.000000000000000E+000  0.000000000000000E+000        
  0.000000000000000E+000  0.000000000000000E+000                                
   186.800000000000       2.194900000000000E-002 -4.484000000000000E-003        
  0.000000000000000E+000  0.000000000000000E+000  0.000000000000000E+000        
  0.000000000000000E+000  0.000000000000000E+000                                
   52.8300000000000       8.444100000000000E-002 -1.768300000000000E-002        
  0.000000000000000E+000  0.000000000000000E+000  0.000000000000000E+000        
  0.000000000000000E+000  0.000000000000000E+000                                
   17.0800000000000       0.238557000000000      -5.363900000000000E-002        
  0.000000000000000E+000  0.000000000000000E+000  0.000000000000000E+000        
  0.000000000000000E+000  0.000000000000000E+000                                
   5.99900000000000       0.435072000000000      -0.119005000000000             
  0.000000000000000E+000  0.000000000000000E+000  0.000000000000000E+000        
  0.000000000000000E+000  0.000000000000000E+000                                
   2.20800000000000       0.341955000000000      -0.165824000000000             
  0.000000000000000E+000  0.000000000000000E+000  0.000000000000000E+000        
  0.000000000000000E+000  0.000000000000000E+000                                
  0.587900000000000       3.685600000000000E-002  0.120107000000000             
   1.00000000000000       0.000000000000000E+000  0.000000000000000E+000        
  0.000000000000000E+000  0.000000000000000E+000                                
  0.241500000000000      -9.545000000000000E-003  0.595981000000000             
  0.000000000000000E+000  0.000000000000000E+000  0.000000000000000E+000        
  0.000000000000000E+000  0.000000000000000E+000                                
  8.610000000000000E-002  2.368000000000000E-003  0.411021000000000             
  0.000000000000000E+000   1.00000000000000       0.000000000000000E+000        
  0.000000000000000E+000  0.000000000000000E+000                                
   2.94000000000000       0.000000000000000E+000  0.000000000000000E+000        
  0.000000000000000E+000  0.000000000000000E+000   1.00000000000000             
  0.000000000000000E+000  0.000000000000000E+000                                
   8.31100000000000       0.000000000000000E+000  0.000000000000000E+000        
  0.000000000000000E+000  0.000000000000000E+000  0.000000000000000E+000        
   1.00000000000000       0.000000000000000E+000                                
  2.914000000000000E-002  0.000000000000000E+000  0.000000000000000E+000        
  0.000000000000000E+000  0.000000000000000E+000  0.000000000000000E+000        
  0.000000000000000E+000   1.00000000000000                                     
    8    6                                                                      
   12.0500000000000       1.311800000000000E-002  0.000000000000000E+000        
  0.000000000000000E+000  0.000000000000000E+000  0.000000000000000E+000        
  0.000000000000000E+000                                                        
   2.61300000000000       7.989599999999999E-002  0.000000000000000E+000        
  0.000000000000000E+000  0.000000000000000E+000  0.000000000000000E+000        
  0.000000000000000E+000                                                        
  0.747500000000000       0.277275000000000       0.000000000000000E+000        
  0.000000000000000E+000  0.000000000000000E+000  0.000000000000000E+000        
  0.000000000000000E+000                                                        
  0.238500000000000       0.504270000000000        1.00000000000000             
  0.000000000000000E+000  0.000000000000000E+000  0.000000000000000E+000        
  0.000000000000000E+000                                                        
  7.698000000000001E-002  0.353680000000000       0.000000000000000E+000        
   1.00000000000000       0.000000000000000E+000  0.000000000000000E+000        
  0.000000000000000E+000                                                        
   6.01600000000000       0.000000000000000E+000  0.000000000000000E+000        
  0.000000000000000E+000   1.00000000000000       0.000000000000000E+000        
  0.000000000000000E+000                                                        
   22.8910000000000       0.000000000000000E+000  0.000000000000000E+000        
  0.000000000000000E+000  0.000000000000000E+000   1.00000000000000             
  0.000000000000000E+000                                                        
  2.096000000000000E-002  0.000000000000000E+000  0.000000000000000E+000        
  0.000000000000000E+000  0.000000000000000E+000  0.000000000000000E+000        
   1.00000000000000                                                             
    4    4                                                                      
  0.661000000000000        1.00000000000000       0.000000000000000E+000        
  0.000000000000000E+000  0.000000000000000E+000                                
  0.199000000000000       0.000000000000000E+000   1.00000000000000             
  0.000000000000000E+000  0.000000000000000E+000                                
   13.0150000000000       0.000000000000000E+000  0.000000000000000E+000        
   1.00000000000000       0.000000000000000E+000                                
  6.040000000000000E-002  0.000000000000000E+000  0.000000000000000E+000        
  0.000000000000000E+000   1.00000000000000                                     
    2    2                                                                      
  0.490000000000000        1.00000000000000       0.000000000000000E+000        
  0.163000000000000       0.000000000000000E+000   1.00000000000000             
FINISH                                                                          
 
********************************************************************************
 One- and two-electron integrals over symmetry-adapted AOs are calculated.

  Spherical harmonics are used.
  
  Integrals less than  0.10E-13 are neglected.

  Nuclear repulsion energy :    0.0000000000 a.u.
  required memory for a1 array                5208952  words 
  required memory for a2 array                2664637  words 
 @GETMEM-I,  Allocated      75 MB of main memory.
  @MOLECU-I, One electron integrals (CPU/WALL):        0.03/       0.05 seconds.
  @TWOEL-I,       7245 integrals of symmetry type  I I I I
  @TWOEL-I,      48282 integrals of symmetry type  I J I J
  @TWOEL-I,      30203 integrals of symmetry type  I I J J
  @TWOEL-I,      80992 integrals of symmetry type  I J K L
  @TWOEL-I, Total number of 2-e integrals     166722.
  @MOLECU-I, Two electron integrals (CPU/WALL):        0.27/       0.43 seconds.
  @CHECKOUT-I, Total execution time (CPU/WALL):        0.31/       0.89 seconds.
--executable xvmol finished with status     0 in        1.07 seconds (walltime).
 --invoking executable--
/home/nike/cfour_v2.00beta/bin/xvmol2ja
 @GETMEM-I,  Allocated   30517 MB of main memory.
  @CHECKOUT-I, Total execution time (CPU/WALL):        0.00/       0.02 seconds.
--executable xvmol2ja finished with status     0 in        0.18 seconds (walltime).
 --invoking executable--
/home/nike/cfour_v2.00beta/bin/xvscf
  There are   59 functions in the AO basis.

  There are 8 irreducible representations.

       Irrep        # of functions
         1                 15
         2                 10
         3                 10
         4                  4
         5                 10
         6                  4
         7                  4
         8                  2


  Parameters for SCF calculation: 
        SCF reference function:  RHF  
  Maximum number of iterations: 9999
     Full symmetry point group: I h 
     Computational point group: D2h 
        Initial density matrix: MOREAD                 
     SCF convergence tolerance: 10**(-10)
  DIIS convergence acceleration:  ON
          Latest start for DIIS:   5
                     DIIS order:   6

     Alpha population by irrep:   2    0    0    0    0    0    0    0
      Beta population by irrep:   2    0    0    0    0    0    0    0


  Memory information:     192142 words required.
  Fock matrices are constructed from AO integral file.
 @GETMEM-I,  Allocated       1 MB of main memory.
  Initialization and symmetry analysis required      0.002 seconds.

 total no. of electrons in initial guess :  0.000000000000000E+000
  --------------------------------------------------------------------
  Iteration         Total Energy            Largest Density Difference
  --------------------------------------------------------------------
       0             0.000000000000000              0.0000000000D+00
   current occupation vector 
     2  0  0  0  0  0  0  0
     2  0  0  0  0  0  0  0
       1           -23.420397786513650              0.2710554055D+01
   current occupation vector 
     2  0  0  0  0  0  0  0
     2  0  0  0  0  0  0  0
       2           -24.226274679406007              0.2607639122D+01
   current occupation vector 
     2  0  0  0  0  0  0  0
     2  0  0  0  0  0  0  0
       3           -24.236582120627812              0.2872447649D+00
   current occupation vector 
     2  0  0  0  0  0  0  0
     2  0  0  0  0  0  0  0
       4           -24.236874433462486              0.4356532158D-01
   current occupation vector 
     2  0  0  0  0  0  0  0
     2  0  0  0  0  0  0  0
       5           -24.236876227369688              0.1596897401D-01
   current occupation vector 
     2  0  0  0  0  0  0  0
     2  0  0  0  0  0  0  0
       6           -24.236876244625289              0.1855102667D-02
   current occupation vector 
     2  0  0  0  0  0  0  0
     2  0  0  0  0  0  0  0
       7           -24.236876244647540              0.1850696211D-04
   current occupation vector 
     2  0  0  0  0  0  0  0
     2  0  0  0  0  0  0  0
       8           -24.236876244647618              0.1082433354D-05
   current occupation vector 
     2  0  0  0  0  0  0  0
     2  0  0  0  0  0  0  0
       9           -24.236876244647608              0.2649037567D-07
   current occupation vector 
     2  0  0  0  0  0  0  0
     2  0  0  0  0  0  0  0
      10           -24.236876244647540              0.4840683410D-09
   current occupation vector 
     2  0  0  0  0  0  0  0
     2  0  0  0  0  0  0  0

  SCF has converged.

 Density matrix saved to file den.dat
 total electron number:   4.00000000000002     
     E(SCF)=       -24.236876244647625              0.1240341163D-11

  Eigenvector printing suppressed.

 @PUTMOS-I, Writing converged MOs to NEWMOS. 
 @PUTMOS-I, Symmetry   1 Full Blocks  3 Partial Blocksize   3
 @PUTMOS-I, Symmetry   2 Full Blocks  2 Partial Blocksize   2
 @PUTMOS-I, Symmetry   3 Full Blocks  2 Partial Blocksize   2
 @PUTMOS-I, Symmetry   4 Full Blocks  1 Partial Blocksize   0
 @PUTMOS-I, Symmetry   5 Full Blocks  2 Partial Blocksize   2
 @PUTMOS-I, Symmetry   6 Full Blocks  1 Partial Blocksize   0
 @PUTMOS-I, Symmetry   7 Full Blocks  1 Partial Blocksize   0
 @PUTMOS-I, Symmetry   8 Full Blocks  0 Partial Blocksize   2


 
  ORBITAL EIGENVALUES (ALPHA)  (1H = 27.2113838 eV)

       MO #        E(hartree)               E(eV)           FULLSYM    COMPSYM
       ----   --------------------   --------------------   -------   ---------
    1     1          -8.1856363850        -222.7424934800      Ag        Ag (1)
    2     2          -0.8737659146         -23.7763796715      Ag        Ag (1)
  +++++++++++++++++++++++++++++++++++++++++++++++++++++++++++++++++++++++++++++
    3    26          -0.2756932932          -7.5019960180     T1u       B3u (3)
    4    16          -0.2756932932          -7.5019960180     T1u       B2u (2)
    5    40          -0.2756932932          -7.5019960180     T1u       B1u (5)
    6     3          -0.1100685062          -2.9951163678      Ag        Ag (1)
    7    17          -0.0756907216          -2.0596492774     T1u       B2u (2)
    8    27          -0.0756907216          -2.0596492774     T1u       B3u (3)
    9    41          -0.0756907216          -2.0596492774     T1u       B1u (5)
   10    36          -0.0039130856          -0.1064804754      Hg       B1g (4)
   11    50          -0.0039130856          -0.1064804754      Hg       B3g (6)
   12    54          -0.0039130856          -0.1064804754      Hg       B2g (7)
   13     4          -0.0039130856          -0.1064804754      Hg        Ag (1)
   14     5          -0.0039130856          -0.1064804754      Hg        Ag (1)
   15    28           0.1210847424           3.2948833995     T1u       B3u (3)
   16    18           0.1210847424           3.2948833995     T1u       B2u (2)
   17    42           0.1210847424           3.2948833995     T1u       B1u (5)
   18     6           0.1654767000           4.5028499963      Ag        Ag (1)
   19     7           0.3755785803          10.2200129030      Hg        Ag (1)
   20    37           0.3755785803          10.2200129030      Hg       B1g (4)
   21    51           0.3755785803          10.2200129030      Hg       B3g (6)
   22    55           0.3755785803          10.2200129030      Hg       B2g (7)
   23     8           0.3755785803          10.2200129030      Hg        Ag (1)
   24    29           0.4141766242          11.2703190897       u       B3u (3)
   25    58           0.4141766242          11.2703190897       u        Au (8)
   26    43           0.4141766242          11.2703190897       u       B1u (5)
   27    44           0.4141766242          11.2703190897       u       B1u (5)
   28    19           0.4141766242          11.2703190897       u       B2u (2)
   29    20           0.4141766242          11.2703190897       u       B2u (2)
   30    30           0.4141766242          11.2703190897       u       B3u (3)
   31    21           1.1244023009          30.5965425779     T1u       B2u (2)
   32    31           1.1244023009          30.5965425779     T1u       B3u (3)
   33    45           1.1244023009          30.5965425779     T1u       B1u (5)
   34     9           1.5298448634          41.6291957614      Ag        Ag (1)
   35    10           1.7390523849          47.3220219280      Hg        Ag (1)
   36    38           1.7390523849          47.3220219280      Hg        Ag (4)
   37    11           1.7390523849          47.3220219280      Hg       B1g (1)
   38    52           1.7390523849          47.3220219280      Hg       B3g (6)
   39    56           1.7390523849          47.3220219280      Hg       B2g (7)
   40    22           1.8502203024          50.3470548004       u       B2u (2)
   41    23           1.8502203024          50.3470548004       u       B2u (2)
   42    46           1.8502203024          50.3470548004       u       B1u (5)
   43    59           1.8502203024          50.3470548004       u        Au (8)
   44    47           1.8502203024          50.3470548004       u       B1u (5)
   45    32           1.8502203024          50.3470548004       u       B3u (3)
   46    33           1.8502203024          50.3470548004       u       B3u (3)
   47    34           9.9565381837         270.9311820300     T1u       B3u (3)
   48    24           9.9565381837         270.9311820300     T1u       B2u (2)
   49    48           9.9565381837         270.9311820300     T1u       B1u (5)
   50    12          10.4560174835         284.5227049690      Ag        Ag (1)
   51    13          36.7044474755         998.7788081410      Hg        Ag (1)
   52    14          36.7044474755         998.7788081410      Hg        Ag (1)
   53    53          36.7044474755         998.7788081410      Hg       B1g (6)
   54    39          36.7044474755         998.7788081410      Hg       B3g (4)
   55    57          36.7044474755         998.7788081410      Hg       B2g (7)
   56    25          55.5356484864        1511.2018466338     T1u       B2u (2)
   57    35          55.5356484864        1511.2018466338     T1u       B3u (3)
   58    49          55.5356484864        1511.2018466338     T1u       B1u (5)
   59    15          58.9005101149        1602.7643879062      Ag        Ag (1)


  VSCF finished.

  @CHECKOUT-I, Total execution time (CPU/WALL):        0.13/       1.06 seconds.
--executable xvscf finished with status     0 in        1.20 seconds (walltime).
 --invoking executable--
/home/nike/cfour_v2.00beta/bin/xvtran
 @GETMEM-I,  Allocated   30517 MB of main memory.
  Full RHF integral transformation
  Transformation of IIII integrals :
  1 pass through the AO integral file was required.
        7245 AO integrals were read.
        8095 MO integrals were written to HF2.
  Transformation of IIJJ integrals :
  1 pass through the AO integral file was required.
       30203 AO integrals were read.
       35046 MO integrals were written to HF2.
  Transformation of IJIJ integrals :
  1 pass through the AO integral file was required.
       48282 AO integrals were read.
       57221 MO integrals were written to HF2.
  Transformation of IJKL integrals :
  1 pass through the AO integral file was required.
       80992 AO integrals were read.
       89344 MO integrals were written to HF2.
  Summary of active molecular orbitals: 
------------------------------------------------------------------------
 
  Index      Eigenvalue    Symmetry    Index      Eigenvalue    Symmetry
------------------------------------------------------------------------
     1        -8.1856364        1        31         1.1244023        3
     2        -0.8737659        1        32         1.8502203        3
     3        -0.1100685        1        33         1.8502203        3
     4        -0.0039131        1        34         9.9565382        3
     5        -0.0039131        1        35        55.5356485        3
     6         0.1654767        1        36        -0.0039131        4
     7         0.3755786        1        37         0.3755786        4
     8         0.3755786        1        38         1.7390524        4
     9         1.5298449        1        39        36.7044475        4
    10         1.7390524        1        40        -0.2756933        5
    11         1.7390524        1        41        -0.0756907        5
    12        10.4560175        1        42         0.1210847        5
    13        36.7044475        1        43         0.4141766        5
    14        36.7044475        1        44         0.4141766        5
    15        58.9005101        1        45         1.1244023        5
    16        -0.2756933        2        46         1.8502203        5
    17        -0.0756907        2        47         1.8502203        5
    18         0.1210847        2        48         9.9565382        5
    19         0.4141766        2        49        55.5356485        5
    20         0.4141766        2        50        -0.0039131        6
    21         1.1244023        2        51         0.3755786        6
    22         1.8502203        2        52         1.7390524        6
    23         1.8502203        2        53        36.7044475        6
    24         9.9565382        2        54        -0.0039131        7
    25        55.5356485        2        55         0.3755786        7
    26        -0.2756933        3        56         1.7390524        7
    27        -0.0756907        3        57        36.7044475        7
    28         0.1210847        3        58         0.4141766        8
    29         0.4141766        3        59         1.8502203        8
    30         0.4141766        3
------------------------------------------------------------------------
  @CHECKOUT-I, Total execution time (CPU/WALL):        0.08/       1.41 seconds.
--executable xvtran finished with status     0 in        1.55 seconds (walltime).
 --invoking executable--
/home/nike/cfour_v2.00beta/bin/xintprc
 @GETMEM-I,  Allocated   30517 MB of main memory.
  Processing integrals for CCSD calculation.
  @GMOIAA-I, Processing MO integrals for spin case AA.
  @GMOIAA-I, Generation of integral list completed.
                      TYPE                NUMBER
                      ----               --------
                      PPPP                165523
                      PPPH                 22521
                      PPHH                   891
                      PHPH                   711
                      PHHH                    54
                      HHHH                     6

                     TOTAL                189706

  @FORMT2-I, Second-order MP correlation energies:
            ------------------------------------------------
            E(SCF)                  =    -24.236876244648 a.u.
            E2(AA)                  =     -0.000838553335 a.u.
            E2(AB)                  =     -0.078128326764 a.u.
            E2(TOT)                 =     -0.079805433434 a.u.
            Total MP2 energy        =    -24.316681678081 a.u.
            ------------------------------------------------
   Largest T2 amplitudes for spin case AB:
       _       _                 _       _                 _       _
   i   j   a   b             i   j   a   b             i   j   a   b
-----------------------------------------------------------------------------
[  2   2  26  26]-0.07486 [  2   2  40  40]-0.07486 [  2   2  16  16]-0.07486
[  2   2  18  16]-0.02219 [  2   2  16  18]-0.02219 [  2   2  28  26]-0.02219
[  2   2  26  28]-0.02219 [  2   2  42  40]-0.02219 [  2   2  40  42]-0.02219
[  2   2  27  26]-0.01593 [  2   2  26  27]-0.01593 [  2   2  17  16]-0.01593
[  2   2  16  17]-0.01593 [  2   2  41  40]-0.01593 [  2   2  40  41]-0.01593
-----------------------------------------------------------------------------
   Norm of T2AB vector (     2084 symmetry allowed elements):  0.1594999054.
-----------------------------------------------------------------------------
  @CHECKOUT-I, Total execution time (CPU/WALL):        0.07/       0.57 seconds.
--executable xintprc finished with status     0 in        1.02 seconds (walltime).
 --invoking executable--
/home/nike/cfour_v2.00beta/bin/xint
 @GETMEM-I,  Allocated   30517 MB of main memory.
  @CHECKOUT-I, Total execution time (CPU/WALL):        2.05/       2.07 seconds.
--executable xint finished with status     0 in        9.28 seconds (walltime).
 --invoking executable--
/home/nike/MRCC/dmrcc
 **********************************************************************
                          MRCC program system
 **********************************************************************
 
                              Written by
    Mihaly Kallay, Zoltan Rolik, Jozsef Csontos, Istvan Ladjanszki,
       Lorant Szegedy, Bence Ladoczki, Gyula Samu, Klara Petrov,
        Mate Farkas, Peter Nagy, David Mester, and Bence Hegely
 
        Department of Physical Chemistry and Materials Science
            Budapest University of Technology and Economics
                  Budapest P.O.Box 91, H-1521 Hungary
 
                              www.mrcc.hu

 ************************ 2018-03-28 17:27:39 *************************
 Executing minp...

 Reading input from MINP...
 
 Input file:
 
# B+ 2Z
basis=aug-cc-pCVTZ
iface=cfour
uncontract=off
calc=CC(4)
mem=32GB
core=corr
itol=18
scftol=13
cctol=7
ccmaxit=999
scfmaxit=9999
scfiguess=ao
scftype=RHF
#rohftype=semicanonical
rest=2
#refdet=serialno
#1,2
#3

symm=1
mult=1
charge=+1
occ=2,0,0,0,0,0,0,0/2,0,0,0,0,0,0,0
geom
B

#Li 1 R

#R=3.065

#unit=angstroms

tprint=0.01
verbosity=3
nstate=6

 
 
 Checking keyword combinations...
 
 Keywords:
 
 active=none
 agrid=ld0006-ld0590
 basis=aug-cc-pcvtz
 basopt=off
 bpcompo=0.985
 bpcompv=0.98
 bpdfo=0.985
 bpocc=0.985
 bppdo=0.985
 bppdv=0.98
 bpedo=0.985
 bpedv=0.98
 calc=cc(4)
 ccmaxit=999
 ccprog=mrcc
 cctol=7
 charge=+1
 cialg=disk
 ciguess=off
 cmpgrp=auto
 core=corr
 corembed=off
 dboc=off
 dendec=cholesky
 dens=0
 dfalg=invsqrt
 dfbasis_cor=none
 dfbasis_scf=none
 dfintran=ovirt
 dft=off
 diag=david
 domrad=10.d0
 drpaalg=fit
 ecp=auto
 edisp=off
 embed=off
 epert=none
 eps=0.975
 excrad=0.d0
 excrad_fin=0.000000000D+00
 freq=off
 gauss=spher
 geom=zmat
 gopt=off
 ghost=none
 gtol=7
 grtol=10
 hamilton=dc
 iface=cfour
 intalg=auto
 itol=18
 lcorthr=loose
 lccrest=off
 lmp2dens=on
 lnoepso=3e-5
 lnoepsv=1e-6
 localcc=off
 locintrf=disk
 maxact=off
 maxex=0
 bfbasis=none
 mem=32gb
 molden=on
 mulmet=0
 mult=1
 nacto=0
 nactv=0
 naf_cor=off
 naf_scf=off
 nafalg=albe
 naftyp=
 nchol=auto
 ndeps=1e-3
 nstate=6
 nsing=0
 ntrip=0
 occ=2,0,0,0,0,0,0,0/2,0,0,0,0,0,0,0
 optalg=
 optmaxit=50
 optetol=1e-6
 optgtol=1e-4
 optstol=1e-3
 orblocc=off
 orbloco=off
 orblocv=off
 osveps=1e-3
 ovirt=off
 ovosnorb=80.0
 ptfreq=0.0
 popul=off
 pressure=100000
 qmmm=off
 refdet=none
 rest=2
 rgrid=log3
 rohftype=standard
 scspe=1.d0
 scsps=1.2d0
 scspt=0.33333333333333
 scfalg=auto
 scfdamp=off
 scfdiis=on
 scfdiis_end=9999
 scfdiis_start=1
 scfdiis_step=1
 scfdtol=17
 scfext=10
 scfiguess=ao
 scflshift=off
 scfmaxit=9999
 scftype=rhf
 scftol=13
 spairtol=1e-4
 symm=1
 talg=occ
 temp=298.15
 test=off
 tprint=0.01
 uncontract=off
 unit=angs
 verbosity=3
 wpairtol=0.100000000E-05

 ************************ 2018-03-28 17:27:40 *************************
 Executing goldstone...

 Generation of CC equations in terms of H and T...
 Generation of antisymmetrized Goldstone diagrams...
 Number of diagrams in T^1 equations:    15
 Number of diagrams in T^2 equations:    38
 Number of diagrams in T^3 equations:    53
 Number of diagrams in T^4 equations:    74
 Translation of diagrams to factorized equations...
 Optimizing intermediate calculation...
 Optimizing right-hand EOMCC calculation...
 Number of floating-point operations per iteration step:   6.1835E+09
 Probable CPU time per iteration step (hours):      0.06
 Required memory (Mbytes):    1381.1
 Number of intermediates:                                 249
 Number of intermediates to be stored:                     96
 Length of intermediate file (Mbytes):     208.3

 ************************ 2018-03-28 17:27:45 *************************
 Executing xmrcc...

 **********************************************************************
 CC(                     4 ) calculation 
 
 
 Allocation of1381.1 Mbytes of memory...
 Number of spinorbitals:                   118
 Number of alpha electrons:                        2
 Number of beta electrons:                         2
 z-component of spin:  0.0
 Spatial symmetry:                      1
 Convergence criterion:  1.0E-07
 Construction of occupation graphs...
 Number of                     0 -fold excitations:                      1
 Number of                     1 -fold excitations:                     52
 Number of                     2 -fold excitations:                   2548
 Number of                     3 -fold excitations:                  48416
 Number of                     4 -fold excitations:                 323744
 Total number of configurations:                 374761
 Calculation of coupling coefficients...
 Length of intermediate file (Mbytes):     141.4
 
 ======================================================================
 
 ======================================================================
 
 ======================================================================
 
 ======================================================================
 
 ======================================================================
 
 ======================================================================
 
 Memory requirements /Mbyte/: 
               Minimal        Optimal
 Real*8:        655.5539       717.5449
 Integer:         4.1973
 Total:         659.7512       721.7422
 

 ************************ 2018-03-28 17:27:47 *************************
 Executing goldstone...

 Generation of CC equations in terms of H and T...
 Generation of antisymmetrized Goldstone diagrams...
 Number of diagrams in T^1 equations:     8
 Translation of diagrams to factorized equations...
 Optimizing intermediate calculation...
 Optimizing right-hand EOMCC calculation...
 Number of floating-point operations per iteration step:   2.1235E+03
 Probable CPU time per iteration step (hours):      0.00
 Required memory (Mbytes):    1381.1
 Number of intermediates:                                  19
 Number of intermediates to be stored:                      9
 Length of intermediate file (Mbytes):       0.1

 ************************ 2018-03-28 17:27:47 *************************
 Executing xmrcc...

 **********************************************************************
 CC(                     1 ) calculation 
 
 
 Allocation of1381.1 Mbytes of memory...
 Number of spinorbitals:                   118
 Number of alpha electrons:                        2
 Number of beta electrons:                         2
 z-component of spin:  0.0
 Spatial symmetry:                      1
 Convergence criterion:  1.0E-07
 Construction of occupation graphs...
 Number of                     0 -fold excitations:                      1
 Number of                     1 -fold excitations:                     52
 Total number of configurations:                     53
 Calculation of coupling coefficients...
 Length of intermediate file (Mbytes):       0.2
 
 ======================================================================
 
 ======================================================================
 
 ======================================================================
 
 ======================================================================
 
 ======================================================================
 
 ======================================================================
 
 Memory requirements /Mbyte/: 
               Minimal        Optimal
 Real*8:          1.5935        92.4786
 Integer:         3.3541
 Total:           4.9476        95.8327
 

 ************************ 2018-03-28 17:27:48 *************************
 Executing mrcc...

 **********************************************************************
 LR-CCS calculation                                                     
 
 
 OpenMP parallel version is running.
 Number of CPUs:  32
 Allocation of   92.5 Mbytes of memory...
 Number of spinorbitals: 118
 Number of alpha electrons:  2
 Number of beta  electrons:  2
 z-component of spin:  0.0
 Spatial symmetry: 1
 Convergence criterion:  1.0E-07
 Construction of occupation graphs...
 Number of 0-fold excitations: 1
 Number of 1-fold excitations: 52
 Total number of determinants: 53
 Calculation of coupling coefficients...
 Initial cluster amplitudes are generated.
 Length of intermediate file (Mbytes):       0.2
 Reading integral list from unit 55...
 Sorting integrals...
 Energy of reference determinant [au]:     -24.236876244648
 Calculation of diagonal elements of Hamiltonian...
 Calculation of MP denominators...
 
 Starting CC iteration...
 ======================================================================
 Norm of residual vector:     8.8905E-17
 CPU time [min]:     0.611                   Wall time [min]:     0.078
 
 Iteration  1  CC energy:   -24.23687624  Energy decrease:   0.0000E+00
 ======================================================================
 
 Iteration has converged in  1 steps.
 
 Final results:
 Total CCS energy [au]:              -24.236876244648
 Spin multiplicity:                     1
 
 
 
 Dominant cluster amplitudes
 Printing threshold:  1.00E-02
 
    1.000000  Reference determinant                                     
 
 Starting right-hand LR-CC iteration for root                      2 ...
 ======================================================================
 Norm of residual vector:     0.04182298      Convergence:   1.00000000
 CPU time [min]:     0.660                   Wall time [min]:     0.080
 
 Iteration  1  CI energy:   -23.64712409  Energy decrease:   0.58975216
 ======================================================================
 Norm of residual vector:     0.00597550      Convergence:   0.17117404
 CPU time [min]:     0.671                   Wall time [min]:     0.080
 
 Iteration  2  CI energy:   -23.65421001  Energy decrease:   0.00708592
 ======================================================================
 Norm of residual vector:     0.00015859      Convergence:   0.00300747
 CPU time [min]:     0.686                   Wall time [min]:     0.081
 
 Iteration  3  CI energy:   -23.65422415  Energy decrease:   0.00001415
 ======================================================================
 Norm of residual vector:     0.00000352      Convergence:   0.00001694
 CPU time [min]:     0.697                   Wall time [min]:     0.081
 
 Iteration  4  CI energy:   -23.65422416  Energy decrease:   2.4134E-09
 ======================================================================
 Norm of residual vector:     0.0000E+00      Convergence:   1.8120E-07
 CPU time [min]:     0.713                   Wall time [min]:     0.081
 
 Iteration  5  CI energy:   -23.65422416  Energy decrease:   4.5475E-13
 ======================================================================
 
 Iteration has converged in  5 steps.
 
 Final results:
 Total LR-CCS energy [au]:           -23.654224157194
 Excitation energy [eV]:          15.8548
 Excitation energy [cm^-1]:   127877.36
 Absorption wavelength [nm]:      78.20
 Spin multiplicity:                     1
 
 
 
 Dominant CI coefficients
 Printing threshold:  1.00E-02
 
    0.696567  2b -> 6b                                                  
    0.121622  2b -> 18b                                                 
    0.696567  2a -> 6a                                                  
    0.121622  2a -> 18a                                                 
 
 Starting right-hand LR-CC iteration for root                      3 ...
 ======================================================================
 Norm of residual vector:     0.04901358      Convergence:   1.00000000
 CPU time [min]:     0.724                   Wall time [min]:     0.082
 
 Iteration  1  CI energy:   -23.57016309  Energy decrease:   0.66671315
 ======================================================================
 Norm of residual vector:     0.00653016      Convergence:   0.16146665
 CPU time [min]:     0.735                   Wall time [min]:     0.082
 
 Iteration  2  CI energy:   -23.57810963  Energy decrease:   0.00794653
 ======================================================================
 Norm of residual vector:     0.00017707      Convergence:   0.00418755
 CPU time [min]:     0.748                   Wall time [min]:     0.083
 
 Iteration  3  CI energy:   -23.57813618  Energy decrease:   0.00002656
 ======================================================================
 Norm of residual vector:     0.00000161      Convergence:   0.00001322
 CPU time [min]:     0.764                   Wall time [min]:     0.083
 
 Iteration  4  CI energy:   -23.57813619  Energy decrease:   1.8472E-09
 ======================================================================
 Norm of residual vector:     0.0000E+00      Convergence:   1.6444E-07
 CPU time [min]:     0.779                   Wall time [min]:     0.084
 
 Iteration  5  CI energy:   -23.57813619  Energy decrease:   2.3093E-13
 ======================================================================
 
 Iteration has converged in  5 steps.
 
 Final results:
 Total LR-CCS energy [au]:           -23.578136185800
 Excitation energy [eV]:          17.9252
 Excitation energy [cm^-1]:   144576.74
 Absorption wavelength [nm]:      69.17
 Spin multiplicity:                     1
 
 
 
 Dominant CI coefficients
 Printing threshold:  1.00E-02
 
   -0.697705  2b -> 13b                                                 
    0.114928  2b -> 19b                                                 
   -0.697705  2a -> 13a                                                 
    0.114928  2a -> 19a                                                 
 
 Starting right-hand LR-CC iteration for root                      4 ...
 ======================================================================
 Norm of residual vector:     0.04901358      Convergence:   1.00000000
 CPU time [min]:     0.790                   Wall time [min]:     0.084
 
 Iteration  1  CI energy:   -23.57016309  Energy decrease:   0.66671315
 ======================================================================
 Norm of residual vector:     0.00653016      Convergence:   0.16146665
 CPU time [min]:     0.802                   Wall time [min]:     0.084
 
 Iteration  2  CI energy:   -23.57810963  Energy decrease:   0.00794653
 ======================================================================
 Norm of residual vector:     0.00017707      Convergence:   0.00418755
 CPU time [min]:     0.816                   Wall time [min]:     0.085
 
 Iteration  3  CI energy:   -23.57813618  Energy decrease:   0.00002656
 ======================================================================
 Norm of residual vector:     0.00000161      Convergence:   0.00001322
 CPU time [min]:     0.831                   Wall time [min]:     0.085
 
 Iteration  4  CI energy:   -23.57813619  Energy decrease:   1.8472E-09
 ======================================================================
 Norm of residual vector:     0.0000E+00      Convergence:   1.6444E-07
 CPU time [min]:     0.848                   Wall time [min]:     0.086
 
 Iteration  5  CI energy:   -23.57813619  Energy decrease:   2.3448E-13
 ======================================================================
 
 Iteration has converged in  5 steps.
 
 Final results:
 Total LR-CCS energy [au]:           -23.578136185800
 Excitation energy [eV]:          17.9252
 Excitation energy [cm^-1]:   144576.74
 Absorption wavelength [nm]:      69.17
 Spin multiplicity:                     1
 
 
 
 Dominant CI coefficients
 Printing threshold:  1.00E-02
 
   -0.697705  2b -> 14b                                                 
    0.114928  2b -> 23b                                                 
   -0.697705  2a -> 14a                                                 
    0.114928  2a -> 23a                                                 
 
 Starting right-hand LR-CC iteration for root                      5 ...
 ======================================================================
 Norm of residual vector:     0.05534784      Convergence:   1.00000000
 CPU time [min]:     0.859                   Wall time [min]:     0.086
 
 Iteration  1  CI energy:   -23.42226575  Energy decrease:   0.81461050
 ======================================================================
 Norm of residual vector:     0.00121965      Convergence:   0.17403784
 CPU time [min]:     0.870                   Wall time [min]:     0.087
 
 Iteration  2  CI energy:   -23.41605315  Energy decrease:   0.00621260
 ======================================================================
 Norm of residual vector:     0.00000958      Convergence:   0.00013258
 CPU time [min]:     0.884                   Wall time [min]:     0.087
 
 Iteration  3  CI energy:   -23.41605328  Energy decrease:   0.00000013
 ======================================================================
 Norm of residual vector:     0.0000E+00      Convergence:   4.7702E-06
 CPU time [min]:     0.899                   Wall time [min]:     0.087
 
 Iteration  4  CI energy:   -23.41605328  Energy decrease:   4.4068E-11
 ======================================================================
 
 Iteration has converged in  4 steps.
 
 Final results:
 Total LR-CCS energy [au]:           -23.416053280833
 Excitation energy [eV]:          22.3357
 Excitation energy [cm^-1]:   180149.83
 Absorption wavelength [nm]:      55.51
 Spin multiplicity:                     1
 
 
 
 Dominant CI coefficients
 Printing threshold:  1.00E-02
 
   -0.121544  2b -> 6b                                                  
    0.696332  2b -> 18b                                                 
   -0.018622  2b -> 34b                                                 
   -0.121544  2a -> 6a                                                  
    0.696332  2a -> 18a                                                 
   -0.018622  2a -> 34a                                                 
 
 Starting right-hand LR-CC iteration for root                      6 ...
 ======================================================================
 Norm of residual vector:     0.06528420      Convergence:   1.00000000
 CPU time [min]:     0.910                   Wall time [min]:     0.088
 
 Iteration  1  CI energy:   -23.28434345  Energy decrease:   0.95253280
 ======================================================================
 Norm of residual vector:     0.00127861      Convergence:   0.16549727
 CPU time [min]:     0.921                   Wall time [min]:     0.088
 
 Iteration  2  CI energy:   -23.27791060  Energy decrease:   0.00643285
 ======================================================================
 Norm of residual vector:     0.00004975      Convergence:   0.00055973
 CPU time [min]:     0.933                   Wall time [min]:     0.089
 
 Iteration  3  CI energy:   -23.27791112  Energy decrease:   0.00000053
 ======================================================================
 Norm of residual vector:     0.0000E+00      Convergence:   4.2091E-06
 CPU time [min]:     0.948                   Wall time [min]:     0.089
 
 Iteration  4  CI energy:   -23.27791112  Energy decrease:   1.6532E-10
 ======================================================================
 
 Iteration has converged in  4 steps.
 
 Final results:
 Total LR-CCS energy [au]:           -23.277911124582
 Excitation energy [eV]:          26.0948
 Excitation energy [cm^-1]:   210468.53
 Absorption wavelength [nm]:      47.51
 Spin multiplicity:                     1
 
 Dominant CI coefficients
 Printing threshold:  1.00E-02
 
    0.114854  2b -> 13b                                                 
    0.697269  2b -> 19b                                                 
   -0.024981  2b -> 36b                                                 
    0.114854  2a -> 13a                                                 
    0.697269  2a -> 19a                                                 
   -0.024981  2a -> 36a                                                 

 ************************ 2018-03-28 17:27:54 *************************
 Executing goldstone...

 Generation of CC equations in terms of H and T...
 Generation of antisymmetrized Goldstone diagrams...
 Number of diagrams in T^1 equations:    14
 Number of diagrams in T^2 equations:    31
 Translation of diagrams to factorized equations...
 Optimizing intermediate calculation...
 Optimizing right-hand EOMCC calculation...
 Number of floating-point operations per iteration step:   6.5990E+06
 Probable CPU time per iteration step (hours):      0.00
 Required memory (Mbytes):    1381.1
 Number of intermediates:                                  84
 Number of intermediates to be stored:                     36
 Length of intermediate file (Mbytes):      24.3

 ************************ 2018-03-28 17:27:57 *************************
 Executing xmrcc...

 **********************************************************************
 CC(                     2 ) calculation 
 
 
 Allocation of1381.1 Mbytes of memory...
 Number of spinorbitals:                   118
 Number of alpha electrons:                        2
 Number of beta electrons:                         2
 z-component of spin:  0.0
 Spatial symmetry:                      1
 Convergence criterion:  1.0E-07
 Construction of occupation graphs...
 Number of                     0 -fold excitations:                      1
 Number of                     1 -fold excitations:                     52
 Number of                     2 -fold excitations:                   2548
 Total number of configurations:                   2601
 Calculation of coupling coefficients...
 Length of intermediate file (Mbytes):      19.4
 
 ======================================================================
 
 ======================================================================
 
 ======================================================================
 
 ======================================================================
 
 ======================================================================
 
 ======================================================================
 
 Memory requirements /Mbyte/: 
               Minimal        Optimal
 Real*8:         22.4937       104.2831
 Integer:         3.7007
 Total:          26.1944       107.9838
 

 ************************ 2018-03-28 17:27:57 *************************
 Executing mrcc...

 **********************************************************************
 LR-CCSD calculation                                                    
 
 
 OpenMP parallel version is running.
 Number of CPUs:  32
 Allocation of  104.3 Mbytes of memory...
 Number of spinorbitals: 118
 Number of alpha electrons:  2
 Number of beta  electrons:  2
 z-component of spin:  0.0
 Spatial symmetry: 1
 Convergence criterion:  1.0E-07
 Construction of occupation graphs...
 Number of 0-fold excitations: 1
 Number of 1-fold excitations: 52
 Number of 2-fold excitations: 2548
 Total number of determinants: 2601
 Calculation of coupling coefficients...
 Initial cluster amplitudes are read from unit 16.
 Length of intermediate file (Mbytes):      19.4
 Reading integral list from unit 55...
 Sorting integrals...
 Energy of reference determinant [au]:     -24.236876244648
 Calculation of diagonal elements of Hamiltonian...
 Calculation of MP denominators...
 
 Starting CC iteration...
 ======================================================================
 Norm of residual vector:     1.58619482
 CPU time [min]:     1.286                   Wall time [min]:     0.117
 
 Iteration  1  CC energy:   -24.31668168  Energy decrease:   0.07980543
 ======================================================================
 Norm of residual vector:     0.12998386
 CPU time [min]:     2.041                   Wall time [min]:     0.147
 
 Iteration  2  CC energy:   -24.33570031  Energy decrease:   0.01901863
 ======================================================================
 Norm of residual vector:     0.04654645
 CPU time [min]:     3.032                   Wall time [min]:     0.214
 
 Iteration  3  CC energy:   -24.34163510  Energy decrease:   0.00593479
 ======================================================================
 Norm of residual vector:     0.00690414
 CPU time [min]:     4.279                   Wall time [min]:     0.311
 
 Iteration  4  CC energy:   -24.34165202  Energy decrease:   0.00001691
 ======================================================================
 Norm of residual vector:     0.00097546
 CPU time [min]:     5.046                   Wall time [min]:     0.340
 
 Iteration  5  CC energy:   -24.34169664  Energy decrease:   0.00004462
 ======================================================================
 Norm of residual vector:     0.00015307
 CPU time [min]:     5.894                   Wall time [min]:     0.370
 
 Iteration  6  CC energy:   -24.34168825  Energy decrease:   0.00000839
 ======================================================================
 Norm of residual vector:     0.00004224
 CPU time [min]:     6.848                   Wall time [min]:     0.404
 
 Iteration  7  CC energy:   -24.34168802  Energy decrease:   0.00000023
 ======================================================================
 Norm of residual vector:     0.00000560
 CPU time [min]:     7.929                   Wall time [min]:     0.462
 
 Iteration  8  CC energy:   -24.34168820  Energy decrease:   0.00000018
 ======================================================================
 Norm of residual vector:     0.00000130
 CPU time [min]:     8.962                   Wall time [min]:     0.534
 
 Iteration  9  CC energy:   -24.34168819  Energy decrease:   0.00000001
 ======================================================================
 Norm of residual vector:     0.00000013
 CPU time [min]:     9.926                   Wall time [min]:     0.568
 
 Iteration 10  CC energy:   -24.34168820  Energy decrease:   4.9635E-09
 ======================================================================
 Norm of residual vector:     0.00000002
 CPU time [min]:    10.746                   Wall time [min]:     0.598
 
 Iteration 11  CC energy:   -24.34168820  Energy decrease:   1.7388E-10
 ======================================================================
 
 Iteration has converged in 11 steps.
 
 Final results:
 Total CCSD energy [au]:             -24.341688198455
 Spin multiplicity:                     1
 
 
 
 Dominant cluster amplitudes
 Printing threshold:  1.00E-02
 
    1.000000  Reference determinant                                     
    0.012120  2b -> 6b                                                  
    0.014025  2b -> 18b                                                 
    0.012120  2a -> 6a                                                  
    0.014025  2a -> 18a                                                 
   -0.011091  1a 1b -> 50a 50b                                          
   -0.014184  2a 2b -> 18a 18b                                          
   -0.010313  2a 2b -> 34a 34b                                          
   -0.146453  2a 2b -> 4a 4b                                            
   -0.030430  2a 2b -> 7a 4b                                            
   -0.042232  2a 2b -> 16a 4b                                           
   -0.030430  2a 2b -> 4a 7b                                            
   -0.042232  2a 2b -> 4a 16b                                           
   -0.013186  2a 2b -> 16a 16b                                          
   -0.146453  2a 2b -> 3a 3b                                            
   -0.030430  2a 2b -> 8a 3b                                            
   -0.042232  2a 2b -> 15a 3b                                           
   -0.030430  2a 2b -> 3a 8b                                            
   -0.042232  2a 2b -> 3a 15b                                           
   -0.013186  2a 2b -> 15a 15b                                          
   -0.146453  2a 2b -> 5a 5b                                            
   -0.030430  2a 2b -> 9a 5b                                            
   -0.042232  2a 2b -> 17a 5b                                           
   -0.030430  2a 2b -> 5a 9b                                            
   -0.042232  2a 2b -> 5a 17b                                           
   -0.013186  2a 2b -> 17a 17b                                          
 
 Starting right-hand LR-CC iteration for root                      2 ...
 ======================================================================
 Norm of residual vector:     0.25876729      Convergence:   1.00000000
 CPU time [min]:    12.184                   Wall time [min]:     0.745
 
 Iteration  1  CI energy:   -23.69852738  Energy decrease:   0.64316082
 ======================================================================
 Norm of residual vector:     0.08909806      Convergence:   0.17891325
 CPU time [min]:    12.762                   Wall time [min]:     0.767
 
 Iteration  2  CI energy:   -23.72135960  Energy decrease:   0.02283223
 ======================================================================
 Norm of residual vector:     0.11328384      Convergence:   0.07352599
 CPU time [min]:    13.216                   Wall time [min]:     0.784
 
 Iteration  3  CI energy:   -23.72148167  Energy decrease:   0.00012207
 ======================================================================
 Norm of residual vector:     0.11728950      Convergence:   0.33632073
 CPU time [min]:    13.971                   Wall time [min]:     0.819
 
 Iteration  4  CI energy:   -23.74122420  Energy decrease:   0.01974253
 ======================================================================
 Norm of residual vector:     0.12220948      Convergence:   0.03773341
 CPU time [min]:    14.455                   Wall time [min]:     0.836
 
 Iteration  5  CI energy:   -23.70275970  Energy decrease:   0.03846450
 ======================================================================
 Norm of residual vector:     0.03477222      Convergence:   0.05345259
 CPU time [min]:    14.910                   Wall time [min]:     0.851
 
 Iteration  6  CI energy:   -23.70945374  Energy decrease:   0.00669404
 ======================================================================
 Norm of residual vector:     0.01921257      Convergence:   0.00630225
 CPU time [min]:    15.303                   Wall time [min]:     0.865
 
 Iteration  7  CI energy:   -23.71036164  Energy decrease:   0.00090790
 ======================================================================
 Norm of residual vector:     0.00159379      Convergence:   0.00181459
 CPU time [min]:    15.670                   Wall time [min]:     0.879
 
 Iteration  8  CI energy:   -23.71140539  Energy decrease:   0.00104375
 ======================================================================
 Norm of residual vector:     0.00021834      Convergence:   0.00060256
 CPU time [min]:    16.124                   Wall time [min]:     0.894
 
 Iteration  9  CI energy:   -23.71146191  Energy decrease:   0.00005652
 ======================================================================
 Norm of residual vector:     0.00007065      Convergence:   0.00018630
 CPU time [min]:    16.535                   Wall time [min]:     0.908
 
 Iteration 10  CI energy:   -23.71146834  Energy decrease:   0.00000643
 ======================================================================
 Norm of residual vector:     0.00004016      Convergence:   0.00006071
 CPU time [min]:    16.908                   Wall time [min]:     0.922
 
 Iteration 11  CI energy:   -23.71146884  Energy decrease:   0.00000050
 ======================================================================
 Norm of residual vector:     0.00000885      Convergence:   0.00001671
 CPU time [min]:    17.377                   Wall time [min]:     0.938
 
 Iteration 12  CI energy:   -23.71146813  Energy decrease:   0.00000071
 ======================================================================
 Norm of residual vector:     0.38564466      Convergence:   0.61527831
 CPU time [min]:    17.902                   Wall time [min]:     0.956
 
 Iteration 13  CI energy:   -24.16587708  Energy decrease:   0.45440895
 ======================================================================
 Norm of residual vector:     0.00000307      Convergence:   0.00000371
 CPU time [min]:    18.353                   Wall time [min]:     0.971
 
 Iteration 14  CI energy:   -23.71146755  Energy decrease:   0.45440953
 ======================================================================
 Norm of residual vector:     0.00000131      Convergence:   0.00000244
 CPU time [min]:    18.953                   Wall time [min]:     0.993
 
 Iteration 15  CI energy:   -23.71146740  Energy decrease:   0.00000015
 ======================================================================
 Norm of residual vector:     0.00000139      Convergence:   0.00000302
 CPU time [min]:    19.379                   Wall time [min]:     1.008
 
 Iteration 16  CI energy:   -23.71146744  Energy decrease:   0.00000004
 ======================================================================
 Norm of residual vector:     0.00000062      Convergence:   0.00000129
 CPU time [min]:    19.759                   Wall time [min]:     1.023
 
 Iteration 17  CI energy:   -23.71146741  Energy decrease:   0.00000003
 ======================================================================
 Norm of residual vector:     0.00000030      Convergence:   0.00000053
 CPU time [min]:    20.214                   Wall time [min]:     1.037
 
 Iteration 18  CI energy:   -23.71146740  Energy decrease:   0.00000001
 ======================================================================
 Norm of residual vector:     0.0000E+00      Convergence:   9.6825E-08
 CPU time [min]:    20.623                   Wall time [min]:     1.052
 
 Iteration 19  CI energy:   -23.71146740  Energy decrease:   0.00000001
 ======================================================================
 
 Iteration has converged in 19 steps.
 
 Final results:
 Total LR-CCSD energy [au]:          -23.711467401446
 Excitation energy [eV]:          17.1492
 Excitation energy [cm^-1]:   138317.49
 Absorption wavelength [nm]:      72.30
 Spin multiplicity:                     1
 
 
 
 Dominant CI coefficients
 Printing threshold:  1.00E-02
 
    0.128232  Reference determinant                                     
    0.533242  2b -> 6b                                                  
    0.089466  2b -> 18b                                                 
    0.533242  2a -> 6a                                                  
    0.089466  2a -> 18a                                                 
    0.048350  2a 2b -> 6a 6b                                            
    0.031869  2a 2b -> 18a 6b                                           
   -0.012018  2a 2b -> 34a 6b                                           
    0.031869  2a 2b -> 6a 18b                                           
   -0.019827  2a 2b -> 19a 19b                                          
    0.010412  2a 2b -> 36a 19b                                          
   -0.019827  2a 2b -> 23a 23b                                          
    0.010412  2a 2b -> 35a 23b                                          
   -0.012018  2a 2b -> 6a 34b                                           
   -0.011076  2a 2b -> 34a 34b                                          
    0.010412  2a 2b -> 23a 35b                                          
   -0.010664  2a 2b -> 35a 35b                                          
    0.010412  2a 2b -> 19a 36b                                          
   -0.010664  2a 2b -> 36a 36b                                          
    0.355142  2a 2b -> 4a 4b                                            
    0.012679  2a 2b -> 31a 4b                                           
   -0.014462  2a 2b -> 7a 7b                                            
   -0.022240  2a 2b -> 16a 7b                                           
   -0.022240  2a 2b -> 7a 16b                                           
   -0.036043  2a 2b -> 16a 16b                                          
   -0.013785  2a 2b -> 31a 16b                                          
    0.012679  2a 2b -> 4a 31b                                           
   -0.013785  2a 2b -> 16a 31b                                          
   -0.011710  2a 2b -> 31a 31b                                          
    0.355142  2a 2b -> 3a 3b                                            
    0.012679  2a 2b -> 32a 3b                                           
   -0.014462  2a 2b -> 8a 8b                                            
   -0.022240  2a 2b -> 15a 8b                                           
   -0.022240  2a 2b -> 8a 15b                                           
   -0.036043  2a 2b -> 15a 15b                                          
   -0.013785  2a 2b -> 32a 15b                                          
    0.012679  2a 2b -> 3a 32b                                           
   -0.013785  2a 2b -> 15a 32b                                          
   -0.011710  2a 2b -> 32a 32b                                          
   -0.019827  2a 2b -> 20a 20b                                          
    0.010412  2a 2b -> 37a 20b                                          
    0.010412  2a 2b -> 20a 37b                                          
   -0.010664  2a 2b -> 37a 37b                                          
    0.355142  2a 2b -> 5a 5b                                            
    0.012679  2a 2b -> 33a 5b                                           
   -0.014462  2a 2b -> 9a 9b                                            
   -0.022240  2a 2b -> 17a 9b                                           
   -0.022240  2a 2b -> 9a 17b                                           
   -0.036043  2a 2b -> 17a 17b                                          
   -0.013785  2a 2b -> 33a 17b                                          
    0.012679  2a 2b -> 5a 33b                                           
   -0.013785  2a 2b -> 17a 33b                                          
   -0.011710  2a 2b -> 33a 33b                                          
   -0.019827  2a 2b -> 21a 21b                                          
    0.010412  2a 2b -> 38a 21b                                          
    0.010412  2a 2b -> 21a 38b                                          
   -0.010664  2a 2b -> 38a 38b                                          
[...]
 
 Iteration 11  CI energy:   -23.50241837  Energy decrease:   0.00000029
 ======================================================================
 Norm of residual vector:     0.00000271      Convergence:   0.00000232
 CPU time [min]:   690.415                   Wall time [min]:    35.479
 
 Iteration 12  CI energy:   -23.50241835  Energy decrease:   0.00000001
 ======================================================================
 Norm of residual vector:     0.00000149      Convergence:   0.00000049
 CPU time [min]:   701.481                   Wall time [min]:    36.073
 
 Iteration 13  CI energy:   -23.50241838  Energy decrease:   0.00000002
 ======================================================================
 Norm of residual vector:     0.0000E+00      Convergence:   6.9321E-08
 CPU time [min]:   713.895                   Wall time [min]:    36.773
 
 Iteration 14  CI energy:   -23.50241839  Energy decrease:   0.00000001
 ======================================================================
 
 Iteration has converged in 14 steps.
 
 Final results:
 Total LR-CCSDTQ energy [au]:        -23.502418387552
 Excitation energy [eV]:          22.8529
 Excitation energy [cm^-1]:   184321.38
 Absorption wavelength [nm]:      54.25
 Spin multiplicity:                     1
 
 
 
 Dominant CI coefficients
 Printing threshold:  1.00E-02
 
    0.017915  Reference determinant                                     
    0.196018  2b -> 6b                                                  
   -0.626454  2b -> 18b                                                 
    0.028691  2b -> 34b                                                 
    0.196017  2a -> 6a                                                  
   -0.626454  2a -> 18a                                                 
    0.028691  2a -> 34a                                                 
    0.036872  2a 2b -> 6a 6b                                            
   -0.012824  2a 2b -> 34a 6b                                           
   -0.070108  2a 2b -> 18a 18b                                          
    0.011523  2a 2b -> 34a 18b                                          
   -0.012824  2a 2b -> 6a 34b                                           
    0.011523  2a 2b -> 18a 34b                                          
   -0.079449  2a 2b -> 4a 4b                                            
    0.058532  2a 2b -> 7a 4b                                            
    0.098999  2a 2b -> 16a 4b                                           
    0.018467  2a 2b -> 31a 4b                                           
    0.058532  2a 2b -> 4a 7b                                            
    0.029174  2a 2b -> 7a 7b                                            
    0.044224  2a 2b -> 16a 7b                                           
    0.013460  2a 2b -> 31a 7b                                           
    0.098999  2a 2b -> 4a 16b                                           
    0.044224  2a 2b -> 7a 16b                                           
    0.063026  2a 2b -> 16a 16b                                          
    0.015279  2a 2b -> 31a 16b                                          
    0.018467  2a 2b -> 4a 31b                                           
    0.013460  2a 2b -> 7a 31b                                           
    0.015279  2a 2b -> 16a 31b                                          
   -0.079449  2a 2b -> 3a 3b                                            
    0.058532  2a 2b -> 8a 3b                                            
    0.098999  2a 2b -> 15a 3b                                           
    0.018467  2a 2b -> 32a 3b                                           
    0.058532  2a 2b -> 3a 8b                                            
    0.029174  2a 2b -> 8a 8b                                            
    0.044224  2a 2b -> 15a 8b                                           
    0.013460  2a 2b -> 32a 8b                                           
    0.098999  2a 2b -> 3a 15b                                           
    0.044224  2a 2b -> 8a 15b                                           
    0.063026  2a 2b -> 15a 15b                                          
    0.015279  2a 2b -> 32a 15b                                          
    0.018467  2a 2b -> 3a 32b                                           
    0.013460  2a 2b -> 8a 32b                                           
    0.015279  2a 2b -> 15a 32b                                          
   -0.079449  2a 2b -> 5a 5b                                            
    0.058532  2a 2b -> 9a 5b                                            
    0.098999  2a 2b -> 17a 5b                                           
    0.018467  2a 2b -> 33a 5b                                           
    0.058532  2a 2b -> 5a 9b                                            
    0.029174  2a 2b -> 9a 9b                                            
    0.044224  2a 2b -> 17a 9b                                           
    0.013460  2a 2b -> 33a 9b                                           
    0.098999  2a 2b -> 5a 17b                                           
    0.044224  2a 2b -> 9a 17b                                           
    0.063026  2a 2b -> 17a 17b                                          
    0.015279  2a 2b -> 33a 17b                                          
    0.018467  2a 2b -> 5a 33b                                           
    0.013460  2a 2b -> 9a 33b                                           
    0.015279  2a 2b -> 17a 33b                                          
 
 Starting right-hand LR-CC iteration for root                      6 ...
 ======================================================================
 Norm of residual vector:     0.01525418      Convergence:   1.00000000
 CPU time [min]:   724.825                   Wall time [min]:    37.298
 
 Iteration  1  CI energy:   -23.33555914  Energy decrease:   1.00668917
 ======================================================================
 Norm of residual vector:     0.00105035      Convergence:   0.00062329
 CPU time [min]:   735.697                   Wall time [min]:    37.877
 
 Iteration  2  CI energy:   -23.33557074  Energy decrease:   0.00001160
 ======================================================================
 Norm of residual vector:     0.00021120      Convergence:   0.00037714
 CPU time [min]:   746.140                   Wall time [min]:    38.449
 
 Iteration  3  CI energy:   -23.33557480  Energy decrease:   0.00000405
 ======================================================================
 Norm of residual vector:     0.00013815      Convergence:   0.00010824
 CPU time [min]:   756.944                   Wall time [min]:    39.161
 
 Iteration  4  CI energy:   -23.33557504  Energy decrease:   0.00000025
 ======================================================================
 Norm of residual vector:     0.00020642      Convergence:   0.00011655
 CPU time [min]:   769.535                   Wall time [min]:    39.783
 
 Iteration  5  CI energy:   -23.33557355  Energy decrease:   0.00000150
 ======================================================================
 Norm of residual vector:     0.00013121      Convergence:   0.00009738
 CPU time [min]:   780.625                   Wall time [min]:    40.295
 
 Iteration  6  CI energy:   -23.33555950  Energy decrease:   0.00001404
 ======================================================================
 Norm of residual vector:     0.00012621      Convergence:   0.00000781
 CPU time [min]:   792.735                   Wall time [min]:    40.802
 
 Iteration  7  CI energy:   -23.33556695  Energy decrease:   0.00000745
 ======================================================================
 Norm of residual vector:     0.00007472      Convergence:   0.00005171
 CPU time [min]:   803.557                   Wall time [min]:    41.197
 
 Iteration  8  CI energy:   -23.33557482  Energy decrease:   0.00000787
 ======================================================================
 Norm of residual vector:     0.00005085      Convergence:   0.00006346
 CPU time [min]:   816.993                   Wall time [min]:    42.359
 
 Iteration  9  CI energy:   -23.33557567  Energy decrease:   0.00000084
 ======================================================================
 Norm of residual vector:     0.00007693      Convergence:   0.00005658
 CPU time [min]:   828.284                   Wall time [min]:    42.757
 
 Iteration 10  CI energy:   -23.33557716  Energy decrease:   0.00000149
 ======================================================================
 Norm of residual vector:     0.00002547      Convergence:   0.00003649
 CPU time [min]:   838.905                   Wall time [min]:    43.384
 
 Iteration 11  CI energy:   -23.33557601  Energy decrease:   0.00000114
 ======================================================================
 Norm of residual vector:     0.00002685      Convergence:   0.00000328
 CPU time [min]:   850.913                   Wall time [min]:    44.135
 
 Iteration 12  CI energy:   -23.33557603  Energy decrease:   0.00000002
 ======================================================================
 Norm of residual vector:     0.00001365      Convergence:   0.00001480
 CPU time [min]:   862.233                   Wall time [min]:    44.618
 
 Iteration 13  CI energy:   -23.33557559  Energy decrease:   0.00000044
 ======================================================================
 Norm of residual vector:     0.00001031      Convergence:   0.00000772
 CPU time [min]:   873.781                   Wall time [min]:    45.131
 
 Iteration 14  CI energy:   -23.33557557  Energy decrease:   0.00000002
 ======================================================================
 Norm of residual vector:     0.00000351      Convergence:   0.00000277
 CPU time [min]:   886.024                   Wall time [min]:    45.709
 
 Iteration 15  CI energy:   -23.33557562  Energy decrease:   0.00000005
 ======================================================================
 Norm of residual vector:     0.00000247      Convergence:   0.00000448
 CPU time [min]:   897.720                   Wall time [min]:    46.402
 
 Iteration 16  CI energy:   -23.33557556  Energy decrease:   0.00000006
 ======================================================================
 Norm of residual vector:     0.00000583      Convergence:   0.00000400
 CPU time [min]:   909.338                   Wall time [min]:    46.948
 
 Iteration 17  CI energy:   -23.33557553  Energy decrease:   0.00000003
 ======================================================================
 Norm of residual vector:     0.00000098      Convergence:   0.00000085
 CPU time [min]:   921.627                   Wall time [min]:    47.644
 
 Iteration 18  CI energy:   -23.33557557  Energy decrease:   0.00000004
 ======================================================================
 Complex root in matrix diagonalization.
 Norm of residual vector:     0.00000065      Convergence:   0.00000049
 CPU time [min]:   933.132                   Wall time [min]:    48.054
 
 Iteration 19  CI energy:   -23.33557557  Energy decrease:   8.7548E-10
 ======================================================================
 Norm of residual vector:     0.00000069      Convergence:   0.00000041
 CPU time [min]:   944.085                   Wall time [min]:    48.592
 
 Iteration 20  CI energy:   -23.33557556  Energy decrease:   0.00000001
 ======================================================================
 Norm of residual vector:     0.00000075      Convergence:   0.00000009
 CPU time [min]:   956.289                   Wall time [min]:    49.237
 
 Iteration 21  CI energy:   -23.33557553  Energy decrease:   0.00000003
 ======================================================================
 Norm of residual vector:     0.00000058      Convergence:   0.00000029
 CPU time [min]:   968.078                   Wall time [min]:    49.747
 
 Iteration 22  CI energy:   -23.33557557  Energy decrease:   0.00000004
 ======================================================================
 Norm of residual vector:     0.00000034      Convergence:   0.00000026
 CPU time [min]:   980.641                   Wall time [min]:    50.581
 
 Iteration 23  CI energy:   -23.33557557  Energy decrease:   2.5467E-09
 ======================================================================
 Norm of residual vector:     0.00000495      Convergence:   0.00000296
 CPU time [min]:   992.666                   Wall time [min]:    51.022
 
 Iteration 24  CI energy:   -23.33557554  Energy decrease:   0.00000003
 ======================================================================
 Norm of residual vector:     0.00000044      Convergence:   0.00000043
 CPU time [min]:  1007.037                   Wall time [min]:    51.634
 
 Iteration 25  CI energy:   -23.33557557  Energy decrease:   0.00000003
 ======================================================================
 Norm of residual vector:     0.0000E+00      Convergence:   7.2077E-08
 CPU time [min]:  1019.540                   Wall time [min]:    52.289
 
 Iteration 26  CI energy:   -23.33557557  Energy decrease:   1.0625E-09
 ======================================================================
 
 Iteration has converged in 26 steps.
 
 Final results:
 Total LR-CCSDTQ energy [au]:        -23.335575569934
 Excitation energy [eV]:          27.3930
 Excitation energy [cm^-1]:   220939.15
 Absorption wavelength [nm]:      45.26
 Spin multiplicity:                     1
 
 Dominant CI coefficients
 Printing threshold:  1.00E-02
 
    0.117398  2b -> 13b                                                 
    0.642216  2b -> 19b                                                 
   -0.017202  2b -> 36b                                                 
    0.117398  2a -> 13a                                                 
    0.642216  2a -> 19a                                                 
   -0.017202  2a -> 36a                                                 
    0.017268  2a 2b -> 13a 6b                                           
    0.019161  2a 2b -> 19a 6b                                           
    0.017268  2a 2b -> 6a 13b                                           
    0.015558  2a 2b -> 18a 13b                                          
    0.015558  2a 2b -> 13a 18b                                          
    0.037435  2a 2b -> 19a 18b                                          
    0.019161  2a 2b -> 6a 19b                                           
    0.037435  2a 2b -> 18a 19b                                          
   -0.020562  2a 2b -> 23a 19b                                          
   -0.020746  2a 2b -> 34a 19b                                          
   -0.020562  2a 2b -> 19a 23b                                          
   -0.020746  2a 2b -> 19a 34b                                          
   -0.081480  2a 2b -> 4a 4b                                            
   -0.133838  2a 2b -> 7a 4b                                            
    0.038370  2a 2b -> 16a 4b                                           
    0.066330  2a 2b -> 28a 4b                                           
    0.014780  2a 2b -> 29a 4b                                           
   -0.021743  2a 2b -> 31a 4b                                           
   -0.027454  2a 2b -> 41a 4b                                           
   -0.133838  2a 2b -> 4a 7b                                            
   -0.054137  2a 2b -> 7a 7b                                            
   -0.027402  2a 2b -> 16a 7b                                           
    0.013976  2a 2b -> 28a 7b                                           
   -0.020070  2a 2b -> 31a 7b                                           
    0.038371  2a 2b -> 4a 16b                                           
   -0.027402  2a 2b -> 7a 16b                                           
    0.039842  2a 2b -> 16a 16b                                          
    0.018132  2a 2b -> 28a 16b                                          
    0.066330  2a 2b -> 4a 28b                                           
    0.013976  2a 2b -> 7a 28b                                           
    0.018132  2a 2b -> 16a 28b                                          
    0.014780  2a 2b -> 4a 29b                                           
   -0.021743  2a 2b -> 4a 31b                                           
   -0.020070  2a 2b -> 7a 31b                                           
   -0.027454  2a 2b -> 4a 41b                                           
    0.081473  2a 2b -> 3a 3b                                            
    0.133827  2a 2b -> 8a 3b                                            
   -0.038367  2a 2b -> 15a 3b                                           
   -0.017582  2a 2b -> 24a 3b                                           
    0.065640  2a 2b -> 30a 3b                                           
    0.021741  2a 2b -> 32a 3b                                           
   -0.025566  2a 2b -> 45a 3b                                           
    0.010125  2a 2b -> 46a 3b                                           
    0.133826  2a 2b -> 3a 8b                                            
    0.054132  2a 2b -> 8a 8b                                            
    0.027400  2a 2b -> 15a 8b                                           
    0.013830  2a 2b -> 30a 8b                                           
    0.020068  2a 2b -> 32a 8b                                           
   -0.038367  2a 2b -> 3a 15b                                           
    0.027400  2a 2b -> 8a 15b                                           
   -0.039838  2a 2b -> 15a 15b                                          
    0.017944  2a 2b -> 30a 15b                                          
   -0.017582  2a 2b -> 3a 24b                                           
    0.065640  2a 2b -> 3a 30b                                           
    0.013830  2a 2b -> 8a 30b                                           
    0.017944  2a 2b -> 15a 30b                                          
    0.021741  2a 2b -> 3a 32b                                           
    0.020068  2a 2b -> 8a 32b                                           
   -0.025566  2a 2b -> 3a 45b                                           
    0.010125  2a 2b -> 3a 46b                                           
   -0.053723  2a 2b -> 26a 5b                                           
    0.021740  2a 2b -> 44a 5b                                           
   -0.011320  2a 2b -> 26a 9b                                           
   -0.014686  2a 2b -> 26a 17b                                          
   -0.053723  2a 2b -> 5a 26b                                           
   -0.011320  2a 2b -> 9a 26b                                           
   -0.014686  2a 2b -> 17a 26b                                          
    0.021740  2a 2b -> 5a 44b                                           
    0.017806  2a 2b -> 21a 21b                                          
   -0.017808  2a 2b -> 22a 22b                                          
 
 ************************ 2018-03-28 18:35:48 *************************
                      Normal termination of mrcc.
 **********************************************************************
--executable dmrcc finished with status     0 in     4089.58 seconds (walltime).
  The final electronic energy is       -23.335575569933791 a.u. 
  This computation required                         4105.73 seconds (walltime).
--- SharcNET Job Epilogue ---
Job completed successfully.
               jobid: 1536822
               resid: 3016872
         exit status: 0
      allocated time: 4106.94
           user time: 59796.4
         system time: 17245.7
peak rss=1283792896; peak vsz=1283792896 (bytes)
atime=4106.94; utime=59796.4; stime=17245.7; exit=0
