 --invoking executable--
/home/nike/cfour_v2.00beta/bin/xjoda


   *************************************************************************
         <<<     CCCCCC     CCCCCC   |||     CCCCCC     CCCCCC   >>>
       <<<      CCC        CCC       |||    CCC        CCC         >>>
      <<<      CCC        CCC        |||   CCC        CCC            >>>
    <<<        CCC        CCC        |||   CCC        CCC              >>>
      <<<      CCC        CCC        |||   CCC        CCC            >>>
       <<<      CCC        CCC       |||    CCC        CCC         >>>
         <<<     CCCCCC     CCCCCC   |||     CCCCCC     CCCCCC   >>>
   *************************************************************************

     ****************************************************************
     * CFOUR Coupled-Cluster techniques for Computational Chemistry *
     ****************************************************************
 

   Department of Chemistry                Institut fuer Physikalische Chemie
   University of Texas at Austin          Universitaet Mainz
   Austin, TX  78712, USA                 D-55099 Mainz, Germany
 
                       Version 2.00beta
 
                     wob126                                            
                     Wed Mar 28 17:54:47 EDT 2018                      
                     integer*8 version is running
 
********************************************************************************
*                          Input from ZMAT file                                *
********************************************************************************
TITLE                                                                           
B                                                                               
                                                                                
*ACES2(CALC=CCSD                                                                
INPUT_MRCC=OFF                                                                  
CC_PROG=MRCC                                                                    
XFORM_TOL=18                                                                    
SAVE_INTS=ON                                                                    
SCF_EXPORDER=6                                                                  
SCF_EXPSTART=5                                                                  
#SCF_DAMPING=1000                                                               
SCF_EXTRAPOLATION=ON                                                            
SCF_CONV=10                                                                     
SCF_MAXCYC=9999                                                                 
CC_CONV=10                                                                      
CC_MAXCYC=999                                                                   
T3_EXTRAPOL=ON                                                                  
REFERENCE=RHF                                                                   
CHARGE=+1                                                                       
MULT=1                                                                          
ABCDTYPE=STANDARD                                                               
OCCUPATION=2-0-0-0-0-0-0-0                                                      
MEM=32                                                                          
MEM_UNIT=GB                                                                     
BASIS=SPECIAL)                                                                  
                                                                                
B:aug-cc-pCV5Z                                                                  
                                                                                
********************************************************************************
  @GTFLGS-W, Keyword #SCF_DAMPING not known and is ignored.
    -------------------------------------------------------------------
                    CFOUR Control Parameters 
    -------------------------------------------------------------------
        External           Internal           Value            Units
          Name               Name
    -------------------------------------------------------------------
       ABCDTYPE             IABCDT         STANDARD     [  0]   ***   
       ANHARMONIC           IANHAR         OFF          [  0]   ***   
       ANH_ALGORIT          IANALG         STANDARD     [  0]   ***   
       ANH_DERIVAT          IANDER         SECOND       [  1]   ***   
       ANH_STEPSIZ          ICUBST             50000          x 10-6  
       ANH_SYMMETR          IANHSM         ABELIAN      [  0]   ***   
       AO_LADDERS           IAOLAD         SINGLEPASS   [  1]   ***   
       BASIS                IBASIS         SPECIAL      [  0]   ***   
       BREIT                IBREIT         OFF          [  0]   ***   
       BRUCK_CONV           IBRTOL          10D-  4             ***   
       BRUECKNER            IBRKNR             OFF      [  0]   ***   
       BUFFERSIZE           IBUFFS            600               ***   
       CACHE_RECS           ICHREC             10               ***   
       CALCLEVEL            ICLLVL           CCSD       [ 10]   ***   
       CCORBOPT             ICCORB             OFF      [  0] x 0.01  
       CC_CONV              ICCCNV          10D- 10             ***   
       CC_EXPORDER          ICCEOR              5               ***   
       CC_EXTRAPOL          ICCEXT             DIIS     [  1]   ***   
       CC_MAXCYC            ICCCYC            999              cycles 
       CC_PROGRAM           ICCPRO         MRCC         [  2]   ***   
       CHARGE               ICHRGE              1               ***   
       CHOLESKY             ICHOLE         OFF          [  0]   ***   
       CIS_CONV             ICISTL              5               ***   
       COMM_SIZE            IPSIZE            ***               ***   
       CONSTANT             ICONST         OLD          [  1]   ***   
       CONTINUUM            ICONTU         NONE         [  0]   ***   
       CONTRACTION          ICNTYP          GENERAL     [  1]   ***   
       COORDINATES          ICOORD         INTERNAL     [  0]   ***   
       CPHF_CONVER          ICPHFT          10D- 16             ***   
       CPHF_MAXCYC          ICPHFC             64              cycles 
       CUBIC                ICUBIC         OFF          [  0]   ***   
       CURVILINEAR          ICURVY            OFF       [  0]   ***   
       DBOC                 IDBOC          OFF          [  0]   ***   
       DCT                  IDCT           OFF          [  0]   ***   
       DERIV_LEV            IDRLVL            ZERO      [  0]   ***   
       DIAG_MRCC            IEOMST          10D-  0             ***   
       DIFF_TYPE            IDIFTY         RELAXED      [  0]   ***   
       DIRECT               IDIRCT         OFF          [  0]   ***   
       DROPMO               IDRPMO      NONE         
       ECP                  IECP           OFF          [  0]   ***   
       EIGENVECTOR          IVEC                1               ***   
       EL_ANHARM            IELANH         OFF          [  0]   ***   
       EOMFOLLOW            IEOMSR         ENERGY       [  0]   ***   
       EOM_MRCC             IMRCCE         NEW          [  1]   ***   
       EOM_NONIT            EOMNON         OFF          [  0]   ***   
       EOM_NSING            IEOMSI          10D-  0             ***   
       EOM_NSTATES          IMRCCD         DAVIDSON     [  0]   ***   
       EOM_NTRIP            IEOMTR          10D-  0             ***   
       EOM_ORDER            IEXORD         ENERGY       [  0]   ***   
       ESTATE_CONV          IEXTOL          10D-  5             ***   
       ESTATE_DIAG          IEXDIG         ITERATIVE    [  0]   ***   
       ESTATE_LOCK          IESLOC         ON           [  1]   ***   
       ESTATE_MAXC          IEXMXC             20               ***   
       ESTATE_PROP          IEXPRP         OFF          [  0]   ***   
       EVAL_HESS            IRECAL              0            # of cyc.
       EXCITATION           IEXCIT              0               ***   
       EXCITE               IEXCIT         NONE         [  0]   ***   
       FCGRADNEW            IFCGNW         OFF          [  0]   ***   
       FC_FIELD             IFINFC              0             x 10-6  
       FD_CALTYPE           IFDCAL         GRADONLY     [  0]   ***   
       FD_PROJECT           IFDPRJ         OFF          [  1]   ***   
       FD_STEPSIZE          IDISFD              0            10-4 bohr
       FD_USEGROUP          IFDGRP         FULL         [  0]   ***   
       FILE_RECSIZ          IFLREC              4096           words  
       FINITE_PERT          IFIPER              0             x 10-6  
       FIXGEOM              IFIXGM         OFF          [  0]   ***   
       FOCK                 IFOCK          AO           [  1]   ***   
       FREQ_ALGORI          IVIALG         STANDARD     [  0]   ***   
       FROZEN_CORE          IFROCO         OFF          [  0]   ***   
       FROZEN_VIRT          IFROVI         OFF          [  0]   ***   
       GAMMA_ABCD           IGABCD         STORE        [  0]   ***   
       GAMMA_ABCI           IGABCI         STORE        [  0]   ***   
       GENBAS_1             IGNBS1              0               ***   
       GENBAS_2             IGNBS2              0               ***   
       GENBAS_3             IGNBS3              0               ***   
       GENBAS_4             IGNBS4              0               ***   
       GEO_CONV             ICONTL              5              H/bohr 
       GEO_MAXCYC           IOPTCY             50               ***   
       GEO_MAXSTEP          IMXSTP            300            millibohr
       GEO_METHOD           INR            SINGLE_POINT [  5]   ***   
       GIAO                 IGIAO          OFF          [  1]   ***   
       GIMIC                IGIMIC         OFF          [  0]   ***   
       GRID                 IGRID          OFF          [  0]   ***   
       GRID_ALGO            IGALGO         SERIAL       [  0]   ***   
       GUESS                IGUESS            MOREAD    [  0]   ***   
       HBAR                 IHBAR              OFF      [  0]   ***   
       HESS_TYPE            IHESTP         SCF          [  0]   ***   
       HF2_FILE             IHF2Fl         USE          [  1]   ***   
       HFSTABILITY          ISTABL         OFF          [  0]   ***   
       INCORE               INCORE             OFF      [  0]   ***   
       INPUT_MRCC           IMRCC          OFF          [  0]   ***   
       INTEGRALS            INTTYP             VMOL     [  1]   ***   
       JODA_PRINT           IJPRNT              0               ***   
       LINDEP_TOL           ILINDP              8               ***   
       LINEQ_CONV           IZTACN          10D-  7           cycles  
       LINEQ_EXPOR          ILMAXD              5               ***   
       LINEQ_MAXCY          ILMAXC             50               ***   
       LINEQ_TYPE           ILTYPE         DIIS         [  1]   ***   
       LOCK_ORBOCC          ILOCOC             OFF      [  0]   ***   
       MEMORY_SIZE          IMEMSZ         *********           words  
       MEM_UNIT             IMEMU          GB           [  3]   ***   
       MRCC                 IMRCCC         OFF          [  0]   ***   
       MULTIPLICTY          IMULTP              1               ***   
       NEGEVAL              IDIE             ABORT      [  0]   ***   
       NEWNORM              INEWNO         OFF          [  0]   ***   
       NON-HF               INONHF             OFF      [  0]   ***   
       NTOP_TAMP            ITOPT2             15               ***   
       NUC_MODEL            INUCMO         POINT        [  0]   ***   
       OCCUPATION           IOCCU    2,  0,  0,  0,  0,  0,  0,  0,
       OPEN-SHELL           IOPEN          SPIN-ORBITAL [  0]   ***   
       ORBITALS             IORBTP           STANDARD   [  0]   ***   
       PARALLEL             IPARAL         ON           [  1]   ***   
       PARA_INT             IPINTS         ON           [  1]   ***   
       PARA_PRINT           IPPRIN              0               ***   
       PERT_ORB             IPTORB         STANDARD     [  0]   ***   
       POINTS               IGRDFD              0               ***   
       PRINT                IPRNT               0               ***   
       PROPS                IPROPS             OFF      [  0]   ***   
       PROP_INTEGR          IINTYP         INTERNAL     [  0]   ***   
       PSI                  IPSI           OFF          [  0]   ***   
       QUARTIC              IQUART         OFF          [  0]   ***   
       RAMAN_INT            IRAMIN         OFF          [  0]   ***   
       RAMAN_ORB            IRAMRE         UNRELAXED    [  0]   ***   
       RDO                  IRDOFM             OFF      [  0]   ***   
       REFERENCE            IREFNC             RHF      [  0]   ***   
       RELATIVIST           IRELAT         OFF          [  0]   ***   
       RELAX_DENS           IRDENS             OFF      [  0]   ***   
       RESET_FLAGS          IRESET             OFF      [  0]   ***   
       RESTART_CC           ICCRES         OFF          [  0]   ***   
       ROT_EVEC             ROTVEC              0               ***   
       SAVE_INTS            ISVINT              ON      [  1]   ***   
       SCALE_ON             ISTCRT              0               ***   
       SCF_CONV             ISCFCV          10D- 10             ***   
       SCF_DAMPING          IDAMP               0             x 10-3  
       SCF_EXPORDE          IRPPOR              6               ***   
       SCF_EXPSTAR          IRPPLS              5               ***   
       SCF_EXTRAPO          IRPP                ON      [  1]   ***   
       SCF_MAXCYC           ISCFCY            ***              cycles 
       SCF_NOSTOP           ISCFST         OFF          [  0]   ***   
       SCF_PRINT            ISCFPR              0               ***   
       SD_FIELD             IFINSD              0             x 10-6  
       SEQUENCE             ISEQUE         OFF          [  0]   ***   
       SOPERT               IPERSO         OFF          [  0]   ***   
       SPHERICAL            IDFGHI             ON       [  1]   ***   
       SPINORBIT            ISOCAL         OFF          [  0]   ***   
       SPINROTATIO          ISRCON         OFF          [  0]   ***   
       SPIN_FLIP            ISPFLP         OFF          [  0]   ***   
       SPIN_ORBIT           ISPORB         OFF          [  0]   ***   
       SPIN_SCAL            ISCSMP         OFF          [  0]   ***   
       SUBGROUP             ISUBGP         DEFAULT      [  0]   ***   
       SUBGRPAXIS           ISBXYZ         X            [  0]   ***   
       SYMMETRY             ISYM             ON         [  0]   ***   
       SYM_CHECK            ISYMCK         OVERRIDE     [  1]   ***   
       T3_EXTRAPOL          IT3EXT         ON           [  1]   ***   
       TAMP_SUM             IEVERY              5               ***   
       TESTSUITE            ITESTS         OFF          [  0]   ***   
       THERMOCH             ITHERM         OFF          [  0]   ***   
       TOL_CHOLESK          ITOLCH          10D-  4             ***   
       TRANGRAD             IRESRM         OFF          [  0]   ***   
       TRANS_INV            ITRAIN         USE          [  0]   ***   
       TREAT_PERT           ITREAT         SIMULTANEOUS [  0]   ***   
       UIJ_THRESHO          IUIJTH              1               ***   
       UNITS                IUNITS         ANGSTROM     [  0]   ***   
       UNOS                 IUNOS          OFF          [  0]   ***   
       UPDATE_HESS          IHUPDT         ON           [  1]   ***   
       VIBPHASE             ISETPH         STANDARD     [  0]   ***   
       VIBRATION            IVIB              NO        [  0]   ***   
       VIB_ALGORIT          IGEALG         STANDARD     [  0]   ***   
       VNATORB              IVNORB         OFF          [  0]   ***   
       VTRAN                IVTRAN         FULL/PARTIAL [  0]   ***   
       XFIELD               IXEFLD              0             x 10-6  
       XFORM_TOL            IXFTOL          10D- 18             ***   
       YFIELD               IYEFLD              0             x 10-6  
       ZFIELD               IZEFLD              0             x 10-6  
    -------------------------------------------------------------------
   1 entries found in Z-matrix 
   Job Title : TITLE                                                                           
  1  B          5    11.00931
 factor:   60.1997200000000     
   Rotational constants (in cm-1): 

   Rotational constants (in MHz): 

********************************************************************************
   The full molecular point group is I h .
   The largest Abelian subgroup of the full molecular point group is D2h .
   The computational point group is D2h .
********************************************************************************
  @GTFLGS-W, Keyword #SCF_DAMPING not known and is ignored.
  There are  181 basis functions.
 @GEOPT-W, Archive file not created for single-point calculation.
  @CHECKOUT-I, Total execution time (CPU/WALL):        0.24/       1.70 seconds.
--executable xjoda finished with status     0 in        1.78 seconds (walltime).
 --invoking executable--
/home/nike/cfour_v2.00beta/bin/xvmol
 Serial version of molecule started
********************************************************************************
                    Input from MOL file
********************************************************************************
INTGRL        1    0    1    0    0    0    0    0    0                         
         *** CFOUR Program System (Release V0.1) ***                            
TITLE                                                                           
    1    3 X  Y   Z   0.10E-08              0    0                              
   9999.00      3.00                                                            
          5.00000000    1    6    1    1    1    1    1    1                    
B #1   0.000000000000000   0.000000000000000   0.000000000000000                
   19   11                                                                      
   68260.0000000000       2.400000000000000E-005 -5.000000000000000E-006        
  0.000000000000000E+000  0.000000000000000E+000  0.000000000000000E+000        
  0.000000000000000E+000  0.000000000000000E+000  0.000000000000000E+000        
  0.000000000000000E+000  0.000000000000000E+000  0.000000000000000E+000        
   10230.0000000000       1.850000000000000E-004 -3.700000000000000E-005        
  0.000000000000000E+000  0.000000000000000E+000  0.000000000000000E+000        
  0.000000000000000E+000  0.000000000000000E+000  0.000000000000000E+000        
  0.000000000000000E+000  0.000000000000000E+000  0.000000000000000E+000        
   2328.00000000000       9.700000000000001E-004 -1.960000000000000E-004        
  0.000000000000000E+000  0.000000000000000E+000  0.000000000000000E+000        
  0.000000000000000E+000  0.000000000000000E+000  0.000000000000000E+000        
  0.000000000000000E+000  0.000000000000000E+000  0.000000000000000E+000        
   660.400000000000       4.056000000000000E-003 -8.240000000000000E-004        
  0.000000000000000E+000  0.000000000000000E+000  0.000000000000000E+000        
  0.000000000000000E+000  0.000000000000000E+000  0.000000000000000E+000        
  0.000000000000000E+000  0.000000000000000E+000  0.000000000000000E+000        
   216.200000000000       1.439900000000000E-002 -2.923000000000000E-003        
  0.000000000000000E+000  0.000000000000000E+000  0.000000000000000E+000        
  0.000000000000000E+000  0.000000000000000E+000  0.000000000000000E+000        
  0.000000000000000E+000  0.000000000000000E+000  0.000000000000000E+000        
   78.6000000000000       4.390100000000000E-002 -9.138000000000000E-003        
  0.000000000000000E+000  0.000000000000000E+000  0.000000000000000E+000        
  0.000000000000000E+000  0.000000000000000E+000  0.000000000000000E+000        
  0.000000000000000E+000  0.000000000000000E+000  0.000000000000000E+000        
   30.9800000000000       0.113057000000000      -2.410500000000000E-002        
  0.000000000000000E+000  0.000000000000000E+000  0.000000000000000E+000        
  0.000000000000000E+000  0.000000000000000E+000  0.000000000000000E+000        
  0.000000000000000E+000  0.000000000000000E+000  0.000000000000000E+000        
   12.9600000000000       0.233825000000000      -5.475500000000000E-002        
  0.000000000000000E+000  0.000000000000000E+000  0.000000000000000E+000        
  0.000000000000000E+000  0.000000000000000E+000  0.000000000000000E+000        
  0.000000000000000E+000  0.000000000000000E+000  0.000000000000000E+000        
   5.65900000000000       0.353960000000000      -9.694300000000000E-002        
  0.000000000000000E+000  0.000000000000000E+000  0.000000000000000E+000        
  0.000000000000000E+000  0.000000000000000E+000  0.000000000000000E+000        
  0.000000000000000E+000  0.000000000000000E+000  0.000000000000000E+000        
   2.55600000000000       0.301547000000000      -0.137485000000000             
  0.000000000000000E+000  0.000000000000000E+000  0.000000000000000E+000        
  0.000000000000000E+000  0.000000000000000E+000  0.000000000000000E+000        
  0.000000000000000E+000  0.000000000000000E+000  0.000000000000000E+000        
   1.17500000000000       8.752100000000000E-002 -4.456500000000000E-002        
   1.00000000000000       0.000000000000000E+000  0.000000000000000E+000        
  0.000000000000000E+000  0.000000000000000E+000  0.000000000000000E+000        
  0.000000000000000E+000  0.000000000000000E+000  0.000000000000000E+000        
  0.424900000000000       2.819000000000000E-003  0.324345000000000             
  0.000000000000000E+000   1.00000000000000       0.000000000000000E+000        
  0.000000000000000E+000  0.000000000000000E+000  0.000000000000000E+000        
  0.000000000000000E+000  0.000000000000000E+000  0.000000000000000E+000        
  0.171200000000000       4.300000000000000E-005  0.570414000000000             
  0.000000000000000E+000  0.000000000000000E+000   1.00000000000000             
  0.000000000000000E+000  0.000000000000000E+000  0.000000000000000E+000        
  0.000000000000000E+000  0.000000000000000E+000  0.000000000000000E+000        
  6.913000000000000E-002  7.800000000000000E-005  0.243444000000000             
  0.000000000000000E+000  0.000000000000000E+000  0.000000000000000E+000        
   1.00000000000000       0.000000000000000E+000  0.000000000000000E+000        
  0.000000000000000E+000  0.000000000000000E+000  0.000000000000000E+000        
   6.41100000000000       0.000000000000000E+000  0.000000000000000E+000        
  0.000000000000000E+000  0.000000000000000E+000  0.000000000000000E+000        
  0.000000000000000E+000   1.00000000000000       0.000000000000000E+000        
  0.000000000000000E+000  0.000000000000000E+000  0.000000000000000E+000        
   14.5210000000000       0.000000000000000E+000  0.000000000000000E+000        
  0.000000000000000E+000  0.000000000000000E+000  0.000000000000000E+000        
  0.000000000000000E+000  0.000000000000000E+000   1.00000000000000             
  0.000000000000000E+000  0.000000000000000E+000  0.000000000000000E+000        
   32.8900000000000       0.000000000000000E+000  0.000000000000000E+000        
  0.000000000000000E+000  0.000000000000000E+000  0.000000000000000E+000        
  0.000000000000000E+000  0.000000000000000E+000  0.000000000000000E+000        
   1.00000000000000       0.000000000000000E+000  0.000000000000000E+000        
   74.4960000000000       0.000000000000000E+000  0.000000000000000E+000        
  0.000000000000000E+000  0.000000000000000E+000  0.000000000000000E+000        
  0.000000000000000E+000  0.000000000000000E+000  0.000000000000000E+000        
  0.000000000000000E+000   1.00000000000000       0.000000000000000E+000        
  2.610000000000000E-002  0.000000000000000E+000  0.000000000000000E+000        
  0.000000000000000E+000  0.000000000000000E+000  0.000000000000000E+000        
  0.000000000000000E+000  0.000000000000000E+000  0.000000000000000E+000        
  0.000000000000000E+000  0.000000000000000E+000   1.00000000000000             
   13   10                                                                      
   66.4400000000000       8.380000000000000E-004  0.000000000000000E+000        
  0.000000000000000E+000  0.000000000000000E+000  0.000000000000000E+000        
  0.000000000000000E+000  0.000000000000000E+000  0.000000000000000E+000        
  0.000000000000000E+000  0.000000000000000E+000                                
   15.7100000000000       6.409000000000000E-003  0.000000000000000E+000        
  0.000000000000000E+000  0.000000000000000E+000  0.000000000000000E+000        
  0.000000000000000E+000  0.000000000000000E+000  0.000000000000000E+000        
  0.000000000000000E+000  0.000000000000000E+000                                
   4.93600000000000       2.808100000000000E-002  0.000000000000000E+000        
  0.000000000000000E+000  0.000000000000000E+000  0.000000000000000E+000        
  0.000000000000000E+000  0.000000000000000E+000  0.000000000000000E+000        
  0.000000000000000E+000  0.000000000000000E+000                                
   1.77000000000000       9.215200000000000E-002  0.000000000000000E+000        
  0.000000000000000E+000  0.000000000000000E+000  0.000000000000000E+000        
  0.000000000000000E+000  0.000000000000000E+000  0.000000000000000E+000        
  0.000000000000000E+000  0.000000000000000E+000                                
  0.700800000000000       0.224164000000000        1.00000000000000             
  0.000000000000000E+000  0.000000000000000E+000  0.000000000000000E+000        
  0.000000000000000E+000  0.000000000000000E+000  0.000000000000000E+000        
  0.000000000000000E+000  0.000000000000000E+000                                
  0.290100000000000       0.369915000000000       0.000000000000000E+000        
   1.00000000000000       0.000000000000000E+000  0.000000000000000E+000        
  0.000000000000000E+000  0.000000000000000E+000  0.000000000000000E+000        
  0.000000000000000E+000  0.000000000000000E+000                                
  0.121100000000000       0.374441000000000       0.000000000000000E+000        
  0.000000000000000E+000   1.00000000000000       0.000000000000000E+000        
  0.000000000000000E+000  0.000000000000000E+000  0.000000000000000E+000        
  0.000000000000000E+000  0.000000000000000E+000                                
  4.973000000000000E-002  0.139086000000000       0.000000000000000E+000        
  0.000000000000000E+000  0.000000000000000E+000   1.00000000000000             
  0.000000000000000E+000  0.000000000000000E+000  0.000000000000000E+000        
  0.000000000000000E+000  0.000000000000000E+000                                
   5.17200000000000       0.000000000000000E+000  0.000000000000000E+000        
  0.000000000000000E+000  0.000000000000000E+000  0.000000000000000E+000        
   1.00000000000000       0.000000000000000E+000  0.000000000000000E+000        
  0.000000000000000E+000  0.000000000000000E+000                                
   13.2250000000000       0.000000000000000E+000  0.000000000000000E+000        
  0.000000000000000E+000  0.000000000000000E+000  0.000000000000000E+000        
  0.000000000000000E+000   1.00000000000000       0.000000000000000E+000        
  0.000000000000000E+000  0.000000000000000E+000                                
   33.8160000000000       0.000000000000000E+000  0.000000000000000E+000        
  0.000000000000000E+000  0.000000000000000E+000  0.000000000000000E+000        
  0.000000000000000E+000  0.000000000000000E+000   1.00000000000000             
  0.000000000000000E+000  0.000000000000000E+000                                
   86.4670000000000       0.000000000000000E+000  0.000000000000000E+000        
  0.000000000000000E+000  0.000000000000000E+000  0.000000000000000E+000        
  0.000000000000000E+000  0.000000000000000E+000  0.000000000000000E+000        
   1.00000000000000       0.000000000000000E+000                                
  1.570000000000000E-002  0.000000000000000E+000  0.000000000000000E+000        
  0.000000000000000E+000  0.000000000000000E+000  0.000000000000000E+000        
  0.000000000000000E+000  0.000000000000000E+000  0.000000000000000E+000        
  0.000000000000000E+000   1.00000000000000                                     
    8    8                                                                      
   2.01000000000000        1.00000000000000       0.000000000000000E+000        
  0.000000000000000E+000  0.000000000000000E+000  0.000000000000000E+000        
  0.000000000000000E+000  0.000000000000000E+000  0.000000000000000E+000        
  0.796000000000000       0.000000000000000E+000   1.00000000000000             
  0.000000000000000E+000  0.000000000000000E+000  0.000000000000000E+000        
  0.000000000000000E+000  0.000000000000000E+000  0.000000000000000E+000        
  0.316000000000000       0.000000000000000E+000  0.000000000000000E+000        
   1.00000000000000       0.000000000000000E+000  0.000000000000000E+000        
  0.000000000000000E+000  0.000000000000000E+000  0.000000000000000E+000        
  0.125000000000000       0.000000000000000E+000  0.000000000000000E+000        
  0.000000000000000E+000   1.00000000000000       0.000000000000000E+000        
  0.000000000000000E+000  0.000000000000000E+000  0.000000000000000E+000        
   7.06600000000000       0.000000000000000E+000  0.000000000000000E+000        
  0.000000000000000E+000  0.000000000000000E+000   1.00000000000000             
  0.000000000000000E+000  0.000000000000000E+000  0.000000000000000E+000        
   19.7210000000000       0.000000000000000E+000  0.000000000000000E+000        
  0.000000000000000E+000  0.000000000000000E+000  0.000000000000000E+000        
   1.00000000000000       0.000000000000000E+000  0.000000000000000E+000        
   55.0420000000000       0.000000000000000E+000  0.000000000000000E+000        
  0.000000000000000E+000  0.000000000000000E+000  0.000000000000000E+000        
  0.000000000000000E+000   1.00000000000000       0.000000000000000E+000        
  4.310000000000000E-002  0.000000000000000E+000  0.000000000000000E+000        
  0.000000000000000E+000  0.000000000000000E+000  0.000000000000000E+000        
  0.000000000000000E+000  0.000000000000000E+000   1.00000000000000             
    6    6                                                                      
   1.21500000000000        1.00000000000000       0.000000000000000E+000        
  0.000000000000000E+000  0.000000000000000E+000  0.000000000000000E+000        
  0.000000000000000E+000                                                        
  0.525000000000000       0.000000000000000E+000   1.00000000000000             
  0.000000000000000E+000  0.000000000000000E+000  0.000000000000000E+000        
  0.000000000000000E+000                                                        
  0.227000000000000       0.000000000000000E+000  0.000000000000000E+000        
   1.00000000000000       0.000000000000000E+000  0.000000000000000E+000        
  0.000000000000000E+000                                                        
   9.99400000000000       0.000000000000000E+000  0.000000000000000E+000        
  0.000000000000000E+000   1.00000000000000       0.000000000000000E+000        
  0.000000000000000E+000                                                        
   33.0900000000000       0.000000000000000E+000  0.000000000000000E+000        
  0.000000000000000E+000  0.000000000000000E+000   1.00000000000000             
  0.000000000000000E+000                                                        
  8.430000000000000E-002  0.000000000000000E+000  0.000000000000000E+000        
  0.000000000000000E+000  0.000000000000000E+000  0.000000000000000E+000        
   1.00000000000000                                                             
    4    4                                                                      
   1.12400000000000        1.00000000000000       0.000000000000000E+000        
  0.000000000000000E+000  0.000000000000000E+000                                
  0.461000000000000       0.000000000000000E+000   1.00000000000000             
  0.000000000000000E+000  0.000000000000000E+000                                
   24.0200000000000       0.000000000000000E+000  0.000000000000000E+000        
   1.00000000000000       0.000000000000000E+000                                
  0.202000000000000       0.000000000000000E+000  0.000000000000000E+000        
  0.000000000000000E+000   1.00000000000000                                     
    2    2                                                                      
  0.834000000000000        1.00000000000000       0.000000000000000E+000        
  0.384000000000000       0.000000000000000E+000   1.00000000000000             
FINISH                                                                          
 
********************************************************************************
 One- and two-electron integrals over symmetry-adapted AOs are calculated.

  Spherical harmonics are used.
  
  Integrals less than  0.10E-13 are neglected.

  Nuclear repulsion energy :    0.0000000000 a.u.
  required memory for a1 array               20241832  words 
  required memory for a2 array               27939203  words 
 @GETMEM-I,  Allocated     382 MB of main memory.
  @MOLECU-I, One electron integrals (CPU/WALL):        0.24/       0.26 seconds.
  @TWOEL-I,     346664 integrals of symmetry type  I I I I
  @TWOEL-I,    3136110 integrals of symmetry type  I J I J
  @TWOEL-I,    1791201 integrals of symmetry type  I I J J
  @TWOEL-I,    7350466 integrals of symmetry type  I J K L
  @TWOEL-I, Total number of 2-e integrals   12624441.
  @MOLECU-I, Two electron integrals (CPU/WALL):       70.95/      86.36 seconds.
  @CHECKOUT-I, Total execution time (CPU/WALL):       71.30/      86.92 seconds.
--executable xvmol finished with status     0 in       87.02 seconds (walltime).
 --invoking executable--
/home/nike/cfour_v2.00beta/bin/xvmol2ja
 @GETMEM-I,  Allocated   30517 MB of main memory.
  @CHECKOUT-I, Total execution time (CPU/WALL):        0.02/       0.69 seconds.
--executable xvmol2ja finished with status     0 in        0.99 seconds (walltime).
 --invoking executable--
/home/nike/cfour_v2.00beta/bin/xvscf
  There are  181 functions in the AO basis.

  There are 8 irreducible representations.

       Irrep        # of functions
         1                 39
         2                 28
         3                 28
         4                 16
         5                 28
         6                 16
         7                 16
         8                 10


  Parameters for SCF calculation: 
        SCF reference function:  RHF  
  Maximum number of iterations: 9999
     Full symmetry point group: I h 
     Computational point group: D2h 
        Initial density matrix: MOREAD                 
     SCF convergence tolerance: 10**(-10)
  DIIS convergence acceleration:  ON
          Latest start for DIIS:   5
                     DIIS order:   6

     Alpha population by irrep:   2    0    0    0    0    0    0    0
      Beta population by irrep:   2    0    0    0    0    0    0    0


  Memory information:    1989856 words required.
  Fock matrices are constructed from AO integral file.
 @GETMEM-I,  Allocated      15 MB of main memory.
  Initialization and symmetry analysis required      0.002 seconds.

 total no. of electrons in initial guess :  0.000000000000000E+000
  --------------------------------------------------------------------
  Iteration         Total Energy            Largest Density Difference
  --------------------------------------------------------------------
       0             0.000000000000000              0.0000000000D+00
   current occupation vector 
     2  0  0  0  0  0  0  0
     2  0  0  0  0  0  0  0
       1           -23.396336257916332              0.1228277063D+02
   current occupation vector 
     2  0  0  0  0  0  0  0
     2  0  0  0  0  0  0  0
       2           -24.227275844307453              0.8680492455D+01
   current occupation vector 
     2  0  0  0  0  0  0  0
     2  0  0  0  0  0  0  0
       3           -24.237328839650019              0.1018385682D+01
   current occupation vector 
     2  0  0  0  0  0  0  0
     2  0  0  0  0  0  0  0
       4           -24.237544986073779              0.8185552453D-01
   current occupation vector 
     2  0  0  0  0  0  0  0
     2  0  0  0  0  0  0  0
       5           -24.237546992841814              0.6644638351D-02
   current occupation vector 
     2  0  0  0  0  0  0  0
     2  0  0  0  0  0  0  0
       6           -24.237547009618428              0.6345633259D-03
   current occupation vector 
     2  0  0  0  0  0  0  0
     2  0  0  0  0  0  0  0
       7           -24.237547009679190              0.8278844629D-04
   current occupation vector 
     2  0  0  0  0  0  0  0
     2  0  0  0  0  0  0  0
       8           -24.237547009679432              0.1296946599D-05
   current occupation vector 
     2  0  0  0  0  0  0  0
     2  0  0  0  0  0  0  0
       9           -24.237547009679094              0.1289934242D-06
   current occupation vector 
     2  0  0  0  0  0  0  0
     2  0  0  0  0  0  0  0
      10           -24.237547009679187              0.1872442756D-08
   current occupation vector 
     2  0  0  0  0  0  0  0
     2  0  0  0  0  0  0  0
      11           -24.237547009679147              0.1066669419D-08
   current occupation vector 
     2  0  0  0  0  0  0  0
     2  0  0  0  0  0  0  0
      12           -24.237547009679112              0.3724283104D-09
   current occupation vector 
     2  0  0  0  0  0  0  0
     2  0  0  0  0  0  0  0
      13           -24.237547009679222              0.1141282607D-09
   current occupation vector 
     2  0  0  0  0  0  0  0
     2  0  0  0  0  0  0  0
      14           -24.237547009679218              0.3419251549D-09
   current occupation vector 
     2  0  0  0  0  0  0  0
     2  0  0  0  0  0  0  0
      15           -24.237547009679204              0.6821627707D-09
   current occupation vector 
     2  0  0  0  0  0  0  0
     2  0  0  0  0  0  0  0

  SCF has converged.

 Density matrix saved to file den.dat
 total electron number:   3.99999999999988     
     E(SCF)=       -24.237547009679027              0.6419975662D-10

  Eigenvector printing suppressed.

 @PUTMOS-I, Writing converged MOs to NEWMOS. 
 @PUTMOS-I, Symmetry   1 Full Blocks  9 Partial Blocksize   3
 @PUTMOS-I, Symmetry   2 Full Blocks  7 Partial Blocksize   0
 @PUTMOS-I, Symmetry   3 Full Blocks  7 Partial Blocksize   0
 @PUTMOS-I, Symmetry   4 Full Blocks  4 Partial Blocksize   0
 @PUTMOS-I, Symmetry   5 Full Blocks  7 Partial Blocksize   0
 @PUTMOS-I, Symmetry   6 Full Blocks  4 Partial Blocksize   0
 @PUTMOS-I, Symmetry   7 Full Blocks  4 Partial Blocksize   0
 @PUTMOS-I, Symmetry   8 Full Blocks  2 Partial Blocksize   2
  @PRJDEN-I, Basis set contains h and/or higher angular momentum functions.
             Analysis of density matrix symmetry not available.
             Check irreps of the molecular orbitals in the full point group
             for presence of an asymmetric solution.

 
  ORBITAL EIGENVALUES (ALPHA)  (1H = 27.2113838 eV)

       MO #        E(hartree)               E(eV)           FULLSYM    COMPSYM
       ----   --------------------   --------------------   -------   ---------
    1     1          -8.1859470829        -222.7509479998      Ag        Ag (1)
    2     2          -0.8738318019         -23.7781725559      Ag        Ag (1)
  +++++++++++++++++++++++++++++++++++++++++++++++++++++++++++++++++++++++++++++
    3    40          -0.2759218691          -7.5082158837     T1u       B2u (2)
    4    68          -0.2759218691          -7.5082158837     T1u       B3u (3)
    5   112          -0.2759218691          -7.5082158837     T1u       B1u (5)
    6     3          -0.1121826961          -3.0526464003      Ag        Ag (1)
    7   113          -0.0781116981          -2.1255273980     T1u       B1u (5)
    8    41          -0.0781116981          -2.1255273980     T1u       B2u (2)
    9    69          -0.0781116981          -2.1255273980     T1u       B3u (3)
   10   156          -0.0294914478          -0.8025031048      Hg       B2g (7)
   11    96          -0.0294914478          -0.8025031048      Hg       B1g (4)
   12   140          -0.0294914478          -0.8025031048      Hg       B3g (6)
   13     4          -0.0294914478          -0.8025031048      Hg        Ag (1)
   14     5          -0.0294914478          -0.8025031048      Hg        Ag (1)
   15    70           0.0214860210           0.5846643635     T1u       B3u (3)
   16   114           0.0214860210           0.5846643635     T1u       B1u (5)
   17    42           0.0214860210           0.5846643635     T1u       B2u (2)
   18     6           0.0764705514           2.0808695247      Ag        Ag (1)
   19   115           0.1550273056           4.2185075141       u       B1u (5)
   20    71           0.1550273056           4.2185075141       u       B3u (3)
   21    43           0.1550273056           4.2185075141       u       B2u (2)
   22   172           0.1550273056           4.2185075141       u        Au (8)
   23    72           0.1550273056           4.2185075141       u       B3u (3)
   24   116           0.1550273056           4.2185075141       u       B1u (5)
   25    44           0.1550273056           4.2185075141       u       B2u (2)
   26    97           0.1975808749           5.3764490236      Hg       B1g (4)
   27   157           0.1975808749           5.3764490236      Hg       B2g (7)
   28     7           0.1975808749           5.3764490236      Hg        Ag (1)
   29   141           0.1975808749           5.3764490236      Hg       B3g (6)
   30     8           0.1975808749           5.3764490236      Hg        Ag (1)
   31    45           0.3783041226          10.2941786799     T1u       B2u (2)
   32    73           0.3783041226          10.2941786799     T1u       B3u (3)
   33   117           0.3783041226          10.2941786799     T1u       B1u (5)
   34    98           0.7554421170          20.5566253986       g       B1g (4)
   35   142           0.7554421170          20.5566253986       g       B3g (6)
   36   143           0.7554421170          20.5566253986       g       B3g (6)
   37     9           0.7554421170          20.5566253986       g        Ag (1)
   38    99           0.7554421170          20.5566253986       g       B1g (4)
   39   158           0.7554421170          20.5566253986       g       B2g (7)
   40   159           0.7554421170          20.5566253986       g       B2g (7)
   41    10           0.7554421170          20.5566253986       g        Ag (1)
   42    11           0.7554421170          20.5566253986       g        Ag (1)
   43    46           0.7676855371          20.8897858018       u       B2u (2)
   44   173           0.7676855371          20.8897858018       u        Au (8)
   45    74           0.7676855371          20.8897858018       u       B3u (3)
   46   118           0.7676855371          20.8897858018       u       B1u (5)
   47    47           0.7676855371          20.8897858018       u       B2u (2)
   48   119           0.7676855371          20.8897858018       u       B1u (5)
   49    75           0.7676855371          20.8897858018       u       B3u (3)
   50    12           0.8063178749          21.9410251743      Ag        Ag (1)
   51   160           0.8381244853          22.8065270567      Hg       B2g (7)
   52   100           0.8381244853          22.8065270567      Hg       B1g (4)
   53    13           0.8381244853          22.8065270567      Hg        Ag (1)
   54   144           0.8381244853          22.8065270567      Hg       B3g (6)
   55    14           0.8381244853          22.8065270567      Hg        Ag (1)
   56    76           1.4183957949          38.5965123834     T1u       B3u (3)
   57    48           1.4183957949          38.5965123834     T1u       B2u (2)
   58   120           1.4183957949          38.5965123834     T1u       B1u (5)
   59    49           1.9929315141          54.2304243553               B2u (2)
   60   121           1.9929315141          54.2304243553               B1u (5)
   61    77           1.9929315141          54.2304243553               B3u (3)
   62    78           1.9929315141          54.2304243553               B3u (3)
   63   174           1.9929315141          54.2304243553                Au (8)
   64    50           1.9929315141          54.2304243553               B2u (2)
   65   122           1.9929315141          54.2304243553               B1u (5)
   66   175           1.9929315141          54.2304243553                Au (8)
   67    51           1.9929315141          54.2304243553               B2u (2)
   68   123           1.9929315141          54.2304243553               B1u (5)
   69    79           1.9929315141          54.2304243553               B3u (3)
   70   176           2.2432779522          61.0426973716       u        Au (8)
   71    52           2.2432779522          61.0426973716       u       B2u (2)
   72    53           2.2432779522          61.0426973716       u       B2u (2)
   73   124           2.2432779522          61.0426973716       u       B1u (5)
   74    80           2.2432779522          61.0426973716       u       B3u (3)
   75   125           2.2432779522          61.0426973716       u       B1u (5)
   76    81           2.2432779522          61.0426973716       u       B3u (3)
   77   145           2.3708907605          64.5152184772       g       B3g (6)
   78   146           2.3708907605          64.5152184772       g       B3g (6)
   79   161           2.3708907605          64.5152184772       g       B2g (7)
   80    15           2.3708907605          64.5152184772       g        Ag (1)
   81   162           2.3708907605          64.5152184772       g       B2g (7)
   82    16           2.3708907605          64.5152184772       g        Ag (1)
   83   101           2.3708907605          64.5152184772       g       B1g (4)
   84   102           2.3708907605          64.5152184772       g       B1g (4)
   85    17           2.3708907605          64.5152184772       g        Ag (1)
   86   163           2.5640548670          69.7714811192      Hg       B2g (7)
   87   103           2.5640548670          69.7714811192      Hg       B1g (4)
   88    18           2.5640548670          69.7714811192      Hg        Ag (1)
   89   147           2.5640548670          69.7714811192      Hg       B3g (6)
   90    19           2.5640548670          69.7714811192      Hg        Ag (1)
   91    20           3.4299612316          93.3339915604      Ag        Ag (1)
   92    54           4.3569831598         118.5595410573     T1u       B2u (2)
   93   126           4.3569831598         118.5595410580     T1u       B1u (5)
   94    82           4.3569831598         118.5595410581     T1u       B3u (3)
   95   127           5.5382675381         150.7039236757               B1u (5)
   96    55           5.5382675381         150.7039236757               B2u (2)
   97   128           5.5382675381         150.7039236757               B1u (5)
   98   177           5.5382675381         150.7039236757                Au (8)
   99    83           5.5382675381         150.7039236757               B3u (3)
  100    56           5.5382675381         150.7039236757               B2u (2)
  101   129           5.5382675381         150.7039236757               B1u (5)
  102   178           5.5382675381         150.7039236757                Au (8)
  103    57           5.5382675381         150.7039236757               B2u (2)
  104    84           5.5382675381         150.7039236757               B3u (3)
  105    85           5.5382675381         150.7039236757               B3u (3)
  106   179           5.8521345108         159.2446783368       u        Au (8)
  107    58           5.8521345108         159.2446783368       u       B2u (2)
  108   130           5.8521345108         159.2446783368       u       B1u (5)
  109    86           5.8521345108         159.2446783368       u       B3u (3)
  110    59           5.8521345108         159.2446783368       u       B2u (2)
  111   131           5.8521345108         159.2446783368       u       B1u (5)
  112    87           5.8521345108         159.2446783368       u       B3u (3)
  113   148           6.3723561658         173.4006294620       g       B3g (6)
  114    21           6.3723561658         173.4006294620       g        Ag (1)
  115   104           6.3723561658         173.4006294620       g       B1g (4)
  116   164           6.3723561658         173.4006294620       g       B2g (7)
  117    22           6.3723561658         173.4006294620       g        Ag (1)
  118   149           6.3723561658         173.4006294620       g       B3g (6)
  119   105           6.3723561658         173.4006294620       g       B1g (4)
  120   165           6.3723561658         173.4006294620       g       B2g (7)
  121    23           6.3723561658         173.4006294620       g        Ag (1)
  122   166           7.2792926674         198.0796267083      Hg       B2g (7)
  123   106           7.2792926674         198.0796267083      Hg       B1g (4)
  124    24           7.2792926674         198.0796267083      Hg        Ag (1)
  125   150           7.2792926674         198.0796267083      Hg       B3g (6)
  126    25           7.2792926674         198.0796267083      Hg        Ag (1)
  127    26          11.4585819234         311.8038707458      Ag        Ag (1)
  128    60          13.3130317815         362.2660176085     T1u       B2u (2)
  129   132          13.3130317816         362.2660176118     T1u       B1u (5)
  130    88          13.3130317816         362.2660176119     T1u       B3u (3)
  131   107          23.7004108848         644.9209772687      Hg       B1g (4)
  132   151          23.7004108848         644.9209772687      Hg       B3g (6)
  133   167          23.7004108848         644.9209772687      Hg       B2g (7)
  134    27          23.7004108848         644.9209772687      Hg        Ag (1)
  135    28          23.7004108848         644.9209772687      Hg        Ag (1)
  136    29          33.4275300229         909.6093495931      Ag        Ag (1)
  137    61          38.7361632100        1054.0646048063       u       B2u (2)
  138    62          38.7361632100        1054.0646048063       u       B2u (2)
  139    89          38.7361632100        1054.0646048063       u       B3u (3)
  140   133          38.7361632100        1054.0646048063       u       B1u (5)
  141   180          38.7361632100        1054.0646048063       u        Au (8)
  142    90          38.7361632100        1054.0646048063       u       B3u (3)
  143   134          38.7361632100        1054.0646048064       u       B1u (5)
  144    63          39.3537024191        1070.8687012488     T1u       B2u (2)
  145   135          39.3537024193        1070.8687012526     T1u       B1u (5)
  146    91          39.3537024193        1070.8687012528     T1u       B3u (3)
  147   152          74.8653893935        2037.1908455899      Hg       B3g (6)
  148    30          74.8653893935        2037.1908455899      Hg        Ag (1)
  149   108          74.8653893935        2037.1908455899      Hg       B1g (4)
  150   168          74.8653893935        2037.1908455899      Hg       B2g (7)
  151    31          74.8653893935        2037.1908455899      Hg        Ag (1)
  152    32          89.4413124095        2433.8218813006      Ag        Ag (1)
  153    64         111.8327811501        3043.1247314877     T1u       B2u (2)
  154   136         111.8327811503        3043.1247314907     T1u       B1u (5)
  155    92         111.8327811503        3043.1247314909     T1u       B3u (3)
  156   169         122.9229787853        3344.9043559736       g       B2g (7)
  157    33         122.9229787853        3344.9043559736       g        Ag (1)
  158   170         122.9229787853        3344.9043559736       g       B2g (7)
  159   153         122.9229787853        3344.9043559736       g       B3g (6)
  160   109         122.9229787853        3344.9043559737       g       B1g (4)
  161   110         122.9229787853        3344.9043559737       g       B1g (4)
  162   154         122.9229787853        3344.9043559737       g       B3g (6)
  163    34         122.9229787853        3344.9043559737       g        Ag (1)
  164    35         122.9229787853        3344.9043559737       g        Ag (1)
  165   181         152.5314390068        4150.5915313666       u        Au (8)
  166   137         152.5314390068        4150.5915313666       u       B1u (5)
  167    65         152.5314390068        4150.5915313666       u       B2u (2)
  168    93         152.5314390068        4150.5915313666       u       B3u (3)
  169    66         152.5314390068        4150.5915313667       u       B2u (2)
  170    94         152.5314390068        4150.5915313667       u       B3u (3)
  171   138         152.5314390068        4150.5915313667       u       B1u (5)
  172   111         230.6845002020        6277.2444762253      Hg       B1g (4)
  173    36         230.6845002020        6277.2444762253      Hg        Ag (1)
  174   155         230.6845002020        6277.2444762253      Hg       B3g (6)
  175   171         230.6845002020        6277.2444762253      Hg       B2g (7)
  176    37         230.6845002020        6277.2444762253      Hg        Ag (1)
  177    38         234.7774063097        6388.6181152588      Ag        Ag (1)
  178    67         317.7767735897        8647.1457550985     T1u       B2u (2)
  179   139         317.7767735898        8647.1457551008     T1u       B1u (5)
  180    95         317.7767735898        8647.1457551010     T1u       B3u (3)
  181    39         814.8117055985       22172.1540617266      Ag        Ag (1)


  VSCF finished.

  @CHECKOUT-I, Total execution time (CPU/WALL):        3.15/       4.78 seconds.
--executable xvscf finished with status     0 in        4.82 seconds (walltime).
 --invoking executable--
/home/nike/cfour_v2.00beta/bin/xvtran
 @GETMEM-I,  Allocated   30517 MB of main memory.
  Full RHF integral transformation
  Transformation of IIII integrals :
  1 pass through the AO integral file was required.
      346664 AO integrals were read.
      581941 MO integrals were written to HF2.
  Transformation of IIJJ integrals :
  1 pass through the AO integral file was required.
     1791201 AO integrals were read.
     2447549 MO integrals were written to HF2.
  Transformation of IJIJ integrals :
  1 pass through the AO integral file was required.
     3136110 AO integrals were read.
     4535270 MO integrals were written to HF2.
  Transformation of IJKL integrals :
  1 pass through the AO integral file was required.
     7350466 AO integrals were read.
     9564672 MO integrals were written to HF2.
  Summary of active molecular orbitals: 
------------------------------------------------------------------------
 
  Index      Eigenvalue    Symmetry    Index      Eigenvalue    Symmetry
------------------------------------------------------------------------
     1        -8.1859471        1        92       111.8327812        3
     2        -0.8738318        1        93       152.5314390        3
     3        -0.1121827        1        94       152.5314390        3
     4        -0.0294914        1        95       317.7767736        3
     5        -0.0294914        1        96        -0.0294914        4
     6         0.0764706        1        97         0.1975809        4
     7         0.1975809        1        98         0.7554421        4
     8         0.1975809        1        99         0.7554421        4
     9         0.7554421        1       100         0.8381245        4
    10         0.7554421        1       101         2.3708908        4
    11         0.7554421        1       102         2.3708908        4
    12         0.8063179        1       103         2.5640549        4
    13         0.8381245        1       104         6.3723562        4
    14         0.8381245        1       105         6.3723562        4
    15         2.3708908        1       106         7.2792927        4
    16         2.3708908        1       107        23.7004109        4
    17         2.3708908        1       108        74.8653894        4
    18         2.5640549        1       109       122.9229788        4
    19         2.5640549        1       110       122.9229788        4
    20         3.4299612        1       111       230.6845002        4
    21         6.3723562        1       112        -0.2759219        5
    22         6.3723562        1       113        -0.0781117        5
    23         6.3723562        1       114         0.0214860        5
    24         7.2792927        1       115         0.1550273        5
    25         7.2792927        1       116         0.1550273        5
    26        11.4585819        1       117         0.3783041        5
    27        23.7004109        1       118         0.7676855        5
    28        23.7004109        1       119         0.7676855        5
    29        33.4275300        1       120         1.4183958        5
    30        74.8653894        1       121         1.9929315        5
    31        74.8653894        1       122         1.9929315        5
    32        89.4413124        1       123         1.9929315        5
    33       122.9229788        1       124         2.2432780        5
    34       122.9229788        1       125         2.2432780        5
    35       122.9229788        1       126         4.3569832        5
    36       230.6845002        1       127         5.5382675        5
    37       230.6845002        1       128         5.5382675        5
    38       234.7774063        1       129         5.5382675        5
    39       814.8117056        1       130         5.8521345        5
    40        -0.2759219        2       131         5.8521345        5
    41        -0.0781117        2       132        13.3130318        5
    42         0.0214860        2       133        38.7361632        5
    43         0.1550273        2       134        38.7361632        5
    44         0.1550273        2       135        39.3537024        5
    45         0.3783041        2       136       111.8327812        5
    46         0.7676855        2       137       152.5314390        5
    47         0.7676855        2       138       152.5314390        5
    48         1.4183958        2       139       317.7767736        5
    49         1.9929315        2       140        -0.0294914        6
    50         1.9929315        2       141         0.1975809        6
    51         1.9929315        2       142         0.7554421        6
    52         2.2432780        2       143         0.7554421        6
    53         2.2432780        2       144         0.8381245        6
    54         4.3569832        2       145         2.3708908        6
    55         5.5382675        2       146         2.3708908        6
    56         5.5382675        2       147         2.5640549        6
    57         5.5382675        2       148         6.3723562        6
    58         5.8521345        2       149         6.3723562        6
    59         5.8521345        2       150         7.2792927        6
    60        13.3130318        2       151        23.7004109        6
    61        38.7361632        2       152        74.8653894        6
    62        38.7361632        2       153       122.9229788        6
    63        39.3537024        2       154       122.9229788        6
    64       111.8327812        2       155       230.6845002        6
    65       152.5314390        2       156        -0.0294914        7
    66       152.5314390        2       157         0.1975809        7
    67       317.7767736        2       158         0.7554421        7
    68        -0.2759219        3       159         0.7554421        7
    69        -0.0781117        3       160         0.8381245        7
    70         0.0214860        3       161         2.3708908        7
    71         0.1550273        3       162         2.3708908        7
    72         0.1550273        3       163         2.5640549        7
    73         0.3783041        3       164         6.3723562        7
    74         0.7676855        3       165         6.3723562        7
    75         0.7676855        3       166         7.2792927        7
    76         1.4183958        3       167        23.7004109        7
    77         1.9929315        3       168        74.8653894        7
    78         1.9929315        3       169       122.9229788        7
    79         1.9929315        3       170       122.9229788        7
    80         2.2432780        3       171       230.6845002        7
    81         2.2432780        3       172         0.1550273        8
    82         4.3569832        3       173         0.7676855        8
    83         5.5382675        3       174         1.9929315        8
    84         5.5382675        3       175         1.9929315        8
    85         5.5382675        3       176         2.2432780        8
    86         5.8521345        3       177         5.5382675        8
    87         5.8521345        3       178         5.5382675        8
    88        13.3130318        3       179         5.8521345        8
    89        38.7361632        3       180        38.7361632        8
    90        38.7361632        3       181       152.5314390        8
    91        39.3537024        3
------------------------------------------------------------------------
  @CHECKOUT-I, Total execution time (CPU/WALL):       13.73/      47.69 seconds.
--executable xvtran finished with status     0 in       47.72 seconds (walltime).
 --invoking executable--
/home/nike/cfour_v2.00beta/bin/xintprc
 @GETMEM-I,  Allocated   30517 MB of main memory.
  Processing integrals for CCSD calculation.
  @GMOIAA-I, Processing MO integrals for spin case AA.
  @GMOIAA-I, Generation of integral list completed.
                      TYPE                NUMBER
                      ----               --------
                      PPPP              16366991
                      PPPH                745704
                      PPHH                  9357
                      PHPH                  7152
                      PHHH                   222
                      HHHH                     6

                     TOTAL              17129432

  @FORMT2-I, Second-order MP correlation energies:
            ------------------------------------------------
            E(SCF)                  =    -24.237547009679 a.u.
            E2(AA)                  =     -0.000995908545 a.u.
            E2(AB)                  =     -0.084176621877 a.u.
            E2(TOT)                 =     -0.086168438968 a.u.
            Total MP2 energy        =    -24.323715448647 a.u.
            ------------------------------------------------
   Largest T2 amplitudes for spin case AB:
       _       _                 _       _                 _       _
   i   j   a   b             i   j   a   b             i   j   a   b
-----------------------------------------------------------------------------
[  2   2  68  68]-0.07494 [  2   2 112 112]-0.07494 [  2   2  40  40]-0.07494
[  2   2  42  40]-0.01849 [  2   2  40  42]-0.01849 [  2   2  70  68]-0.01849
[  2   2  68  70]-0.01849 [  2   2 114 112]-0.01849 [  2   2 112 114]-0.01849
[  2   2  41  40]-0.01448 [  2   2  40  41]-0.01448 [  2   2 113 112]-0.01448
[  2   2 112 113]-0.01448 [  2   2  69  68]-0.01448 [  2   2  68  69]-0.01448
-----------------------------------------------------------------------------
   Norm of T2AB vector (    18356 symmetry allowed elements):  0.1607203814.
-----------------------------------------------------------------------------
  @CHECKOUT-I, Total execution time (CPU/WALL):        5.30/      45.75 seconds.
--executable xintprc finished with status     0 in      140.44 seconds (walltime).
 --invoking executable--
/home/nike/cfour_v2.00beta/bin/xint
 @GETMEM-I,  Allocated   30517 MB of main memory.
  @CHECKOUT-I, Total execution time (CPU/WALL):      199.03/     728.08 seconds.
--executable xint finished with status     0 in      730.44 seconds (walltime).
 --invoking executable--
/home/nike/MRCC/dmrcc
 **********************************************************************
                          MRCC program system
 **********************************************************************
 
                              Written by
    Mihaly Kallay, Zoltan Rolik, Jozsef Csontos, Istvan Ladjanszki,
       Lorant Szegedy, Bence Ladoczki, Gyula Samu, Klara Petrov,
        Mate Farkas, Peter Nagy, David Mester, and Bence Hegely
 
        Department of Physical Chemistry and Materials Science
            Budapest University of Technology and Economics
                  Budapest P.O.Box 91, H-1521 Hungary
 
                              www.mrcc.hu

 ************************ 2018-03-28 18:11:41 *************************
 Executing minp...

 Reading input from MINP...
 
 Input file:
 
# B+ 2Z
basis=aug-cc-pCV5Z
iface=cfour
uncontract=off
calc=CC(4)
mem=32GB
core=corr
itol=18
scftol=13
cctol=7
ccmaxit=999
scfmaxit=9999
scfiguess=ao
scftype=RHF
#rohftype=semicanonical
rest=2
#refdet=serialno
#1,2
#3

symm=1
mult=1
charge=+1
occ=2,0,0,0,0,0,0,0/2,0,0,0,0,0,0,0
geom
B

#Li 1 R

#R=3.065

#unit=angstroms

tprint=0.01
verbosity=3
nstate=6

 
 
 Checking keyword combinations...
 
 Keywords:
 
 active=none
 agrid=ld0006-ld0590
 basis=aug-cc-pcv5z
 basopt=off
 bpcompo=0.985
 bpcompv=0.98
 bpdfo=0.985
 bpocc=0.985
 bppdo=0.985
 bppdv=0.98
 bpedo=0.985
 bpedv=0.98
 calc=cc(4)
 ccmaxit=999
 ccprog=mrcc
 cctol=7
 charge=+1
 cialg=disk
 ciguess=off
 cmpgrp=auto
 core=corr
 corembed=off
 dboc=off
 dendec=cholesky
 dens=0
 dfalg=invsqrt
 dfbasis_cor=none
 dfbasis_scf=none
 dfintran=ovirt
 dft=off
 diag=david
 domrad=10.d0
 drpaalg=fit
 ecp=auto
 edisp=off
 embed=off
 epert=none
 eps=0.975
 excrad=0.d0
 excrad_fin=0.000000000D+00
 freq=off
 gauss=spher
 geom=zmat
 gopt=off
 ghost=none
 gtol=7
 grtol=10
 hamilton=dc
 iface=cfour
 intalg=auto
 itol=18
 lcorthr=loose
 lccrest=off
 lmp2dens=on
 lnoepso=3e-5
 lnoepsv=1e-6
 localcc=off
 locintrf=disk
 maxact=off
 maxex=0
 bfbasis=none
 mem=32gb
 molden=on
 mulmet=0
 mult=1
 nacto=0
 nactv=0
 naf_cor=off
 naf_scf=off
 nafalg=albe
 naftyp=
 nchol=auto
 ndeps=1e-3
 nstate=6
 nsing=0
 ntrip=0
 occ=2,0,0,0,0,0,0,0/2,0,0,0,0,0,0,0
 optalg=
 optmaxit=50
 optetol=1e-6
 optgtol=1e-4
 optstol=1e-3
 orblocc=off
 orbloco=off
 orblocv=off
 osveps=1e-3
 ovirt=off
 ovosnorb=80.0
 ptfreq=0.0
 popul=off
 pressure=100000
 qmmm=off
 refdet=none
 rest=2
 rgrid=log3
 rohftype=standard
 scspe=1.d0
 scsps=1.2d0
 scspt=0.33333333333333
 scfalg=auto
 scfdamp=off
 scfdiis=on
 scfdiis_end=9999
 scfdiis_start=1
 scfdiis_step=1
 scfdtol=17
 scfext=10
 scfiguess=ao
 scflshift=off
 scfmaxit=9999
 scftype=rhf
 scftol=13
 spairtol=1e-4
 symm=1
 talg=occ
 temp=298.15
 test=off
 tprint=0.01
 uncontract=off
 unit=angs
 verbosity=3
 wpairtol=0.100000000E-05

 ************************ 2018-03-28 18:11:42 *************************
 Executing goldstone...

 Generation of CC equations in terms of H and T...
 Generation of antisymmetrized Goldstone diagrams...
 Number of diagrams in T^1 equations:    15
 Number of diagrams in T^2 equations:    38
 Number of diagrams in T^3 equations:    53
 Number of diagrams in T^4 equations:    74
 Translation of diagrams to factorized equations...
 Optimizing intermediate calculation...
 Optimizing right-hand EOMCC calculation...
 Number of floating-point operations per iteration step:   3.2303E+12
 Probable CPU time per iteration step (hours):     32.30
 Required memory (Mbytes):  133510.2
 Number of intermediates:                                 249
 Number of intermediates to be stored:                     96
 Length of intermediate file (Mbytes):   18429.5

 ************************ 2018-03-28 18:11:47 *************************
 Executing xmrcc...

 **********************************************************************
 CC(                     4 ) calculation 
 
 
 Allocation of****** Mbytes of memory...
 Number of spinorbitals:                   362
 Number of alpha electrons:                        2
 Number of beta electrons:                         2
 z-component of spin:  0.0
 Spatial symmetry:                      1
 Convergence criterion:  1.0E-07
 Construction of occupation graphs...
 Number of                     0 -fold excitations:                      1
 Number of                     1 -fold excitations:                    148
 Number of                     2 -fold excitations:                  22766
 Number of                     3 -fold excitations:                1464916
 Number of                     4 -fold excitations:               31896445
 Total number of configurations:               33384276
 Calculation of coupling coefficients...
 Length of intermediate file (Mbytes):   11956.8
 
 ======================================================================
 
 ======================================================================
 
 ======================================================================
 
 ======================================================================
 
 ======================================================================
 
 ======================================================================
 
 Memory requirements /Mbyte/: 
               Minimal        Optimal
 Real*8:      63669.0294     68913.1018
 Integer:         7.0977
 Total:       63676.1271     68920.1995
 

 ************************ 2018-03-28 18:11:49 *************************
 Executing goldstone...

 Generation of MRCC equations in terms of H and T...
 Generation of antisymmetrized Goldstone diagrams...
 Number of diagrams in T^1 equations:    15
 Number of diagrams in T^2 equations:    38
 Number of diagrams in T^3 equations:    53
 Number of diagrams in T^4 equations:    74
 Translation of diagrams to factorized equations...
 Number of restricted diagrams in T^1 equations:     30
 Number of restricted diagrams in T^2 equations:    129
 Number of restricted diagrams in T^3 equations:    302
 Number of restricted diagrams in T^4 equations:    633
 Optimizing intermediate calculation...
 Optimizing right-hand EOMCC calculation...
 Number of floating-point operations per iteration step:   9.9319E+11
 Probable CPU time per iteration step (hours):      9.93
 Required memory (Mbytes):  133510.2
 Number of intermediates:                                1040
 Number of intermediates to be stored:                    342
 Length of intermediate file (Mbytes):   10397.8

 ************************ 2018-03-28 18:12:09 *************************
 Executing xmrcc...

 **********************************************************************
 MRCC(                     4 ) calculation 
 
 
 Allocation of****** Mbytes of memory...
 Number of spinorbitals:                   362
 Number of alpha electrons:                        2
 Number of beta electrons:                         2
 Number of active particles:                   180
 Number of active holes:                         0
 z-component of spin:  0.0
 Spatial symmetry:                      1
 Convergence criterion:  1.0E-07
 Construction of occupation graphs...
 Number of                     0 -fold excitations:                      1
 Number of                     1 -fold excitations:                    148
 Number of                     2 -fold excitations:                  22766
 Number of                     3 -fold excitations:                1464916
 Number of                     4 -fold excitations:               31896445
 Total number of configurations:               33384276
 Calculation of coupling coefficients...
 Length of intermediate file (Mbytes):   13583.0
 
 ======================================================================
 
 ======================================================================
 
 ======================================================================
 
 ======================================================================
 
 ======================================================================
 
 ======================================================================
 
 Memory requirements /Mbyte/: 
               Minimal        Optimal
 Real*8:       8035.2001     15911.8113
 Integer:        16.1399
 Total:        8051.3400     15927.9513
 

 ************************ 2018-03-28 18:13:06 *************************
 Executing goldstone...

 Generation of MRCC equations in terms of H and T...
 Generation of antisymmetrized Goldstone diagrams...
 Number of diagrams in T^1 equations:     8
 Translation of diagrams to factorized equations...
 Number of restricted diagrams in T^1 equations:     12
 Optimizing intermediate calculation...
 Optimizing right-hand EOMCC calculation...
 Number of floating-point operations per iteration step:   1.0136E+04
 Probable CPU time per iteration step (hours):      0.00
 Required memory (Mbytes):  133510.2
 Number of intermediates:                                  52
 Number of intermediates to be stored:                     34
 Length of intermediate file (Mbytes):    1172.5

 ************************ 2018-03-28 18:13:07 *************************
 Executing xmrcc...

 **********************************************************************
 MRCC(                     1 ) calculation 
 
 
 Allocation of****** Mbytes of memory...
 Number of spinorbitals:                   362
 Number of alpha electrons:                        2
 Number of beta electrons:                         2
 Number of active particles:                   180
 Number of active holes:                         0
 z-component of spin:  0.0
 Spatial symmetry:                      1
 Convergence criterion:  1.0E-07
 Construction of occupation graphs...
 Number of                     0 -fold excitations:                      1
 Number of                     1 -fold excitations:                    148
 Total number of configurations:                    149
 Calculation of coupling coefficients...
 Length of intermediate file (Mbytes):     933.5
 
 ======================================================================
 
 ======================================================================
 
 ======================================================================
 
 ======================================================================
 
 ======================================================================
 
 ======================================================================
 
 Memory requirements /Mbyte/: 
               Minimal        Optimal
 Real*8:         45.4903      8188.7542
 Integer:         4.5337
 Total:          50.0240      8193.2879
 

 ************************ 2018-03-28 18:13:07 *************************
 Executing mrcc...

 **********************************************************************
 LR-CCS calculation                                                     
 
 
 OpenMP parallel version is running.
 Number of CPUs:  32
 Allocation of 8188.8 Mbytes of memory...
 Number of spinorbitals: 362
 Number of alpha electrons:  2
 Number of beta  electrons:  2
 Number of active particles:                   180
 Number of active holes:                         0
 z-component of spin:  0.0
 Spatial symmetry: 1
 Convergence criterion:  1.0E-07
 Construction of occupation graphs...
 Number of 0-fold excitations: 1
 Number of 1-fold excitations: 148
 Total number of determinants: 149
 Calculation of coupling coefficients...
 Initial cluster amplitudes are generated.
 Length of intermediate file (Mbytes):     933.5
 Reading integral list from unit 55...
 Sorting integrals...
forrtl: severe (174): SIGSEGV, segmentation fault occurred
 
 Fatal error in mrcc.
 Program will stop.
 
 ************************ 2018-03-28 18:19:19 *************************
                   Error at the termination of mrcc.
 **********************************************************************
--executable dmrcc finished with status   256 in      459.13 seconds (walltime).
  This computation required                         1472.52 seconds (walltime).
--- SharcNET Job Epilogue ---
Job completed successfully.
               jobid: 1536826
               resid: 3016877
         exit status: 0
      allocated time: 1473.67
           user time: 718.62
         system time: 36.29
peak rss=16795955200; peak vsz=16795955200 (bytes)
atime=1473.67; utime=718.62; stime=36.29; exit=0

 **********************************************************************
                          MRCC program system
 **********************************************************************
 
                              Written by
    Mihaly Kallay, Zoltan Rolik, Jozsef Csontos, Istvan Ladjanszki,
       Lorant Szegedy, Bence Ladoczki, Gyula Samu, Klara Petrov,
        Mate Farkas, Peter Nagy, David Mester, and Bence Hegely
 
        Department of Physical Chemistry and Materials Science
            Budapest University of Technology and Economics
                  Budapest P.O.Box 91, H-1521 Hungary
 
                              www.mrcc.hu

 ************************ 2018-03-28 19:47:07 *************************
 Executing minp...

 Reading input from MINP...
 
 Input file:
 
# B+ 2Z
basis=aug-cc-pCV5Z
iface=cfour
uncontract=off
calc=CC(4)
mem=128GB
core=corr
itol=18
scftol=13
cctol=7
ccmaxit=999
scfmaxit=9999
scfiguess=ao
scftype=RHF
#rohftype=semicanonical
rest=2
#refdet=serialno
#1,2
#3

symm=1
mult=1
charge=+1
occ=2,0,0,0,0,0,0,0/2,0,0,0,0,0,0,0
geom
B

#Li 1 R

#R=3.065

#unit=angstroms

tprint=0.01
verbosity=3
nstate=6

 
 
 Checking keyword combinations...
 
 Keywords:
 
 active=none
 agrid=ld0006-ld0590
 basis=aug-cc-pcv5z
 basopt=off
 bpcompo=0.985
 bpcompv=0.98
 bpdfo=0.985
 bpocc=0.985
 bppdo=0.985
 bppdv=0.98
 bpedo=0.985
 bpedv=0.98
 calc=cc(4)
 ccmaxit=999
 ccprog=mrcc
 cctol=7
 charge=+1
 cialg=disk
 ciguess=off
 cmpgrp=auto
 core=corr
 corembed=off
 dboc=off
 dendec=cholesky
 dens=0
 dfalg=invsqrt
 dfbasis_cor=none
 dfbasis_scf=none
 dfintran=ovirt
 dft=off
 diag=david
 domrad=10.d0
 drpaalg=fit
 ecp=auto
 edisp=off
 embed=off
 epert=none
 eps=0.975
 excrad=0.d0
 excrad_fin=0.000000000D+00
 freq=off
 gauss=spher
 geom=zmat
 gopt=off
 ghost=none
 gtol=7
 grtol=10
 hamilton=dc
 iface=cfour
 intalg=auto
 itol=18
 lcorthr=loose
 lccrest=off
 lmp2dens=on
 lnoepso=3e-5
 lnoepsv=1e-6
 localcc=off
 locintrf=disk
 maxact=off
 maxex=0
 bfbasis=none
 mem=128gb
 molden=on
 mulmet=0
 mult=1
 nacto=0
 nactv=0
 naf_cor=off
 naf_scf=off
 nafalg=albe
 naftyp=
 nchol=auto
 ndeps=1e-3
 nstate=6
 nsing=0
 ntrip=0
 occ=2,0,0,0,0,0,0,0/2,0,0,0,0,0,0,0
 optalg=
 optmaxit=50
 optetol=1e-6
 optgtol=1e-4
 optstol=1e-3
 orblocc=off
 orbloco=off
 orblocv=off
 osveps=1e-3
 ovirt=off
 ovosnorb=80.0
 ptfreq=0.0
 popul=off
[...]
 
 Iteration  6  CI energy:   -23.54987744  Energy decrease:   0.00000464
 ======================================================================
 Norm of residual vector:     0.00003859      Convergence:   0.00001599
 CPU time [min]: 15306.205                   Wall time [min]:  4511.607
 
 Iteration  7  CI energy:   -23.54987820  Energy decrease:   0.00000076
 ======================================================================
 Norm of residual vector:     0.00004104      Convergence:   0.00002412
 CPU time [min]: 15525.815                   Wall time [min]:  4581.230
 
 Iteration  8  CI energy:   -23.54987685  Energy decrease:   0.00000135
 ======================================================================
 Norm of residual vector:     0.00000734      Convergence:   0.00001002
 CPU time [min]: 15763.100                   Wall time [min]:  4659.240
 
 Iteration  9  CI energy:   -23.54987732  Energy decrease:   0.00000046
 ======================================================================
 Norm of residual vector:     0.00000386      Convergence:   0.00000417
 CPU time [min]: 15975.406                   Wall time [min]:  4742.293
 
 Iteration 10  CI energy:   -23.54987738  Energy decrease:   0.00000007
 ======================================================================
 Norm of residual vector:     0.00000214      Convergence:   0.00000170
 CPU time [min]: 16193.834                   Wall time [min]:  4832.919
 
 Iteration 11  CI energy:   -23.54987741  Energy decrease:   0.00000002
 ======================================================================
 Norm of residual vector:     0.00000149      Convergence:   0.00000112
 CPU time [min]: 16413.213                   Wall time [min]:  4920.878
 
 Iteration 12  CI energy:   -23.54987740  Energy decrease:   4.4850E-10
 ======================================================================
 Norm of residual vector:     0.00000398      Convergence:   0.00000088
 CPU time [min]: 16644.446                   Wall time [min]:  5020.455
 
 Iteration 13  CI energy:   -23.54987743  Energy decrease:   0.00000003
 ======================================================================
 Norm of residual vector:     0.00000081      Convergence:   0.00000013
 CPU time [min]: 16868.429                   Wall time [min]:  5127.046
 
 Iteration 14  CI energy:   -23.54987739  Energy decrease:   0.00000004
 ======================================================================
 Norm of residual vector:     0.00000435      Convergence:   0.00000326
 CPU time [min]: 17096.684                   Wall time [min]:  5228.842
 
 Iteration 15  CI energy:   -23.54987734  Energy decrease:   0.00000006
 ======================================================================
 Norm of residual vector:     0.0000E+00      Convergence:   1.7059E-07
 CPU time [min]: 17336.156                   Wall time [min]:  5338.843
 
 Iteration 16  CI energy:   -23.54987739  Energy decrease:   0.00000005
 ======================================================================
 
 Iteration has converged in 16 steps.
 
 Final results:
 Total LR-CCSDTQ energy [au]:        -23.549877386090
 Excitation energy [eV]:          21.7144
 Excitation energy [cm^-1]:   175138.27
 Absorption wavelength [nm]:      57.10
 Spin multiplicity:                     1
 
 
 
 Dominant CI coefficients
 Printing threshold:  1.00E-02
 
   -0.238260  2b -> 6b                                                  
   -0.637294  2b -> 18b                                                 
    0.059559  2b -> 50b                                                 
   -0.238260  2a -> 6a                                                  
   -0.637294  2a -> 18a                                                 
    0.059559  2a -> 50a                                                 
    0.034487  2a 2b -> 6a 6b                                            
    0.018092  2a 2b -> 50a 6b                                           
   -0.069606  2a 2b -> 18a 18b                                          
    0.025286  2a 2b -> 50a 18b                                          
    0.018092  2a 2b -> 6a 50b                                           
    0.025286  2a 2b -> 18a 50b                                          
   -0.066185  2a 2b -> 3a 3b                                            
    0.022112  2a 2b -> 8a 3b                                            
    0.053798  2a 2b -> 17a 3b                                           
    0.046571  2a 2b -> 31a 3b                                           
    0.022112  2a 2b -> 3a 8b                                            
    0.011580  2a 2b -> 8a 8b                                            
    0.019358  2a 2b -> 17a 8b                                           
    0.016847  2a 2b -> 31a 8b                                           
    0.053798  2a 2b -> 3a 17b                                           
    0.019358  2a 2b -> 8a 17b                                           
    0.030086  2a 2b -> 17a 17b                                          
    0.024831  2a 2b -> 31a 17b                                          
    0.046571  2a 2b -> 3a 31b                                           
    0.016847  2a 2b -> 8a 31b                                           
    0.024831  2a 2b -> 17a 31b                                          
    0.017857  2a 2b -> 31a 31b                                          
   -0.066185  2a 2b -> 4a 4b                                            
    0.022112  2a 2b -> 9a 4b                                            
    0.053798  2a 2b -> 15a 4b                                           
    0.046571  2a 2b -> 32a 4b                                           
    0.022112  2a 2b -> 4a 9b                                            
    0.011580  2a 2b -> 9a 9b                                            
    0.019358  2a 2b -> 15a 9b                                           
    0.016847  2a 2b -> 32a 9b                                           
    0.053798  2a 2b -> 4a 15b                                           
    0.019358  2a 2b -> 9a 15b                                           
    0.030086  2a 2b -> 15a 15b                                          
    0.024831  2a 2b -> 32a 15b                                          
    0.046571  2a 2b -> 4a 32b                                           
    0.016847  2a 2b -> 9a 32b                                           
    0.024831  2a 2b -> 15a 32b                                          
    0.017857  2a 2b -> 32a 32b                                          
   -0.066185  2a 2b -> 5a 5b                                            
    0.022112  2a 2b -> 7a 5b                                            
    0.053798  2a 2b -> 16a 5b                                           
    0.046571  2a 2b -> 33a 5b                                           
    0.022112  2a 2b -> 5a 7b                                            
    0.011580  2a 2b -> 7a 7b                                            
    0.019358  2a 2b -> 16a 7b                                           
    0.016847  2a 2b -> 33a 7b                                           
    0.053798  2a 2b -> 5a 16b                                           
    0.019358  2a 2b -> 7a 16b                                           
    0.030086  2a 2b -> 16a 16b                                          
    0.024831  2a 2b -> 33a 16b                                          
    0.046571  2a 2b -> 5a 33b                                           
    0.016847  2a 2b -> 7a 33b                                           
    0.024831  2a 2b -> 16a 33b                                          
    0.017857  2a 2b -> 33a 33b                                          
 
 Starting right-hand LR-CC iteration for root                      6 ...
 ======================================================================
 Norm of residual vector:     0.02124592      Convergence:   1.00000000
 CPU time [min]: 17555.761                   Wall time [min]:  5445.048
 
 Iteration  1  CI energy:   -23.46997724  Energy decrease:   0.87788875
 ======================================================================
 Norm of residual vector:     0.00171495      Convergence:   0.00077602
 CPU time [min]: 17788.412                   Wall time [min]:  5570.306
 
 Iteration  2  CI energy:   -23.46999137  Energy decrease:   0.00001413
 ======================================================================
 Norm of residual vector:     0.00016501      Convergence:   0.00013089
 CPU time [min]: 17998.982                   Wall time [min]:  5682.972
 
 Iteration  3  CI energy:   -23.46999832  Energy decrease:   0.00000695
 ======================================================================
 Norm of residual vector:     0.00010599      Convergence:   0.00007019
 CPU time [min]: 18201.853                   Wall time [min]:  5794.019
 
 Iteration  4  CI energy:   -23.46999868  Energy decrease:   0.00000036
 ======================================================================
 Norm of residual vector:     0.00016861      Convergence:   0.00011703
 CPU time [min]: 18432.713                   Wall time [min]:  5916.198
 
 Iteration  5  CI energy:   -23.46999879  Energy decrease:   0.00000011
 ======================================================================
 Norm of residual vector:     0.00028962      Convergence:   0.00016315
 CPU time [min]: 18688.265                   Wall time [min]:  6038.111
 
 Iteration  6  CI energy:   -23.46999883  Energy decrease:   0.00000004
 ======================================================================
 Norm of residual vector:     0.00056120      Convergence:   0.00023046
 CPU time [min]: 18923.642                   Wall time [min]:  6161.056
 
 Iteration  7  CI energy:   -23.46999877  Energy decrease:   0.00000005
 ======================================================================
 Norm of residual vector:     0.00025633      Convergence:   0.00020816
 CPU time [min]: 19142.851                   Wall time [min]:  6283.361
 
 Iteration  8  CI energy:   -23.46999908  Energy decrease:   0.00000031
 ======================================================================
 Norm of residual vector:     0.00008693      Convergence:   0.00008223
 CPU time [min]: 19369.218                   Wall time [min]:  6396.141
 
 Iteration  9  CI energy:   -23.46999892  Energy decrease:   0.00000016
 ======================================================================
 Norm of residual vector:     0.00003646      Convergence:   0.00003368
 CPU time [min]: 19618.695                   Wall time [min]:  6518.887
 
 Iteration 10  CI energy:   -23.46999892  Energy decrease:   0.00000001
 ======================================================================
 Norm of residual vector:     0.00007752      Convergence:   0.00002792
 CPU time [min]: 19837.294                   Wall time [min]:  6632.287
 
 Iteration 11  CI energy:   -23.46999891  Energy decrease:   4.7221E-09
 ======================================================================
 Norm of residual vector:     0.00001695      Convergence:   0.00001572
 CPU time [min]: 20077.856                   Wall time [min]:  6751.030
 
 Iteration 12  CI energy:   -23.46999893  Energy decrease:   0.00000001
 ======================================================================
 Norm of residual vector:     0.00001336      Convergence:   0.00000974
 CPU time [min]: 20331.874                   Wall time [min]:  6880.740
 
 Iteration 13  CI energy:   -23.46999892  Energy decrease:   0.00000001
 ======================================================================
 Norm of residual vector:     0.00009079      Convergence:   0.00002645
 CPU time [min]: 20582.232                   Wall time [min]:  7009.824
 
 Iteration 14  CI energy:   -23.46999893  Energy decrease:   0.00000002
 ======================================================================
 Norm of residual vector:     0.00007188      Convergence:   0.00000327
 CPU time [min]: 20814.771                   Wall time [min]:  7151.482
 
 Iteration 15  CI energy:   -23.46999894  Energy decrease:   3.1912E-09
 ======================================================================
 Norm of residual vector:     0.00000070      Convergence:   0.00000077
 CPU time [min]: 21057.149                   Wall time [min]:  7274.969
 
 Iteration 16  CI energy:   -23.46999892  Energy decrease:   0.00000002
 ======================================================================
 Norm of residual vector:     0.00000033      Convergence:   0.00000030
 CPU time [min]: 21290.128                   Wall time [min]:  7397.604
 
 Iteration 17  CI energy:   -23.46999892  Energy decrease:   1.0152E-10
 ======================================================================
 Norm of residual vector:     0.0000E+00      Convergence:   1.8505E-07
 CPU time [min]: 21530.429                   Wall time [min]:  7523.351
 
 Iteration 18  CI energy:   -23.46999892  Energy decrease:   1.0980E-10
 ======================================================================
 
 Iteration has converged in 18 steps.
 
 Final results:
 Total LR-CCSDTQ energy [au]:        -23.469998921550
 Excitation energy [eV]:          23.8880
 Excitation energy [cm^-1]:   192669.57
 Absorption wavelength [nm]:      51.90
 Spin multiplicity:                     1
 
 Dominant CI coefficients
 Printing threshold:  1.00E-02
 
   -0.026633  2b -> 13b                                                 
   -0.170054  2b -> 14b                                                 
   -0.599252  2b -> 30b                                                 
   -0.029661  2b -> 53b                                                 
    0.062507  2b -> 55b                                                 
   -0.026633  2a -> 13a                                                 
   -0.170054  2a -> 14a                                                 
   -0.599252  2a -> 30a                                                 
   -0.029661  2a -> 53a                                                 
    0.062507  2a -> 55a                                                 
    0.032981  2a 2b -> 30a 6b                                           
   -0.040094  2a 2b -> 30a 18b                                          
    0.032981  2a 2b -> 6a 30b                                           
   -0.040094  2a 2b -> 18a 30b                                          
    0.030925  2a 2b -> 50a 30b                                          
    0.030925  2a 2b -> 30a 50b                                          
   -0.183407  2a 2b -> 3a 3b                                            
    0.155428  2a 2b -> 8a 3b                                            
    0.074727  2a 2b -> 17a 3b                                           
    0.030590  2a 2b -> 21a 3b                                           
   -0.013468  2a 2b -> 25a 3b                                           
   -0.016560  2a 2b -> 31a 3b                                           
    0.031904  2a 2b -> 43a 3b                                           
   -0.018806  2a 2b -> 47a 3b                                           
    0.015187  2a 2b -> 57a 3b                                           
    0.155428  2a 2b -> 3a 8b                                            
    0.067621  2a 2b -> 8a 8b                                            
    0.063649  2a 2b -> 17a 8b                                           
    0.041790  2a 2b -> 31a 8b                                           
   -0.013695  2a 2b -> 57a 8b                                           
    0.074727  2a 2b -> 3a 17b                                           
    0.063649  2a 2b -> 8a 17b                                           
    0.051015  2a 2b -> 17a 17b                                          
    0.026225  2a 2b -> 31a 17b                                          
    0.030590  2a 2b -> 3a 21b                                           
   -0.013468  2a 2b -> 3a 25b                                           
   -0.016560  2a 2b -> 3a 31b                                           
    0.041790  2a 2b -> 8a 31b                                           
    0.026225  2a 2b -> 17a 31b                                          
    0.031904  2a 2b -> 3a 43b                                           
   -0.018806  2a 2b -> 3a 47b                                           
    0.015187  2a 2b -> 3a 57b                                           
   -0.013695  2a 2b -> 8a 57b                                           
    0.142242  2a 2b -> 4a 4b                                            
   -0.120543  2a 2b -> 9a 4b                                            
   -0.057955  2a 2b -> 15a 4b                                           
   -0.030390  2a 2b -> 20a 4b                                           
    0.012843  2a 2b -> 32a 4b                                           
    0.033780  2a 2b -> 45a 4b                                           
   -0.011778  2a 2b -> 56a 4b                                           
   -0.120543  2a 2b -> 4a 9b                                            
   -0.052444  2a 2b -> 9a 9b                                            
   -0.049364  2a 2b -> 15a 9b                                           
   -0.032411  2a 2b -> 32a 9b                                           
    0.010621  2a 2b -> 56a 9b                                           
   -0.057955  2a 2b -> 4a 15b                                           
   -0.049364  2a 2b -> 9a 15b                                           
   -0.039565  2a 2b -> 15a 15b                                          
   -0.020339  2a 2b -> 32a 15b                                          
   -0.030390  2a 2b -> 4a 20b                                           
    0.012843  2a 2b -> 4a 32b                                           
   -0.032411  2a 2b -> 9a 32b                                           
   -0.020339  2a 2b -> 15a 32b                                          
    0.033780  2a 2b -> 4a 45b                                           
   -0.011778  2a 2b -> 4a 56b                                           
    0.010621  2a 2b -> 9a 56b                                           
    0.041165  2a 2b -> 5a 5b                                            
   -0.034885  2a 2b -> 7a 5b                                            
   -0.016772  2a 2b -> 16a 5b                                           
    0.025198  2a 2b -> 19a 5b                                           
    0.022197  2a 2b -> 46a 5b                                           
   -0.018188  2a 2b -> 48a 5b                                           
   -0.034885  2a 2b -> 5a 7b                                            
   -0.015177  2a 2b -> 7a 7b                                            
   -0.014286  2a 2b -> 16a 7b                                           
   -0.016772  2a 2b -> 5a 16b                                           
   -0.014286  2a 2b -> 7a 16b                                           
   -0.011450  2a 2b -> 16a 16b                                          
    0.025198  2a 2b -> 5a 19b                                           
    0.022197  2a 2b -> 5a 46b                                           
   -0.018188  2a 2b -> 5a 48b                                           
   -0.011015  2a 2b -> 27a 27b                                          
 
 ************************ 2018-04-04 01:03:42 *************************
                      Normal termination of mrcc.
 **********************************************************************
--- SharcNET Job Epilogue ---
Job completed successfully.
               jobid: 1536828
               resid: 3016883
         exit status: 0
      allocated time: 537396
           user time: 911325
         system time: 441363
peak rss=83476115456; peak vsz=83476115456 (bytes)
atime=537396; utime=911325; stime=441363; exit=0
