Starting run at: Tue Mar 26 11:18:03 EDT 2024
 --invoking executable--
/cvmfs/restricted.computecanada.ca/easybuild/software/2020/avx2/Compiler/intel2020/cfour/2.1/bin/xjoda


   *************************************************************************
         <<<     CCCCCC     CCCCCC   |||     CCCCCC     CCCCCC   >>>
       <<<      CCC        CCC       |||    CCC        CCC         >>>
      <<<      CCC        CCC        |||   CCC        CCC            >>>
    <<<        CCC        CCC        |||   CCC        CCC              >>>
      <<<      CCC        CCC        |||   CCC        CCC            >>>
       <<<      CCC        CCC       |||    CCC        CCC         >>>
         <<<     CCCCCC     CCCCCC   |||     CCCCCC     CCCCCC   >>>
   *************************************************************************

     ****************************************************************
     * CFOUR Coupled-Cluster techniques for Computational Chemistry *
     ****************************************************************
 

   Department of Chemistry                Institut fuer Physikalische Chemie
   University of Florida                  Universitaet Mainz
   Gainesville, FL 32611, USA             D-55099 Mainz, Germany

   Department of Chemistry                Fakultaet fuer Chemie und Biowiss.
   Johns Hopkins University               Karlsruher Institut fuer Technologie
   Baltimore, MD 21218, USA               D-76131 Karlsruhe, Germany

   Department of Chemistry                Department of Physical Chemistry
   Southern Methodist University          Eotvos Lorand University
   Dallas, TX 75275, USA                  H-1053 Budapest, Hungary

 
                       Version 2.1
 
                     gra321                                            
                     Tue Mar 26 11:18:04 EDT 2024                      
                     integer*8 version is running
 
********************************************************************************
*                          Input from ZMAT file                                *
********************************************************************************
TITLE                                                                           
O                                                                               
                                                                                
*ACES2(CALC=CCSDT                                                               
#FROZEN_CORE=ON                                                                 
#DROPMO=1                                                                       
#INPUT_MRCC=OFF                                                                 
#CC_PROG=MRCC                                                                   
XFORM_TOL=18                                                                    
SAVE_INTS=ON                                                                    
SCF_EXPORDER=6                                                                  
SCF_EXPSTART=5                                                                  
#SCF_DAMPING=1000                                                               
SCF_EXTRAPOLATION=ON                                                            
SCF_CONV=10                                                                     
SCF_MAXCYC=9999                                                                 
CC_CONV=10                                                                      
CC_MAXCYC=999                                                                   
T3_EXTRAPOL=ON                                                                  
REFERENCE=ROHF                                                                  
CHARGE=+2                                                                       
MULT=3                                                                          
ABCDTYPE=STANDARD                                                               
OCCUPATION=2-1-1-0-0-0-0-0/2-0-0-0-0-0-0-0                                      
MEM=20                                                                          
MEM_UNIT=GB                                                                     
BASIS=SPECIAL)                                                                  
                                                                                
O:aCV6Z-MOLP                                                                    
                                                                                
********************************************************************************
  @GTFLGS-W, Keyword #FROZEN_CORE not known and is ignored.
  @GTFLGS-W, Keyword #DROPMO not known and is ignored.
  @GTFLGS-W, Keyword #INPUT_MRCC not known and is ignored.
  @GTFLGS-W, Keyword #CC_PROG not known and is ignored.
  @GTFLGS-W, Keyword #SCF_DAMPING not known and is ignored.
    -------------------------------------------------------------------
                    CFOUR Control Parameters 
    -------------------------------------------------------------------
        External           Internal           Value            Units
          Name               Name
    -------------------------------------------------------------------
       ABCDTYPE             IABCDT         STANDARD    [  0]    ***   
       ANHARMONIC           IANHAR         OFF         [  0]    ***   
       ANH_ALGORIT          IANALG         STANDARD    [  0]    ***   
       ANH_DERIVAT          IANDER         SECOND      [  1]    ***   
       ANH_MODE             ANHMOD         VIBRATION   [  0]    ***   
       ANH_STEPSIZ          ICUBST             50000          x 10-6  
       ANH_SYMMETR          IANHSM         ABELIAN     [  0]    ***   
       AO_LADDERS           IAOLAD         SINGLEPASS  [  1]    ***   
       AV_SCF               IAVSCF         OFF         [  0]    ***   
       BASIS                IBASIS         SPECIAL     [  0]    ***   
       BOTHVECTORS          BOTHVC         OFF         [  0]    ***   
       BOX_POTENT           IPIAB          OFF         [  0]    ***   
       BREIT                IBREIT         OFF         [  0]    ***   
       BRUCK_CONV           IBRTOL          10D-  4             ***   
       BRUECKNER            IBRKNR         OFF         [  0]    ***   
       BUFFERSIZE           IBUFFS              4096            ***   
       CACHE_RECS           ICHREC             10               ***   
       CALCLEVEL            ICLLVL         CCSDT       [ 18]    ***   
       CCORBOPT             ICCORB         OFF         [  0]  x 0.01  
       CC_CONV              ICCCNV          10D- 10             ***   
       CC_EXPORDER          ICCEOR              5               ***   
       CC_EXTRAPOL          ICCEXT         DIIS        [  1]    ***   
       CC_GUESS             ICCGES         MP2         [  0]    ***   
       CC_MAXCYC            ICCCYC            999              cycles 
       CC_PROGRAM           ICCPRO         VCC         [  0]    ***   
       CHARGE               ICHRGE              2               ***   
       CHOLESKY             ICHOLE         OFF         [  0]    ***   
       CIS_CONV             ICISTL              5               ***   
       COMM_SIZE            IPSIZE            ***               ***   
       CONSTANT             ICONST         OLD         [  1]    ***   
       CONTINUUM            ICONTU         NONE        [  0]    ***   
       CONTRACTION          ICNTYP         GENERAL     [  1]    ***   
       COORDINATES          ICOORD         INTERNAL    [  0]    ***   
       CPHF_CONVER          ICPHFT          10D- 16             ***   
       CPHF_MAXCYC          ICPHFC             64              cycles 
       CUBIC                ICUBIC         OFF         [  0]    ***   
       CURVILINEAR          ICURVY         OFF         [  0]    ***   
       DBOC                 IDBOC          OFF         [  0]    ***   
       DCT                  IDCT           OFF         [  0]    ***   
       DERIV_LEV            IDRLVL         ZERO        [  0]    ***   
       DEVMEM_SIZE          IDVMEM         *********           MByte  
       DIAG_MRCC            IEOMST          10D-  0             ***   
       DIFF_TYPE            IDIFTY         RELAXED     [  0]    ***   
       DIRECT               IDIRCT         OFF         [  0]    ***   
       DROPMO               IDRPMO      NONE         
       ECP                  IECP           OFF         [  0]    ***   
       EIGENVECTOR          IVEC                1               ***   
       EL_ANHARM            IELANH         OFF         [  0]    ***   
       EOMFOLLOW            IEOMSR         ENERGY      [  0]    ***   
       EOMIP                IEOMIP         OFF         [  0]    ***   
       EOMLEVEL             HBARFM         SAME        [  0]    ***   
       EOM_MRCC             IMRCCE         NEW         [  1]    ***   
       EOM_NONIT            EOMNON         OFF         [  0]    ***   
       EOM_NSING            IEOMSI          10D-  0             ***   
       EOM_NSTATES          IMRCCD         DAVIDSON    [  0]    ***   
       EOM_NTRIP            IEOMTR          10D-  0             ***   
       EOM_ORDER            IEXORD         ENERGY      [  0]    ***   
       EOM_PROPSTA          IEOMST              0               ***   
       ESTATE_CONV          IEXTOL          10D-  5             ***   
       ESTATE_DIAG          IEXDIG         ITERATIVE   [  0]    ***   
       ESTATE_LOCK          IESLOC         ON          [  1]    ***   
       ESTATE_MAXC          IEXMXC             40               ***   
       ESTATE_PROP          IEXPRP         OFF         [  0]    ***   
       EVAL_HESS            IRECAL              0            # of cyc.
       EXCITATION           IEXCIT              0               ***   
       EXCITE               IEXCIT         NONE        [  0]    ***   
       EXTERN_POT           IEXPOT         OFF         [  0]    ***   
       FCGRADNEW            IFCGNW         OFF         [  0]    ***   
       FC_FIELD             IFINFC              0             x 10-6  
       FD_CALTYPE           IFDCAL         GRADONLY    [  0]    ***   
       FD_PROJECT           IFDPRJ         OFF         [  1]    ***   
       FD_STEPSIZE          IDISFD              0            10-4 bohr
       FD_USEGROUP          IFDGRP         FULL        [  0]    ***   
       FILE_RECSIZ          IFLREC              4096           words  
       FINITE_PERT          IFIPER              0             x 10-6  
       FIXGEOM              IFIXGM         OFF         [  0]    ***   
       FOCK                 IFOCK          AO          [  1]    ***   
       FREQ_ALGORI          IVIALG         STANDARD    [  0]    ***   
       FROZEN_CORE          IFROCO         OFF         [  0]    ***   
       GAMMA_ABCD           IGABCD         STORE       [  0]    ***   
       GAMMA_ABCI           IGABCI         STORE       [  0]    ***   
       GENBAS_1             IGNBS1              0               ***   
       GENBAS_2             IGNBS2              0               ***   
       GENBAS_3             IGNBS3              0               ***   
       GENBAS_4             IGNBS4              0               ***   
       GEO_CONV             ICONTL              5              H/bohr 
       GEO_MAXCYC           IOPTCY             50               ***   
       GEO_MAXSTEP          IMXSTP            300            millibohr
       GEO_METHOD           INR            SINGLE_POINT[  5]    ***   
       GIAO                 IGIAO          OFF         [  1]    ***   
       GIMIC                IGIMIC         OFF         [  0]    ***   
       GRID                 IGRID          OFF         [  0]    ***   
       GRID_ALGO            IGALGO         SERIAL      [  0]    ***   
       GUESS                IGUESS         MOREAD      [  0]    ***   
       HBAR                 IHBAR          OFF         [  0]    ***   
       HESS_TYPE            IHESTP         SCF         [  0]    ***   
       HF2_FILE             IHF2Fl         USE         [  1]    ***   
       HFSTABILITY          ISTABL         OFF         [  0]    ***   
       INCORE               INCORE         OFF         [  0]    ***   
       INPUT_MRCC           IMRCC          ON          [  1]    ***   
       INTEGRALS            INTTYP         VMOL        [  1]    ***   
       JODA_PRINT           IJPRNT              0               ***   
       KEYWORD_OUT          IDMPKW         NO          [  0]    ***   
       LINDEP_TOL           ILINDP              8               ***   
       LINEQ_CONV           IZTACN          10D-  7           cycles  
       LINEQ_EXPOR          ILMAXD              5               ***   
       LINEQ_MAXCY          ILMAXC            100               ***   
       LINEQ_TYPE           ILTYPE         DIIS        [  1]    ***   
       LOCK_ORBOCC          ILOCOC         OFF         [  0]    ***   
       MEMORY_SIZE          IMEMSZ         *********           words  
       MEM_UNIT             IMEMU          GB          [  3]    ***   
       MRCC                 IMRCCC         OFF         [  0]    ***   
       MULTIPLICTY          IMULTP              3               ***   
       NACOUPLING           IVCOUP         OFF         [  0]    ***   
       NEGEVAL              IDIE           ABORT       [  0]    ***   
       NEWNORM              INEWNO         OFF         [  0]    ***   
       NON-HF               INONHF         ON          [  1]    ***   
       NTOP_TAMP            ITOPT2             15               ***   
       NUC_MODEL            INUCMO         POINT       [  0]    ***   
       OCCUPATION           IOCCU  A   2,  1,  1,  0,  0,  0,  0,  0,
                                   B   2,  0,  0,  0,  0,  0,  0,  0,
       OPEN-SHELL           IOPEN          SPIN-ORBITAL[  0]    ***   
       OPTVIB               IOPTVB         OFF         [  0]    ***   
       ORBITALS             IORBTP         SEMICANONICA[  1]    ***   
       PARALLEL             IPARAL         ON          [  1]    ***   
       PARA_INT             IPINTS         ON          [  1]    ***   
       PARA_PRINT           IPPRIN              0               ***   
       PERT_ORB             IPTORB         STANDARD    [  0]    ***   
       POINTS               IGRDFD              0               ***   
       PRINT                IPRNT               0               ***   
       PROPS                IPROPS         OFF         [  0]    ***   
       PROP_INTEGR          IINTYP         INTERNAL    [  0]    ***   
       PSI                  IPSI           OFF         [  0]    ***   
       QC_ALG               IQCALG         FLM         [  0]    ***   
       QC_LINALG            IQCLIN         TRIDIAG     [  2]    ***   
       QC_MAXCYC            IQCMAX          10D-100           cycles  
       QC_MAXSCFCY          IQCMSC          10D- 15           cycles  
       QC_RTRUST            IQCRTR          10D-  0           x 10-3  
       QC_SKIPSCF           IQCSKI         OFF         [  0]    ***   
       QC_START             IQCSTA          10D-  1             ***   
       QRHFGUESS            IQGUES         OFF         [  0]    ***   
       QUARTIC              IQUART         OFF         [  0]    ***   
       RAMAN_INT            IRAMIN         OFF         [  0]    ***   
       RAMAN_ORB            IRAMRE         UNRELAXED   [  0]    ***   
       RDO                  IRDOFM         OFF         [  0]    ***   
       REDUCE_REPR          REDREP         Ir          [  0]    ***   
       REFERENCE            IREFNC         ROHF        [  2]    ***   
       RELATIVIST           IRELAT         OFF         [  0]    ***   
       RELAX_DENS           IRDENS         OFF         [  0]    ***   
       RESET_FLAGS          IRESET         OFF         [  0]    ***   
       RESTART_CC           ICCRES         OFF         [  0]    ***   
       ROT_EVEC             ROTVEC              0               ***   
       SAVE_INTS            ISVINT         ON          [  1]    ***   
       SCALE_ON             ISTCRT              0               ***   
       SCF_CONV             ISCFCV          10D- 10             ***   
       SCF_DAMPING          IDAMP               0             x 10-3  
       SCF_EXPORDE          IRPPOR              6               ***   
       SCF_EXPSTAR          IRPPLS              5               ***   
       SCF_EXTRAPO          IRPP           ON          [  1]    ***   
       SCF_MAXCYC           ISCFCY            ***              cycles 
       SCF_NOSTOP           ISCFST         OFF         [  0]    ***   
       SCF_PRINT            ISCFPR              0               ***   
       SCF_PROG             ISCFPR         SCF         [  0]    ***   
       SD_FIELD             IFINSD              0             x 10-6  
       SOPERT               IPERSO         OFF         [  0]    ***   
       SPHERICAL            IDFGHI         ON          [  1]    ***   
       SPINORBIT            ISOCAL         OFF         [  0]    ***   
       SPINROTATIO          ISRCON         OFF         [  0]    ***   
       SPIN_FLIP            ISPFLP         OFF         [  0]    ***   
       SPIN_ORBIT           ISPORB         OFF         [  0]    ***   
       SPIN_SCAL            ISCSMP         OFF         [  0]    ***   
       STEEPSCALE           ISTPSC              1000          x 10-3  
       SUBGROUP             ISUBGP         DEFAULT     [  0]    ***   
       SUBGRPAXIS           ISBXYZ         X           [  0]    ***   
       SYMMETRY             ISYM           ON          [  0]    ***   
       SYM_CHECK            ISYMCK         OVERRIDE    [  1]    ***   
       T3_EXTRAPOL          IT3EXT         ON          [  1]    ***   
       T4_EXTRAPOL          IT4EXP         OFF         [  0]    ***   
       TAMP_SUM             IEVERY              5               ***   
       TESTSUITE            ITESTS         OFF         [  0]    ***   
       THERMOCH             ITHERM         OFF         [  0]    ***   
       TOL_CHOLESK          ITOLCH          10D-  4             ***   
       TRANGRAD             IRESRM         OFF         [  0]    ***   
       TRANS_INV            ITRAIN         USE         [  0]    ***   
       TREAT_PERT           ITREAT         SIMULTANEOUS[  0]    ***   
       TRIP_ALGORI          ITRALG         NORMAL      [  0]    ***   
       UIJ_THRESHO          IUIJTH              1               ***   
       UNITS                IUNITS         ANGSTROM    [  0]    ***   
       UNOS                 IUNOS          OFF         [  0]    ***   
       UPDATE_HESS          IHUPDT         ON          [  1]    ***   
       VIBPHASE             ISETPH         STANDARD    [  0]    ***   
       VIBRATION            IVIB           NO          [  0]    ***   
       VIB_ALGORIT          IGEALG         STANDARD    [  0]    ***   
       VNATORB              IVNORB         OFF         [  0]    ***   
       VTRAN                IVTRAN         FULL/PARTIAL[  0]    ***   
       XFIELD               IXEFLD              0             x 10-6  
       XFORM_TOL            IXFTOL          10D- 18             ***   
       YFIELD               IYEFLD              0             x 10-6  
       ZFIELD               IZEFLD              0             x 10-6  
       ZSCALE_EXP           IZEXPS         OFF         [  0]    ***   
    -------------------------------------------------------------------
   1 entries found in Z-matrix 
   Job Title : TITLE                                                                           
   Rotational constants (in cm-1): 

   Rotational constants (in MHz): 

********************************************************************************
   The full molecular point group is I h .
   The largest Abelian subgroup of the full molecular point group is D2h .
   The computational point group is D2h .
********************************************************************************
  ECPDATA file not present.   Using default ECPDATA. 
  @GTFLGS-W, Keyword #FROZEN_CORE not known and is ignored.
  @GTFLGS-W, Keyword #DROPMO not known and is ignored.
  @GTFLGS-W, Keyword #INPUT_MRCC not known and is ignored.
  @GTFLGS-W, Keyword #CC_PROG not known and is ignored.
  @GTFLGS-W, Keyword #SCF_DAMPING not known and is ignored.
  There are  231 basis functions.
 @GEOPT-W, Archive file not created for single-point calculation.
 @CHECKOUT-I, Total execution time (CPU/WALL):        0.27/       1.34 seconds.
--executable xjoda finished with status     0 in        1.40 seconds (walltime).
 --invoking executable--
/cvmfs/restricted.computecanada.ca/easybuild/software/2020/avx2/Compiler/intel2020/cfour/2.1/bin/xvmol
 SERIAL VERSION OF MOLECULE STARTED
********************************************************************************
                    INPUT FROM MOL FILE
********************************************************************************
INTGRL        1    0    1    0    0    0    0    0    0                         
         *** CFOUR Program System (Release V0.1) ***                            
TITLE                                                                           
    1    3 X  Y   Z   0.10E-08              0    0                              
   9999.00      3.00                                                            
          8.00000000    1    7    1    1    1    1    1    1    1               
O #1   0.000000000000000   0.000000000000000   0.000000000000000                
   22   13                                                                      
   570800.000000000       6.000000000000000E-006 -1.000000000000000E-006        
  0.000000000000000E+000  0.000000000000000E+000  0.000000000000000E+000        
  0.000000000000000E+000  0.000000000000000E+000  0.000000000000000E+000        
  0.000000000000000E+000  0.000000000000000E+000  0.000000000000000E+000        
  0.000000000000000E+000  0.000000000000000E+000                                
   85480.0000000000       4.300000000000000E-005 -1.000000000000000E-005        
  0.000000000000000E+000  0.000000000000000E+000  0.000000000000000E+000        
  0.000000000000000E+000  0.000000000000000E+000  0.000000000000000E+000        
  0.000000000000000E+000  0.000000000000000E+000  0.000000000000000E+000        
  0.000000000000000E+000  0.000000000000000E+000                                
   19460.0000000000       2.270000000000000E-004 -5.100000000000000E-005        
  0.000000000000000E+000  0.000000000000000E+000  0.000000000000000E+000        
  0.000000000000000E+000  0.000000000000000E+000  0.000000000000000E+000        
  0.000000000000000E+000  0.000000000000000E+000  0.000000000000000E+000        
  0.000000000000000E+000  0.000000000000000E+000                                
   5512.00000000000       9.560000000000000E-004 -2.170000000000000E-004        
  0.000000000000000E+000  0.000000000000000E+000  0.000000000000000E+000        
  0.000000000000000E+000  0.000000000000000E+000  0.000000000000000E+000        
  0.000000000000000E+000  0.000000000000000E+000  0.000000000000000E+000        
  0.000000000000000E+000  0.000000000000000E+000                                
   1798.00000000000       3.473000000000000E-003 -7.920000000000000E-004        
  0.000000000000000E+000  0.000000000000000E+000  0.000000000000000E+000        
  0.000000000000000E+000  0.000000000000000E+000  0.000000000000000E+000        
  0.000000000000000E+000  0.000000000000000E+000  0.000000000000000E+000        
  0.000000000000000E+000  0.000000000000000E+000                                
   648.900000000000       1.119800000000000E-002 -2.559000000000000E-003        
  0.000000000000000E+000  0.000000000000000E+000  0.000000000000000E+000        
  0.000000000000000E+000  0.000000000000000E+000  0.000000000000000E+000        
  0.000000000000000E+000  0.000000000000000E+000  0.000000000000000E+000        
  0.000000000000000E+000  0.000000000000000E+000                                
   253.100000000000       3.238800000000000E-002 -7.533000000000000E-003        
  0.000000000000000E+000  0.000000000000000E+000  0.000000000000000E+000        
  0.000000000000000E+000  0.000000000000000E+000  0.000000000000000E+000        
  0.000000000000000E+000  0.000000000000000E+000  0.000000000000000E+000        
  0.000000000000000E+000  0.000000000000000E+000                                
   104.900000000000       8.286000000000000E-002 -1.978900000000000E-002        
  0.000000000000000E+000  0.000000000000000E+000  0.000000000000000E+000        
  0.000000000000000E+000  0.000000000000000E+000  0.000000000000000E+000        
  0.000000000000000E+000  0.000000000000000E+000  0.000000000000000E+000        
  0.000000000000000E+000  0.000000000000000E+000                                
   45.6500000000000       0.179584000000000      -4.606300000000000E-002        
  0.000000000000000E+000  0.000000000000000E+000  0.000000000000000E+000        
  0.000000000000000E+000  0.000000000000000E+000  0.000000000000000E+000        
  0.000000000000000E+000  0.000000000000000E+000  0.000000000000000E+000        
  0.000000000000000E+000  0.000000000000000E+000                                
   20.6200000000000       0.305221000000000      -8.919600000000000E-002        
  0.000000000000000E+000  0.000000000000000E+000  0.000000000000000E+000        
  0.000000000000000E+000  0.000000000000000E+000  0.000000000000000E+000        
  0.000000000000000E+000  0.000000000000000E+000  0.000000000000000E+000        
  0.000000000000000E+000  0.000000000000000E+000                                
   9.58700000000000       0.340893000000000      -0.137542000000000             
  0.000000000000000E+000  0.000000000000000E+000  0.000000000000000E+000        
  0.000000000000000E+000  0.000000000000000E+000  0.000000000000000E+000        
  0.000000000000000E+000  0.000000000000000E+000  0.000000000000000E+000        
  0.000000000000000E+000  0.000000000000000E+000                                
   4.49300000000000       0.177426000000000      -0.105119000000000             
   1.00000000000000       0.000000000000000E+000  0.000000000000000E+000        
  0.000000000000000E+000  0.000000000000000E+000  0.000000000000000E+000        
  0.000000000000000E+000  0.000000000000000E+000  0.000000000000000E+000        
  0.000000000000000E+000  0.000000000000000E+000                                
   1.83700000000000       2.049100000000000E-002  0.144771000000000             
  0.000000000000000E+000   1.00000000000000       0.000000000000000E+000        
  0.000000000000000E+000  0.000000000000000E+000  0.000000000000000E+000        
  0.000000000000000E+000  0.000000000000000E+000  0.000000000000000E+000        
  0.000000000000000E+000  0.000000000000000E+000                                
  0.834900000000000      -9.680000000000000E-004  0.441463000000000             
  0.000000000000000E+000  0.000000000000000E+000   1.00000000000000             
  0.000000000000000E+000  0.000000000000000E+000  0.000000000000000E+000        
  0.000000000000000E+000  0.000000000000000E+000  0.000000000000000E+000        
  0.000000000000000E+000  0.000000000000000E+000                                
  0.365800000000000       1.057000000000000E-003  0.444681000000000             
  0.000000000000000E+000  0.000000000000000E+000  0.000000000000000E+000        
   1.00000000000000       0.000000000000000E+000  0.000000000000000E+000        
  0.000000000000000E+000  0.000000000000000E+000  0.000000000000000E+000        
  0.000000000000000E+000  0.000000000000000E+000                                
  0.157000000000000      -9.700000000000000E-005  0.128243000000000             
  0.000000000000000E+000  0.000000000000000E+000  0.000000000000000E+000        
  0.000000000000000E+000   1.00000000000000       0.000000000000000E+000        
  0.000000000000000E+000  0.000000000000000E+000  0.000000000000000E+000        
  0.000000000000000E+000  0.000000000000000E+000                                
   317.096000000000       0.000000000000000E+000  0.000000000000000E+000        
  0.000000000000000E+000  0.000000000000000E+000  0.000000000000000E+000        
  0.000000000000000E+000  0.000000000000000E+000   1.00000000000000             
  0.000000000000000E+000  0.000000000000000E+000  0.000000000000000E+000        
  0.000000000000000E+000  0.000000000000000E+000                                
   160.393000000000       0.000000000000000E+000  0.000000000000000E+000        
  0.000000000000000E+000  0.000000000000000E+000  0.000000000000000E+000        
  0.000000000000000E+000  0.000000000000000E+000  0.000000000000000E+000        
   1.00000000000000       0.000000000000000E+000  0.000000000000000E+000        
  0.000000000000000E+000  0.000000000000000E+000                                
   81.1290000000000       0.000000000000000E+000  0.000000000000000E+000        
  0.000000000000000E+000  0.000000000000000E+000  0.000000000000000E+000        
  0.000000000000000E+000  0.000000000000000E+000  0.000000000000000E+000        
  0.000000000000000E+000   1.00000000000000       0.000000000000000E+000        
  0.000000000000000E+000  0.000000000000000E+000                                
   41.0370000000000       0.000000000000000E+000  0.000000000000000E+000        
  0.000000000000000E+000  0.000000000000000E+000  0.000000000000000E+000        
  0.000000000000000E+000  0.000000000000000E+000  0.000000000000000E+000        
  0.000000000000000E+000  0.000000000000000E+000   1.00000000000000             
  0.000000000000000E+000  0.000000000000000E+000                                
   20.7570000000000       0.000000000000000E+000  0.000000000000000E+000        
  0.000000000000000E+000  0.000000000000000E+000  0.000000000000000E+000        
  0.000000000000000E+000  0.000000000000000E+000  0.000000000000000E+000        
  0.000000000000000E+000  0.000000000000000E+000  0.000000000000000E+000        
   1.00000000000000       0.000000000000000E+000                                
  5.935000000000000E-002  0.000000000000000E+000  0.000000000000000E+000        
  0.000000000000000E+000  0.000000000000000E+000  0.000000000000000E+000        
  0.000000000000000E+000  0.000000000000000E+000  0.000000000000000E+000        
  0.000000000000000E+000  0.000000000000000E+000  0.000000000000000E+000        
  0.000000000000000E+000   1.00000000000000                                     
   15   11                                                                      
   525.600000000000       1.670000000000000E-004  0.000000000000000E+000        
  0.000000000000000E+000  0.000000000000000E+000  0.000000000000000E+000        
  0.000000000000000E+000  0.000000000000000E+000  0.000000000000000E+000        
  0.000000000000000E+000  0.000000000000000E+000  0.000000000000000E+000        
   124.600000000000       1.433000000000000E-003  0.000000000000000E+000        
  0.000000000000000E+000  0.000000000000000E+000  0.000000000000000E+000        
  0.000000000000000E+000  0.000000000000000E+000  0.000000000000000E+000        
  0.000000000000000E+000  0.000000000000000E+000  0.000000000000000E+000        
   40.3400000000000       7.548000000000000E-003  0.000000000000000E+000        
  0.000000000000000E+000  0.000000000000000E+000  0.000000000000000E+000        
  0.000000000000000E+000  0.000000000000000E+000  0.000000000000000E+000        
  0.000000000000000E+000  0.000000000000000E+000  0.000000000000000E+000        
   15.1800000000000       2.859500000000000E-002  0.000000000000000E+000        
  0.000000000000000E+000  0.000000000000000E+000  0.000000000000000E+000        
  0.000000000000000E+000  0.000000000000000E+000  0.000000000000000E+000        
  0.000000000000000E+000  0.000000000000000E+000  0.000000000000000E+000        
   6.24500000000000       8.438900000000001E-002  0.000000000000000E+000        
  0.000000000000000E+000  0.000000000000000E+000  0.000000000000000E+000        
  0.000000000000000E+000  0.000000000000000E+000  0.000000000000000E+000        
  0.000000000000000E+000  0.000000000000000E+000  0.000000000000000E+000        
   2.73200000000000       0.187483000000000        1.00000000000000             
  0.000000000000000E+000  0.000000000000000E+000  0.000000000000000E+000        
  0.000000000000000E+000  0.000000000000000E+000  0.000000000000000E+000        
  0.000000000000000E+000  0.000000000000000E+000  0.000000000000000E+000        
   1.22700000000000       0.297906000000000       0.000000000000000E+000        
   1.00000000000000       0.000000000000000E+000  0.000000000000000E+000        
  0.000000000000000E+000  0.000000000000000E+000  0.000000000000000E+000        
  0.000000000000000E+000  0.000000000000000E+000  0.000000000000000E+000        
  0.549200000000000       0.338558000000000       0.000000000000000E+000        
  0.000000000000000E+000   1.00000000000000       0.000000000000000E+000        
  0.000000000000000E+000  0.000000000000000E+000  0.000000000000000E+000        
  0.000000000000000E+000  0.000000000000000E+000  0.000000000000000E+000        
  0.241800000000000       0.247261000000000       0.000000000000000E+000        
  0.000000000000000E+000  0.000000000000000E+000   1.00000000000000             
  0.000000000000000E+000  0.000000000000000E+000  0.000000000000000E+000        
  0.000000000000000E+000  0.000000000000000E+000  0.000000000000000E+000        
  0.102500000000000       7.003300000000000E-002  0.000000000000000E+000        
  0.000000000000000E+000  0.000000000000000E+000  0.000000000000000E+000        
   1.00000000000000       0.000000000000000E+000  0.000000000000000E+000        
  0.000000000000000E+000  0.000000000000000E+000  0.000000000000000E+000        
   358.911000000000       0.000000000000000E+000  0.000000000000000E+000        
  0.000000000000000E+000  0.000000000000000E+000  0.000000000000000E+000        
  0.000000000000000E+000   1.00000000000000       0.000000000000000E+000        
  0.000000000000000E+000  0.000000000000000E+000  0.000000000000000E+000        
   161.818000000000       0.000000000000000E+000  0.000000000000000E+000        
  0.000000000000000E+000  0.000000000000000E+000  0.000000000000000E+000        
  0.000000000000000E+000  0.000000000000000E+000   1.00000000000000             
  0.000000000000000E+000  0.000000000000000E+000  0.000000000000000E+000        
   72.9570000000000       0.000000000000000E+000  0.000000000000000E+000        
  0.000000000000000E+000  0.000000000000000E+000  0.000000000000000E+000        
  0.000000000000000E+000  0.000000000000000E+000  0.000000000000000E+000        
   1.00000000000000       0.000000000000000E+000  0.000000000000000E+000        
   32.8930000000000       0.000000000000000E+000  0.000000000000000E+000        
  0.000000000000000E+000  0.000000000000000E+000  0.000000000000000E+000        
  0.000000000000000E+000  0.000000000000000E+000  0.000000000000000E+000        
  0.000000000000000E+000   1.00000000000000       0.000000000000000E+000        
   14.8300000000000       0.000000000000000E+000  0.000000000000000E+000        
  0.000000000000000E+000  0.000000000000000E+000  0.000000000000000E+000        
  0.000000000000000E+000  0.000000000000000E+000  0.000000000000000E+000        
  0.000000000000000E+000  0.000000000000000E+000   1.00000000000000             
    9    9                                                                      
   8.25300000000000        1.00000000000000       0.000000000000000E+000        
  0.000000000000000E+000  0.000000000000000E+000  0.000000000000000E+000        
  0.000000000000000E+000  0.000000000000000E+000  0.000000000000000E+000        
  0.000000000000000E+000                                                        
   3.59700000000000       0.000000000000000E+000   1.00000000000000             
  0.000000000000000E+000  0.000000000000000E+000  0.000000000000000E+000        
  0.000000000000000E+000  0.000000000000000E+000  0.000000000000000E+000        
  0.000000000000000E+000                                                        
   1.56800000000000       0.000000000000000E+000  0.000000000000000E+000        
   1.00000000000000       0.000000000000000E+000  0.000000000000000E+000        
  0.000000000000000E+000  0.000000000000000E+000  0.000000000000000E+000        
  0.000000000000000E+000                                                        
  0.684000000000000       0.000000000000000E+000  0.000000000000000E+000        
  0.000000000000000E+000   1.00000000000000       0.000000000000000E+000        
  0.000000000000000E+000  0.000000000000000E+000  0.000000000000000E+000        
  0.000000000000000E+000                                                        
  0.298000000000000       0.000000000000000E+000  0.000000000000000E+000        
  0.000000000000000E+000  0.000000000000000E+000   1.00000000000000             
  0.000000000000000E+000  0.000000000000000E+000  0.000000000000000E+000        
  0.000000000000000E+000                                                        
   250.830000000000       0.000000000000000E+000  0.000000000000000E+000        
  0.000000000000000E+000  0.000000000000000E+000  0.000000000000000E+000        
   1.00000000000000       0.000000000000000E+000  0.000000000000000E+000        
  0.000000000000000E+000                                                        
   108.163000000000       0.000000000000000E+000  0.000000000000000E+000        
  0.000000000000000E+000  0.000000000000000E+000  0.000000000000000E+000        
  0.000000000000000E+000   1.00000000000000       0.000000000000000E+000        
  0.000000000000000E+000                                                        
   46.6420000000000       0.000000000000000E+000  0.000000000000000E+000        
  0.000000000000000E+000  0.000000000000000E+000  0.000000000000000E+000        
  0.000000000000000E+000  0.000000000000000E+000   1.00000000000000             
  0.000000000000000E+000                                                        
   20.1130000000000       0.000000000000000E+000  0.000000000000000E+000        
  0.000000000000000E+000  0.000000000000000E+000  0.000000000000000E+000        
  0.000000000000000E+000  0.000000000000000E+000  0.000000000000000E+000        
   1.00000000000000                                                             
    7    7                                                                      
   5.43000000000000        1.00000000000000       0.000000000000000E+000        
  0.000000000000000E+000  0.000000000000000E+000  0.000000000000000E+000        
  0.000000000000000E+000  0.000000000000000E+000                                
   2.41600000000000       0.000000000000000E+000   1.00000000000000             
  0.000000000000000E+000  0.000000000000000E+000  0.000000000000000E+000        
  0.000000000000000E+000  0.000000000000000E+000                                
   1.07500000000000       0.000000000000000E+000  0.000000000000000E+000        
   1.00000000000000       0.000000000000000E+000  0.000000000000000E+000        
  0.000000000000000E+000  0.000000000000000E+000                                
  0.478000000000000       0.000000000000000E+000  0.000000000000000E+000        
  0.000000000000000E+000   1.00000000000000       0.000000000000000E+000        
  0.000000000000000E+000  0.000000000000000E+000                                
   136.111000000000       0.000000000000000E+000  0.000000000000000E+000        
  0.000000000000000E+000  0.000000000000000E+000   1.00000000000000             
  0.000000000000000E+000  0.000000000000000E+000                                
   48.8550000000000       0.000000000000000E+000  0.000000000000000E+000        
  0.000000000000000E+000  0.000000000000000E+000  0.000000000000000E+000        
   1.00000000000000       0.000000000000000E+000                                
   17.5360000000000       0.000000000000000E+000  0.000000000000000E+000        
  0.000000000000000E+000  0.000000000000000E+000  0.000000000000000E+000        
  0.000000000000000E+000   1.00000000000000                                     
    5    5                                                                      
   5.21100000000000        1.00000000000000       0.000000000000000E+000        
  0.000000000000000E+000  0.000000000000000E+000  0.000000000000000E+000        
   2.19000000000000       0.000000000000000E+000   1.00000000000000             
  0.000000000000000E+000  0.000000000000000E+000  0.000000000000000E+000        
  0.920000000000000       0.000000000000000E+000  0.000000000000000E+000        
   1.00000000000000       0.000000000000000E+000  0.000000000000000E+000        
   81.6280000000000       0.000000000000000E+000  0.000000000000000E+000        
  0.000000000000000E+000   1.00000000000000       0.000000000000000E+000        
   24.0650000000000       0.000000000000000E+000  0.000000000000000E+000        
  0.000000000000000E+000  0.000000000000000E+000   1.00000000000000             
    3    3                                                                      
   3.87200000000000        1.00000000000000       0.000000000000000E+000        
  0.000000000000000E+000                                                        
   1.50500000000000       0.000000000000000E+000   1.00000000000000             
  0.000000000000000E+000                                                        
   62.8500000000000       0.000000000000000E+000  0.000000000000000E+000        
   1.00000000000000                                                             
    1    1                                                                      
   2.77300000000000        1.00000000000000                                     
FINISH                                                                          
 
********************************************************************************
OMP: Info #274: omp_set_nested routine deprecated, please use omp_set_max_active_levels instead.
 ONE- AND TWO-ELECTRON INTEGRALS OVER SYMMETRY-ADAPTED AOS ARE CALCULATED.

  SPHERICAL HARMONICS ARE USED.
  
  INTEGRALS LESS THAN  0.10E-13 ARE NEGLECTED.

  NUCLEAR REPULSION ENERGY :    0.0000000000 A.U.
  @MOLECU-I, ONE ELECTRON INTEGRALS (CPU/WALL):        0.14/       0.14 SECONDS.
  @TWOEL-I,     931614 INTEGRALS OF SYMMETRY TYPE  I I I I
  @TWOEL-I,    8207064 INTEGRALS OF SYMMETRY TYPE  I J I J
  @TWOEL-I,    4694161 INTEGRALS OF SYMMETRY TYPE  I I J J
  @TWOEL-I,   19773624 INTEGRALS OF SYMMETRY TYPE  I J K L
  @TWOEL-I, TOTAL NUMBER OF 2-E INTEGRALS   33606463.
  @MOLECU-I, TWO ELECTRON INTEGRALS (CPU/WALL):      118.38/     118.54 SECONDS.
 @CHECKOUT-I, Total execution time (CPU/WALL):      118.55/     119.74 seconds.

OMP_NUM_THREADS not specified; defaulting to 1
Running with 1 threads/proc

--executable xvmol finished with status     0 in      119.77 seconds (walltime).
 --invoking executable--
/cvmfs/restricted.computecanada.ca/easybuild/software/2020/avx2/Compiler/intel2020/cfour/2.1/bin/xvmol2ja
 @GETMEM-I,  Allocated   19073 MB of main memory.
 @CHECKOUT-I, Total execution time (CPU/WALL):        0.04/       0.06 seconds.
--executable xvmol2ja finished with status     0 in        0.09 seconds (walltime).
 --invoking executable--
/cvmfs/restricted.computecanada.ca/easybuild/software/2020/avx2/Compiler/intel2020/cfour/2.1/bin/xvscf
  There are  231 functions in the AO basis.

  There are 8 irreducible representations.

       Irrep        # of functions
         1                 50
         2                 34
         3                 34
         4                 22
         5                 34
         6                 22
         7                 22
         8                 13


  Parameters for SCF calculation: 
        SCF reference function: ROHF  
  Maximum number of iterations: 9999
     Full symmetry point group: I h 
     Computational point group: D2h 
        Initial density matrix: MOREAD                 
     SCF convergence tolerance: 10**(-10)
  DIIS convergence acceleration:  ON
          Latest start for DIIS:   5
                     DIIS order:   6

     Alpha population by irrep:   2    1    1    0    0    0    0    0
      Beta population by irrep:   2    0    0    0    0    0    0    0


  Memory information:    3566671 words required.
  Fock matrices are constructed from AO integral file.
 @GETMEM-I,  Allocated      27 MB of main memory.
  Initialization and symmetry analysis required      0.003 seconds.

 total no. of electrons in initial guess :  0.000000000000000E+000
 total no. of electrons in initial guess :  0.000000000000000E+000
  --------------------------------------------------------------------
  Iteration         Total Energy            Largest Density Difference
  --------------------------------------------------------------------
       0             0.000000000000000              0.0000000000D+00
   current occupation vector 
     2  1  1  0  0  0  0  0
     2  0  0  0  0  0  0  0
       1           -69.904390386707831              0.9429987069D+01
   current occupation vector 
     2  1  1  0  0  0  0  0
     2  0  0  0  0  0  0  0
       2           -72.829784766565737              0.8516986211D+01
   current occupation vector 
     2  1  1  0  0  0  0  0
     2  0  0  0  0  0  0  0
       3           -73.096650995197265              0.6956078949D+00
   current occupation vector 
     2  1  1  0  0  0  0  0
     2  0  0  0  0  0  0  0
       4           -73.100134465983245              0.9567086893D-01
   current occupation vector 
     2  1  1  0  0  0  0  0
     2  0  0  0  0  0  0  0
       5           -73.100232776666303              0.1580725619D-01
   current occupation vector 
     2  1  1  0  0  0  0  0
     2  0  0  0  0  0  0  0
       6           -73.100234206370928              0.1544618054D-02
   current occupation vector 
     2  1  1  0  0  0  0  0
     2  0  0  0  0  0  0  0
       7           -73.100234241824793              0.3283970793D-03
   current occupation vector 
     2  1  1  0  0  0  0  0
     2  0  0  0  0  0  0  0
       8           -73.100234241936207              0.1989711733D-04
   current occupation vector 
     2  1  1  0  0  0  0  0
     2  0  0  0  0  0  0  0
       9           -73.100234241937244              0.7932092514D-06
   current occupation vector 
     2  1  1  0  0  0  0  0
     2  0  0  0  0  0  0  0
      10           -73.100234241937216              0.8114821504D-07
   current occupation vector 
     2  1  1  0  0  0  0  0
     2  0  0  0  0  0  0  0
      11           -73.100234241937017              0.6856342605D-08
   current occupation vector 
     2  1  1  0  0  0  0  0
     2  0  0  0  0  0  0  0
      12           -73.100234241937287              0.9118707560D-09
   current occupation vector 
     2  1  1  0  0  0  0  0
     2  0  0  0  0  0  0  0
      13           -73.100234241937244              0.3922631997D-08
   current occupation vector 
     2  1  1  0  0  0  0  0
     2  0  0  0  0  0  0  0
      14           -73.100234241937287              0.1203199984D-08
   current occupation vector 
     2  1  1  0  0  0  0  0
     2  0  0  0  0  0  0  0
      15           -73.100234241937244              0.1378272940D-07
   current occupation vector 
     2  1  1  0  0  0  0  0
     2  0  0  0  0  0  0  0
      16           -73.100234241937216              0.9386148747D-08
   current occupation vector 
     2  1  1  0  0  0  0  0
     2  0  0  0  0  0  0  0
      17           -73.100234241937287              0.4828116351D-08
   current occupation vector 
     2  1  1  0  0  0  0  0
     2  0  0  0  0  0  0  0
      18           -73.100234241937486              0.5008436554D-08
   current occupation vector 
     2  1  1  0  0  0  0  0
     2  0  0  0  0  0  0  0
      19           -73.100234241937642              0.6347544934D-08
   current occupation vector 
     2  1  1  0  0  0  0  0
     2  0  0  0  0  0  0  0
      20           -73.100234241937187              0.5004644517D-08
   current occupation vector 
     2  1  1  0  0  0  0  0
     2  0  0  0  0  0  0  0
      21           -73.100234241937457              0.1774061786D-08
   current occupation vector 
     2  1  1  0  0  0  0  0
     2  0  0  0  0  0  0  0
      22           -73.100234241937358              0.8660869053D-09
   current occupation vector 
     2  1  1  0  0  0  0  0
     2  0  0  0  0  0  0  0
      23           -73.100234241937429              0.2416451483D-07
   current occupation vector 
     2  1  1  0  0  0  0  0
     2  0  0  0  0  0  0  0
      24           -73.100234241937159              0.2421480483D-07
   current occupation vector 
     2  1  1  0  0  0  0  0
     2  0  0  0  0  0  0  0
      25           -73.100234241936917              0.4364885342D-08
   current occupation vector 
     2  1  1  0  0  0  0  0
     2  0  0  0  0  0  0  0
      26           -73.100234241937187              0.7765423415D-08
   current occupation vector 
     2  1  1  0  0  0  0  0
     2  0  0  0  0  0  0  0
      27           -73.100234241937216              0.6363163108D-08
   current occupation vector 
     2  1  1  0  0  0  0  0
     2  0  0  0  0  0  0  0
      28           -73.100234241937301              0.1461863963D-09
   current occupation vector 
     2  1  1  0  0  0  0  0
     2  0  0  0  0  0  0  0
      29           -73.100234241937613              0.2414384692D-08
   current occupation vector 
     2  1  1  0  0  0  0  0
     2  0  0  0  0  0  0  0
      30           -73.100234241937045              0.9492777009D-08
   current occupation vector 
     2  1  1  0  0  0  0  0
     2  0  0  0  0  0  0  0
      31           -73.100234241937258              0.1430586760D-07
   current occupation vector 
     2  1  1  0  0  0  0  0
     2  0  0  0  0  0  0  0
      32           -73.100234241937244              0.6975045652D-08
   current occupation vector 
     2  1  1  0  0  0  0  0
     2  0  0  0  0  0  0  0
      33           -73.100234241937201              0.1013211515D-07
   current occupation vector 
     2  1  1  0  0  0  0  0
     2  0  0  0  0  0  0  0
      34           -73.100234241937301              0.9646613952D-08
   current occupation vector 
     2  1  1  0  0  0  0  0
     2  0  0  0  0  0  0  0
      35           -73.100234241937159              0.3141619187D-08
   current occupation vector 
     2  1  1  0  0  0  0  0
     2  0  0  0  0  0  0  0
      36           -73.100234241937201              0.2159027179D-08
   current occupation vector 
     2  1  1  0  0  0  0  0
     2  0  0  0  0  0  0  0
      37           -73.100234241937486              0.9194740525D-09
   current occupation vector 
     2  1  1  0  0  0  0  0
     2  0  0  0  0  0  0  0
      38           -73.100234241937457              0.3819785821D-08
   current occupation vector 
     2  1  1  0  0  0  0  0
     2  0  0  0  0  0  0  0
      39           -73.100234241937500              0.3268076920D-09
   current occupation vector 
     2  1  1  0  0  0  0  0
     2  0  0  0  0  0  0  0
      40           -73.100234241937301              0.1877989764D-08
   current occupation vector 
     2  1  1  0  0  0  0  0
     2  0  0  0  0  0  0  0
      41           -73.100234241937272              0.4421158994D-09
   current occupation vector 
     2  1  1  0  0  0  0  0
     2  0  0  0  0  0  0  0
      42           -73.100234241937400              0.1641470483D-08
   current occupation vector 
     2  1  1  0  0  0  0  0
     2  0  0  0  0  0  0  0
      43           -73.100234241937187              0.1964888918D-08
   current occupation vector 
     2  1  1  0  0  0  0  0
     2  0  0  0  0  0  0  0
      44           -73.100234241937173              0.2252289022D-08
   current occupation vector 
     2  1  1  0  0  0  0  0
     2  0  0  0  0  0  0  0
      45           -73.100234241937116              0.6168570099D-09
   current occupation vector 
     2  1  1  0  0  0  0  0
     2  0  0  0  0  0  0  0
      46           -73.100234241936931              0.4307083579D-09
   current occupation vector 
     2  1  1  0  0  0  0  0
     2  0  0  0  0  0  0  0
      47           -73.100234241937272              0.6183817902D-08
   current occupation vector 
     2  1  1  0  0  0  0  0
     2  0  0  0  0  0  0  0
      48           -73.100234241937287              0.1682523521D-07
   current occupation vector 
     2  1  1  0  0  0  0  0
     2  0  0  0  0  0  0  0
      49           -73.100234241937045              0.5579921192D-08
   current occupation vector 
     2  1  1  0  0  0  0  0
     2  0  0  0  0  0  0  0
      50           -73.100234241937102              0.1064857091D-08
   current occupation vector 
     2  1  1  0  0  0  0  0
     2  0  0  0  0  0  0  0
      51           -73.100234241937159              0.6303979561D-09
   current occupation vector 
     2  1  1  0  0  0  0  0
     2  0  0  0  0  0  0  0
      52           -73.100234241937272              0.2378091057D-09
   current occupation vector 
     2  1  1  0  0  0  0  0
     2  0  0  0  0  0  0  0
      53           -73.100234241937272              0.1067333333D-08
   current occupation vector 
     2  1  1  0  0  0  0  0
     2  0  0  0  0  0  0  0
      54           -73.100234241937486              0.1327001220D-07
   current occupation vector 
     2  1  1  0  0  0  0  0
     2  0  0  0  0  0  0  0
      55           -73.100234241937230              0.3639589075D-07
   current occupation vector 
     2  1  1  0  0  0  0  0
     2  0  0  0  0  0  0  0
      56           -73.100234241937116              0.5046970619D-08
   current occupation vector 
     2  1  1  0  0  0  0  0
     2  0  0  0  0  0  0  0
      57           -73.100234241937372              0.2564174650D-07
   current occupation vector 
     2  1  1  0  0  0  0  0
     2  0  0  0  0  0  0  0
      58           -73.100234241937329              0.4920575503D-08
   current occupation vector 
     2  1  1  0  0  0  0  0
     2  0  0  0  0  0  0  0
      59           -73.100234241937315              0.3767094192D-08
   current occupation vector 
     2  1  1  0  0  0  0  0
     2  0  0  0  0  0  0  0
      60           -73.100234241937073              0.1446279253D-08
   current occupation vector 
     2  1  1  0  0  0  0  0
     2  0  0  0  0  0  0  0
      61           -73.100234241937216              0.4773981654D-08
   current occupation vector 
     2  1  1  0  0  0  0  0
     2  0  0  0  0  0  0  0
      62           -73.100234241937457              0.9756924874D-08
   current occupation vector 
     2  1  1  0  0  0  0  0
     2  0  0  0  0  0  0  0
      63           -73.100234241937656              0.7760895790D-08
   current occupation vector 
     2  1  1  0  0  0  0  0
     2  0  0  0  0  0  0  0
      64           -73.100234241937869              0.2195265303D-08
   current occupation vector 
     2  1  1  0  0  0  0  0
     2  0  0  0  0  0  0  0
      65           -73.100234241937216              0.1287628670D-08
   current occupation vector 
     2  1  1  0  0  0  0  0
     2  0  0  0  0  0  0  0
      66           -73.100234241936903              0.6079424075D-08
   current occupation vector 
     2  1  1  0  0  0  0  0
     2  0  0  0  0  0  0  0
      67           -73.100234241937045              0.1421745699D-07
   current occupation vector 
     2  1  1  0  0  0  0  0
     2  0  0  0  0  0  0  0
      68           -73.100234241937230              0.2911332508D-08
   current occupation vector 
     2  1  1  0  0  0  0  0
     2  0  0  0  0  0  0  0
      69           -73.100234241936775              0.1119216053D-08
   current occupation vector 
     2  1  1  0  0  0  0  0
     2  0  0  0  0  0  0  0
      70           -73.100234241936960              0.2415295963D-08
   current occupation vector 
     2  1  1  0  0  0  0  0
     2  0  0  0  0  0  0  0
      71           -73.100234241937443              0.7212355380D-08
   current occupation vector 
     2  1  1  0  0  0  0  0
     2  0  0  0  0  0  0  0
      72           -73.100234241937386              0.3943497062D-07
   current occupation vector 
     2  1  1  0  0  0  0  0
     2  0  0  0  0  0  0  0
      73           -73.100234241937372              0.2673083377D-07
   current occupation vector 
     2  1  1  0  0  0  0  0
     2  0  0  0  0  0  0  0
      74           -73.100234241937542              0.1092448820D-07
   current occupation vector 
     2  1  1  0  0  0  0  0
     2  0  0  0  0  0  0  0
      75           -73.100234241937017              0.2056019599D-07
   current occupation vector 
     2  1  1  0  0  0  0  0
     2  0  0  0  0  0  0  0
      76           -73.100234241937116              0.3387635772D-07
   current occupation vector 
     2  1  1  0  0  0  0  0
     2  0  0  0  0  0  0  0
      77           -73.100234241937230              0.4857456437D-08
   current occupation vector 
     2  1  1  0  0  0  0  0
     2  0  0  0  0  0  0  0
      78           -73.100234241937159              0.1495913726D-07
   current occupation vector 
     2  1  1  0  0  0  0  0
     2  0  0  0  0  0  0  0
      79           -73.100234241937287              0.1696385827D-08
   current occupation vector 
     2  1  1  0  0  0  0  0
     2  0  0  0  0  0  0  0
      80           -73.100234241937116              0.1059885771D-08
   current occupation vector 
     2  1  1  0  0  0  0  0
     2  0  0  0  0  0  0  0
      81           -73.100234241937073              0.1897426660D-08
   current occupation vector 
     2  1  1  0  0  0  0  0
     2  0  0  0  0  0  0  0
      82           -73.100234241937073              0.1578650544D-09
   current occupation vector 
     2  1  1  0  0  0  0  0
     2  0  0  0  0  0  0  0
      83           -73.100234241937230              0.3965283879D-08
   current occupation vector 
     2  1  1  0  0  0  0  0
     2  0  0  0  0  0  0  0
      84           -73.100234241937258              0.9316897698D-08
   current occupation vector 
     2  1  1  0  0  0  0  0
     2  0  0  0  0  0  0  0
      85           -73.100234241937159              0.5357483124D-08
   current occupation vector 
     2  1  1  0  0  0  0  0
     2  0  0  0  0  0  0  0
      86           -73.100234241937358              0.5154382698D-08
   current occupation vector 
     2  1  1  0  0  0  0  0
     2  0  0  0  0  0  0  0
      87           -73.100234241937216              0.1157063910D-08
   current occupation vector 
     2  1  1  0  0  0  0  0
     2  0  0  0  0  0  0  0
      88           -73.100234241937400              0.6092128135D-08
   current occupation vector 
     2  1  1  0  0  0  0  0
     2  0  0  0  0  0  0  0
      89           -73.100234241937343              0.2440863067D-08
   current occupation vector 
     2  1  1  0  0  0  0  0
     2  0  0  0  0  0  0  0
      90           -73.100234241937088              0.1432679086D-08
   current occupation vector 
     2  1  1  0  0  0  0  0
     2  0  0  0  0  0  0  0
      91           -73.100234241937230              0.8260247169D-08
   current occupation vector 
     2  1  1  0  0  0  0  0
     2  0  0  0  0  0  0  0
      92           -73.100234241937514              0.9079992314D-09
   current occupation vector 
     2  1  1  0  0  0  0  0
     2  0  0  0  0  0  0  0
      93           -73.100234241937770              0.5624675836D-08
   current occupation vector 
     2  1  1  0  0  0  0  0
     2  0  0  0  0  0  0  0
      94           -73.100234241938011              0.2582375824D-07
   current occupation vector 
     2  1  1  0  0  0  0  0
     2  0  0  0  0  0  0  0
      95           -73.100234241937201              0.2314829439D-08
   current occupation vector 
     2  1  1  0  0  0  0  0
     2  0  0  0  0  0  0  0
      96           -73.100234241937372              0.5893641664D-07
   current occupation vector 
     2  1  1  0  0  0  0  0
     2  0  0  0  0  0  0  0
      97           -73.100234241937386              0.1602670419D-07
   current occupation vector 
     2  1  1  0  0  0  0  0
     2  0  0  0  0  0  0  0
      98           -73.100234241937557              0.2017652734D-07
   current occupation vector 
     2  1  1  0  0  0  0  0
     2  0  0  0  0  0  0  0
      99           -73.100234241937372              0.5162409167D-08
   current occupation vector 
     2  1  1  0  0  0  0  0
     2  0  0  0  0  0  0  0
     100           -73.100234241937017              0.5460470964D-08
   current occupation vector 
     2  1  1  0  0  0  0  0
     2  0  0  0  0  0  0  0
     101           -73.100234241937230              0.4771397055D-08
   current occupation vector 
     2  1  1  0  0  0  0  0
     2  0  0  0  0  0  0  0
     102           -73.100234241937414              0.1667537664D-08
   current occupation vector 
     2  1  1  0  0  0  0  0
     2  0  0  0  0  0  0  0
     103           -73.100234241937599              0.7197720198D-09
   current occupation vector 
     2  1  1  0  0  0  0  0
     2  0  0  0  0  0  0  0
     104           -73.100234241937770              0.1702247056D-08
   current occupation vector 
     2  1  1  0  0  0  0  0
     2  0  0  0  0  0  0  0
     105           -73.100234241937173              0.2931414000D-08
   current occupation vector 
     2  1  1  0  0  0  0  0
     2  0  0  0  0  0  0  0
     106           -73.100234241936619              0.8954140984D-08
   current occupation vector 
     2  1  1  0  0  0  0  0
     2  0  0  0  0  0  0  0
     107           -73.100234241937159              0.4726583569D-09
   current occupation vector 
     2  1  1  0  0  0  0  0
     2  0  0  0  0  0  0  0
     108           -73.100234241936988              0.4473830639D-08
   current occupation vector 
     2  1  1  0  0  0  0  0
     2  0  0  0  0  0  0  0
     109           -73.100234241937159              0.1863176280D-09
   current occupation vector 
     2  1  1  0  0  0  0  0
     2  0  0  0  0  0  0  0
     110           -73.100234241937244              0.6456760016D-08
   current occupation vector 
     2  1  1  0  0  0  0  0
     2  0  0  0  0  0  0  0
     111           -73.100234241937230              0.4519808083D-08
   current occupation vector 
     2  1  1  0  0  0  0  0
     2  0  0  0  0  0  0  0
     112           -73.100234241937429              0.3484542810D-07
   current occupation vector 
     2  1  1  0  0  0  0  0
     2  0  0  0  0  0  0  0
     113           -73.100234241937514              0.1931957794D-06
   current occupation vector 
     2  1  1  0  0  0  0  0
     2  0  0  0  0  0  0  0
     114           -73.100234241937514              0.8906755533D-07
   current occupation vector 
     2  1  1  0  0  0  0  0
     2  0  0  0  0  0  0  0
     115           -73.100234241937272              0.2515104547D-07
   current occupation vector 
     2  1  1  0  0  0  0  0
     2  0  0  0  0  0  0  0
     116           -73.100234241937372              0.3425930872D-07
   current occupation vector 
     2  1  1  0  0  0  0  0
     2  0  0  0  0  0  0  0
     117           -73.100234241937130              0.1531311744D-08
   current occupation vector 
     2  1  1  0  0  0  0  0
     2  0  0  0  0  0  0  0
     118           -73.100234241937045              0.3992158826D-08
   current occupation vector 
     2  1  1  0  0  0  0  0
     2  0  0  0  0  0  0  0
     119           -73.100234241937116              0.4424248945D-07
   current occupation vector 
     2  1  1  0  0  0  0  0
     2  0  0  0  0  0  0  0
     120           -73.100234241937187              0.3942337568D-07
   current occupation vector 
     2  1  1  0  0  0  0  0
     2  0  0  0  0  0  0  0
     121           -73.100234241936917              0.2167127366D-08
   current occupation vector 
     2  1  1  0  0  0  0  0
     2  0  0  0  0  0  0  0
     122           -73.100234241936761              0.1419397488D-08
   current occupation vector 
     2  1  1  0  0  0  0  0
     2  0  0  0  0  0  0  0
     123           -73.100234241936889              0.3039073437D-09
   current occupation vector 
     2  1  1  0  0  0  0  0
     2  0  0  0  0  0  0  0
     124           -73.100234241936903              0.8929810225D-08
   current occupation vector 
     2  1  1  0  0  0  0  0
     2  0  0  0  0  0  0  0
     125           -73.100234241936974              0.5689521076D-08
   current occupation vector 
     2  1  1  0  0  0  0  0
     2  0  0  0  0  0  0  0
     126           -73.100234241936917              0.5793952873D-08
   current occupation vector 
     2  1  1  0  0  0  0  0
     2  0  0  0  0  0  0  0
     127           -73.100234241937329              0.3957983719D-08
   current occupation vector 
     2  1  1  0  0  0  0  0
     2  0  0  0  0  0  0  0
     128           -73.100234241937088              0.8677512486D-08
   current occupation vector 
     2  1  1  0  0  0  0  0
     2  0  0  0  0  0  0  0
     129           -73.100234241937457              0.1836470398D-07
   current occupation vector 
     2  1  1  0  0  0  0  0
     2  0  0  0  0  0  0  0
     130           -73.100234241937059              0.2681598943D-08
   current occupation vector 
     2  1  1  0  0  0  0  0
     2  0  0  0  0  0  0  0
     131           -73.100234241937414              0.6080925763D-08
   current occupation vector 
     2  1  1  0  0  0  0  0
     2  0  0  0  0  0  0  0
     132           -73.100234241937613              0.8553104891D-09
   current occupation vector 
     2  1  1  0  0  0  0  0
     2  0  0  0  0  0  0  0
     133           -73.100234241937613              0.3405960847D-08
   current occupation vector 
     2  1  1  0  0  0  0  0
     2  0  0  0  0  0  0  0
     134           -73.100234241937628              0.7051438984D-08
   current occupation vector 
     2  1  1  0  0  0  0  0
     2  0  0  0  0  0  0  0
     135           -73.100234241937173              0.1050493981D-07
   current occupation vector 
     2  1  1  0  0  0  0  0
     2  0  0  0  0  0  0  0
     136           -73.100234241937343              0.1863972088D-08
   current occupation vector 
     2  1  1  0  0  0  0  0
     2  0  0  0  0  0  0  0
     137           -73.100234241937471              0.9158110270D-08
   current occupation vector 
     2  1  1  0  0  0  0  0
     2  0  0  0  0  0  0  0
     138           -73.100234241937684              0.2463572235D-08
   current occupation vector 
     2  1  1  0  0  0  0  0
     2  0  0  0  0  0  0  0
     139           -73.100234241937457              0.6822073795D-08
   current occupation vector 
     2  1  1  0  0  0  0  0
     2  0  0  0  0  0  0  0
     140           -73.100234241937216              0.4474382642D-08
   current occupation vector 
     2  1  1  0  0  0  0  0
     2  0  0  0  0  0  0  0
     141           -73.100234241937116              0.5776623402D-08
   current occupation vector 
     2  1  1  0  0  0  0  0
     2  0  0  0  0  0  0  0
     142           -73.100234241937414              0.4157640898D-09
   current occupation vector 
     2  1  1  0  0  0  0  0
     2  0  0  0  0  0  0  0
     143           -73.100234241937471              0.1846830333D-07
   current occupation vector 
     2  1  1  0  0  0  0  0
     2  0  0  0  0  0  0  0
     144           -73.100234241937784              0.1216888590D-08
   current occupation vector 
     2  1  1  0  0  0  0  0
     2  0  0  0  0  0  0  0
     145           -73.100234241937443              0.5114996671D-07
   current occupation vector 
     2  1  1  0  0  0  0  0
     2  0  0  0  0  0  0  0
     146           -73.100234241937130              0.7335669694D-07
   current occupation vector 
     2  1  1  0  0  0  0  0
     2  0  0  0  0  0  0  0
     147           -73.100234241937144              0.4731149472D-08
   current occupation vector 
     2  1  1  0  0  0  0  0
     2  0  0  0  0  0  0  0
     148           -73.100234241937017              0.4249053109D-08
   current occupation vector 
     2  1  1  0  0  0  0  0
     2  0  0  0  0  0  0  0
     149           -73.100234241937017              0.3324879039D-08
   current occupation vector 
     2  1  1  0  0  0  0  0
     2  0  0  0  0  0  0  0
     150           -73.100234241937144              0.7834841664D-09
   current occupation vector 
     2  1  1  0  0  0  0  0
     2  0  0  0  0  0  0  0
     151           -73.100234241937429              0.3710701968D-08
   current occupation vector 
     2  1  1  0  0  0  0  0
     2  0  0  0  0  0  0  0
     152           -73.100234241937741              0.1622282619D-07
   current occupation vector 
     2  1  1  0  0  0  0  0
     2  0  0  0  0  0  0  0
     153           -73.100234241938011              0.3471824828D-08
   current occupation vector 
     2  1  1  0  0  0  0  0
     2  0  0  0  0  0  0  0
     154           -73.100234241937827              0.8353568060D-08
   current occupation vector 
     2  1  1  0  0  0  0  0
     2  0  0  0  0  0  0  0
     155           -73.100234241937130              0.3433470397D-08
   current occupation vector 
     2  1  1  0  0  0  0  0
     2  0  0  0  0  0  0  0
     156           -73.100234241937102              0.6991078827D-08
   current occupation vector 
     2  1  1  0  0  0  0  0
     2  0  0  0  0  0  0  0
     157           -73.100234241937144              0.1394917604D-07
   current occupation vector 
     2  1  1  0  0  0  0  0
     2  0  0  0  0  0  0  0
     158           -73.100234241937272              0.1472423072D-08
   current occupation vector 
     2  1  1  0  0  0  0  0
     2  0  0  0  0  0  0  0
     159           -73.100234241937329              0.2710613956D-08
   current occupation vector 
     2  1  1  0  0  0  0  0
     2  0  0  0  0  0  0  0
     160           -73.100234241937059              0.6158975774D-08
   current occupation vector 
     2  1  1  0  0  0  0  0
     2  0  0  0  0  0  0  0
     161           -73.100234241937343              0.1419751827D-07
   current occupation vector 
     2  1  1  0  0  0  0  0
     2  0  0  0  0  0  0  0
     162           -73.100234241937486              0.1442210228D-08
   current occupation vector 
     2  1  1  0  0  0  0  0
     2  0  0  0  0  0  0  0
     163           -73.100234241937898              0.1370370883D-07
   current occupation vector 
     2  1  1  0  0  0  0  0
     2  0  0  0  0  0  0  0
     164           -73.100234241937798              0.5201426090D-07
   current occupation vector 
     2  1  1  0  0  0  0  0
     2  0  0  0  0  0  0  0
     165           -73.100234241937144              0.2637739405D-07
   current occupation vector 
     2  1  1  0  0  0  0  0
     2  0  0  0  0  0  0  0
     166           -73.100234241937230              0.1621558088D-07
   current occupation vector 
     2  1  1  0  0  0  0  0
     2  0  0  0  0  0  0  0
     167           -73.100234241937301              0.1503855485D-08
   current occupation vector 
     2  1  1  0  0  0  0  0
     2  0  0  0  0  0  0  0
     168           -73.100234241937756              0.3682260363D-07
   current occupation vector 
     2  1  1  0  0  0  0  0
     2  0  0  0  0  0  0  0
     169           -73.100234241937585              0.1779059633D-07
   current occupation vector 
     2  1  1  0  0  0  0  0
     2  0  0  0  0  0  0  0
     170           -73.100234241937073              0.6587337764D-07
   current occupation vector 
     2  1  1  0  0  0  0  0
     2  0  0  0  0  0  0  0
     171           -73.100234241936960              0.1793239957D-07
   current occupation vector 
     2  1  1  0  0  0  0  0
     2  0  0  0  0  0  0  0
     172           -73.100234241937216              0.7908023791D-08
   current occupation vector 
     2  1  1  0  0  0  0  0
     2  0  0  0  0  0  0  0
     173           -73.100234241937159              0.9540664259D-08
   current occupation vector 
     2  1  1  0  0  0  0  0
     2  0  0  0  0  0  0  0
     174           -73.100234241937414              0.9713376770D-09
   current occupation vector 
     2  1  1  0  0  0  0  0
     2  0  0  0  0  0  0  0
     175           -73.100234241937272              0.2319386483D-07
   current occupation vector 
     2  1  1  0  0  0  0  0
     2  0  0  0  0  0  0  0
     176           -73.100234241937116              0.3949587701D-07
   current occupation vector 
     2  1  1  0  0  0  0  0
     2  0  0  0  0  0  0  0
     177           -73.100234241937315              0.2353658402D-07
   current occupation vector 
     2  1  1  0  0  0  0  0
     2  0  0  0  0  0  0  0
     178           -73.100234241937130              0.3992223507D-07
   current occupation vector 
     2  1  1  0  0  0  0  0
     2  0  0  0  0  0  0  0
     179           -73.100234241937343              0.1857821963D-07
   current occupation vector 
     2  1  1  0  0  0  0  0
     2  0  0  0  0  0  0  0
     180           -73.100234241937073              0.1867041388D-07
   current occupation vector 
     2  1  1  0  0  0  0  0
     2  0  0  0  0  0  0  0
     181           -73.100234241936960              0.2056272708D-08
   current occupation vector 
     2  1  1  0  0  0  0  0
     2  0  0  0  0  0  0  0
     182           -73.100234241936974              0.4420307675D-08
   current occupation vector 
     2  1  1  0  0  0  0  0
     2  0  0  0  0  0  0  0
     183           -73.100234241937230              0.7701310922D-08
   current occupation vector 
     2  1  1  0  0  0  0  0
     2  0  0  0  0  0  0  0
     184           -73.100234241937329              0.2209879080D-07
   current occupation vector 
     2  1  1  0  0  0  0  0
     2  0  0  0  0  0  0  0
     185           -73.100234241937031              0.1268496241D-07
   current occupation vector 
     2  1  1  0  0  0  0  0
     2  0  0  0  0  0  0  0
     186           -73.100234241937244              0.1506586411D-08
   current occupation vector 
     2  1  1  0  0  0  0  0
     2  0  0  0  0  0  0  0
     187           -73.100234241937571              0.1652953840D-07
   current occupation vector 
     2  1  1  0  0  0  0  0
     2  0  0  0  0  0  0  0
     188           -73.100234241937585              0.7306886207D-08
   current occupation vector 
     2  1  1  0  0  0  0  0
     2  0  0  0  0  0  0  0
     189           -73.100234241937798              0.1175820330D-08
   current occupation vector 
     2  1  1  0  0  0  0  0
     2  0  0  0  0  0  0  0
     190           -73.100234241937088              0.4266266895D-08
   current occupation vector 
     2  1  1  0  0  0  0  0
     2  0  0  0  0  0  0  0
     191           -73.100234241937528              0.1805490993D-08
   current occupation vector 
     2  1  1  0  0  0  0  0
     2  0  0  0  0  0  0  0
     192           -73.100234241937272              0.3719727415D-08
   current occupation vector 
     2  1  1  0  0  0  0  0
     2  0  0  0  0  0  0  0
     193           -73.100234241937187              0.3355915545D-08
   current occupation vector 
     2  1  1  0  0  0  0  0
     2  0  0  0  0  0  0  0
     194           -73.100234241937244              0.2857600379D-08
   current occupation vector 
     2  1  1  0  0  0  0  0
     2  0  0  0  0  0  0  0
     195           -73.100234241937130              0.8123636208D-08
   current occupation vector 
     2  1  1  0  0  0  0  0
     2  0  0  0  0  0  0  0
     196           -73.100234241937116              0.6467706815D-08
   current occupation vector 
     2  1  1  0  0  0  0  0
     2  0  0  0  0  0  0  0
     197           -73.100234241937230              0.1860424259D-08
   current occupation vector 
     2  1  1  0  0  0  0  0
     2  0  0  0  0  0  0  0
     198           -73.100234241937599              0.6379006212D-08
   current occupation vector 
     2  1  1  0  0  0  0  0
     2  0  0  0  0  0  0  0
     199           -73.100234241937699              0.1552712915D-08
   current occupation vector 
     2  1  1  0  0  0  0  0
     2  0  0  0  0  0  0  0
     200           -73.100234241937244              0.7976574956D-09
   current occupation vector 
     2  1  1  0  0  0  0  0
     2  0  0  0  0  0  0  0
     201           -73.100234241937216              0.4191760783D-07
   current occupation vector 
     2  1  1  0  0  0  0  0
     2  0  0  0  0  0  0  0
     202           -73.100234241937429              0.4128814823D-07
   current occupation vector 
     2  1  1  0  0  0  0  0
     2  0  0  0  0  0  0  0
     203           -73.100234241937571              0.2812790223D-08
   current occupation vector 
     2  1  1  0  0  0  0  0
     2  0  0  0  0  0  0  0
     204           -73.100234241937770              0.1382721582D-07
   current occupation vector 
     2  1  1  0  0  0  0  0
     2  0  0  0  0  0  0  0
     205           -73.100234241937017              0.1582754483D-07
   current occupation vector 
     2  1  1  0  0  0  0  0
     2  0  0  0  0  0  0  0
     206           -73.100234241937258              0.5650202972D-08
   current occupation vector 
     2  1  1  0  0  0  0  0
     2  0  0  0  0  0  0  0
     207           -73.100234241937486              0.1165421692D-07
   current occupation vector 
     2  1  1  0  0  0  0  0
     2  0  0  0  0  0  0  0
     208           -73.100234241937486              0.1154491347D-07
   current occupation vector 
     2  1  1  0  0  0  0  0
     2  0  0  0  0  0  0  0
     209           -73.100234241937471              0.4536049314D-09
   current occupation vector 
     2  1  1  0  0  0  0  0
     2  0  0  0  0  0  0  0
     210           -73.100234241937159              0.4957302124D-08
   current occupation vector 
     2  1  1  0  0  0  0  0
     2  0  0  0  0  0  0  0
     211           -73.100234241937201              0.4459782099D-08
   current occupation vector 
     2  1  1  0  0  0  0  0
     2  0  0  0  0  0  0  0
     212           -73.100234241937443              0.7317032313D-08
   current occupation vector 
     2  1  1  0  0  0  0  0
     2  0  0  0  0  0  0  0
     213           -73.100234241937429              0.6316699164D-08
   current occupation vector 
     2  1  1  0  0  0  0  0
     2  0  0  0  0  0  0  0
     214           -73.100234241937500              0.1126919669D-08
   current occupation vector 
     2  1  1  0  0  0  0  0
     2  0  0  0  0  0  0  0
     215           -73.100234241937002              0.5828333594D-08
   current occupation vector 
     2  1  1  0  0  0  0  0
     2  0  0  0  0  0  0  0
     216           -73.100234241937130              0.7354904463D-08
   current occupation vector 
     2  1  1  0  0  0  0  0
     2  0  0  0  0  0  0  0
     217           -73.100234241937287              0.3878772858D-08
   current occupation vector 
     2  1  1  0  0  0  0  0
     2  0  0  0  0  0  0  0
     218           -73.100234241937258              0.5651705770D-09
   current occupation vector 
     2  1  1  0  0  0  0  0
     2  0  0  0  0  0  0  0
     219           -73.100234241937343              0.4512258567D-08
   current occupation vector 
     2  1  1  0  0  0  0  0
     2  0  0  0  0  0  0  0
     220           -73.100234241937216              0.4791282038D-08
   current occupation vector 
     2  1  1  0  0  0  0  0
     2  0  0  0  0  0  0  0
     221           -73.100234241936946              0.2039123315D-08
   current occupation vector 
     2  1  1  0  0  0  0  0
     2  0  0  0  0  0  0  0
     222           -73.100234241937272              0.6959177012D-08
   current occupation vector 
     2  1  1  0  0  0  0  0
     2  0  0  0  0  0  0  0
     223           -73.100234241937400              0.1652606940D-07
   current occupation vector 
     2  1  1  0  0  0  0  0
     2  0  0  0  0  0  0  0
     224           -73.100234241937613              0.2194624815D-07
   current occupation vector 
     2  1  1  0  0  0  0  0
     2  0  0  0  0  0  0  0
[...]
   384.312273056995        384.341719662934        630.464189897944     
   686.965492651903        686.977330252837        1544.86626674807     
  3.871275097573808E-002   1.37660842932517        3.49762707119454     
   3.52230621372809        4.61838209513182        11.0348486558644     
   11.0858023622101        12.4059370167746        18.5759375075072     
   18.5997080081814        18.6474529471116        29.4558531985917     
   29.5214088443675        31.3403918721880        78.8104468667240     
   121.339118256715        121.387535292701        195.827651020470     
   449.937317908581        449.959742216354        482.749669029698     
   1220.70017248189       3.871275097570258E-002   1.37660842932515     
   3.49762707119459        3.52230621372808        4.61838209513180     
   11.0348486558645        11.0858023622101        12.4059370167745     
   18.5759375075072        18.5997080081814        18.6474529471115     
   29.4558531985914        29.5214088443676        31.3403918721881     
   78.8104468667245        121.339118256715        121.387535292701     
   195.827651020470        449.937317908582        449.959742216357     
   482.749669029697        1220.70017248189       0.997304534355997     
   3.94179026833993        7.91930269602331        7.95387486488771     
   10.5926646145760        24.4062575165597        24.4678729723193     
   26.3394488230189        76.8110527295831        229.070016031976     
   384.312273056994        384.341719662930        686.977330252834     
 @CHECKOUT-I, Total execution time (CPU/WALL):       22.69/     191.26 seconds.
--executable xvtran finished with status     0 in      191.32 seconds (walltime).
 --invoking executable--
/cvmfs/restricted.computecanada.ca/easybuild/software/2020/avx2/Compiler/intel2020/cfour/2.1/bin/xintprc
 @GETMEM-I,  Allocated   19073 MB of main memory.
  @GMOIAA-I, Processing MO integrals for spin case AA.
  @GMOIAA-I, Generation of integral list completed.
                      TYPE                NUMBER
                      ----               --------
                      PPPP              42136039
                      PPPH               2991426
                      PPHH                 55125
                      PHPH                 35162
                      PHHH                  1464
                      HHHH                    22

                     TOTAL              45219238
  @GMOIAA-I, Processing MO integrals for spin case BB.
  @GMOIAA-I, Generation of integral list completed.
                      TYPE                NUMBER
                      ----               --------
                      PPPP              43641400
                      PPPH               1551096
                      PPHH                 15015
                      PHPH                 11433
                      PHHH                   288
                      HHHH                     6

                     TOTAL              45219238
  @GMOIAB-I, Processing MO integrals for spin case AB.
                      TYPE                NUMBER
                      ----               --------
                      PPPP              85737730
                      PPPH1H             3045414
                      PPPH2H             1523828
                      PPHH                 56332
                      PHPH1P               11229
                      PHPH2P               35849
                      PHHH1P                 486
                      PHHH2P                 796
                      HHHH                    15

                     TOTAL              90411679

  @FORMT2-I, Second-order MP correlation energies:
  @FORMT2-I, Singles contribution will be calculated.
            ------------------------------------------------
            E(SCF)                  =    -73.100234241937 a.u.
            E2(AA)                  =     -0.019736853944 a.u.
            E2(BB)                  =     -0.001205859601 a.u.
            E2(AB)                  =     -0.125374756050 a.u.
            E2(SINGLE)              =     -0.004802968042 a.u.
            E2(TOT)                 =     -0.146317469595 a.u.
            Total MP2 energy        =    -73.251354679574 a.u.
            ------------------------------------------------
            ----------------------------------------------
                     Projected spin multiplicities: 
            ----------------------------------------------
             <0|S^2|0>                  =    2.0000000000.
             <0|S^2 T2|0>               =    0.0000000000.
             Projected <0|S^2 exp(T)|0> =    2.0000000000.
             Approximate spin mult.     =    3.0000000000.
            ----------------------------------------------
   Largest T2 amplitudes for spin case AA:
   i   j   a   b             i   j   a   b             i   j   a   b
-----------------------------------------------------------------------------
[  4   3 120  10]-0.01091 [  4   2 198 141] 0.01015 [  3   2 176 141] 0.01015
[  4   2 197 141]-0.00813 [  3   2 175 141]-0.00813 [  4   3 120   7] 0.00798
[  4   3 119  10] 0.00798 [  4   3  87  54]-0.00731 [  4   3  90  57]-0.00730
[  4   3 119   7]-0.00700 [  4   3  87  57] 0.00676 [  4   3  90  54] 0.00676
[  4   3 120  15] 0.00672 [  4   3 123  10] 0.00672 [  4   3 123  15]-0.00620
-----------------------------------------------------------------------------
   Norm of T2AA vector (    19963 symmetry allowed elements):  0.0452290381.
-----------------------------------------------------------------------------
   Largest T2 amplitudes for spin case BB:
   i   j   a   b             i   j   a   b             i   j   a   b
-----------------------------------------------------------------------------
[  2   1 149 141]-0.00149 [  2   1 155 141] 0.00147 [  2   1  59  51]-0.00147
[  2   1  93  85]-0.00147 [  2   1  99  85] 0.00144 [  2   1  65  51] 0.00144
[  2   1 146 141] 0.00088 [  2   1  90  85] 0.00087 [  2   1  56  51] 0.00087
[  2   1  99  90] 0.00077 [  2   1  65  56] 0.00077 [  2   1 155 146] 0.00076
[  2   1 161 141]-0.00068 [  2   1  65  53]-0.00067 [  2   1  99  87]-0.00067
-----------------------------------------------------------------------------
   Norm of T2BB vector (     3582 symmetry allowed elements):  0.0052969423.
-----------------------------------------------------------------------------
   Largest T2 amplitudes for spin case AB:
       _       _                 _       _                 _       _
   i   j   a   b             i   j   a   b             i   j   a   b
-----------------------------------------------------------------------------
[  2   2 141 141]-0.06572 [  4   2 198 141] 0.01983 [  3   2 176 141] 0.01983
[  3   2  10  51] 0.01943 [  3   2 120  85] 0.01943 [  4   2 120  51] 0.01943
[  4   2  10  85]-0.01943 [  4   2 197 141]-0.01535 [  3   2 175 141]-0.01535
[  3   2   7  51]-0.01530 [  4   2 119  51]-0.01530 [  3   2 119  85]-0.01530
[  4   2   7  85] 0.01530 [  3   2 179 141]-0.01169 [  4   2 201 141]-0.01169
-----------------------------------------------------------------------------
   Norm of T2AB vector (    56332 symmetry allowed elements):  0.1196679735.
-----------------------------------------------------------------------------
 @CHECKOUT-I, Total execution time (CPU/WALL):       34.44/      69.32 seconds.
--executable xintprc finished with status     0 in       69.58 seconds (walltime).
  calling xvcc 
 --invoking executable--
/cvmfs/restricted.computecanada.ca/easybuild/software/2020/avx2/Compiler/intel2020/cfour/2.1/bin/xvcc
 @GETMEM-I,  Allocated   19073 MB of main memory.
   CCSDT   energy will be calculated.
   The reference state is a ROHF wave function.
   The total correlation energy is -0.151176310576 a.u.
  transposing abij 
   The total correlation energy is -0.165205038994 a.u.
  Convergence information after     1 iterations: 
  Largest element of residual vector : -0.27899507E-01.
  Largest element of DIIS residual   : -0.27899507E-01.
  transposing abij 
   The total correlation energy is -0.169576006555 a.u.
  Convergence information after     2 iterations: 
  Largest element of residual vector : -0.14580488E-01.
  Largest element of DIIS residual   : -0.52524742E-02.
  transposing abij 
   The total correlation energy is -0.172473970883 a.u.
  Convergence information after     3 iterations: 
  Largest element of residual vector : -0.27756810E-02.
  Largest element of DIIS residual   : -0.37934662E-03.
  transposing abij 
   The total correlation energy is -0.172877172897 a.u.
  Convergence information after     4 iterations: 
  Largest element of residual vector : -0.36630658E-03.
  Largest element of DIIS residual   : -0.75147891E-04.
  transposing abij 
   The total correlation energy is -0.172926833782 a.u.
  Convergence information after     5 iterations: 
  Largest element of residual vector : -0.22481328E-04.
  Largest element of DIIS residual   :  0.11991941E-04.
  transposing abij 
   The total correlation energy is -0.172928024795 a.u.
  Convergence information after     6 iterations: 
  Largest element of residual vector :  0.48736622E-05.
  Largest element of DIIS residual   :  0.33890023E-05.
  transposing abij 
   The total correlation energy is -0.172929224041 a.u.
  Convergence information after     7 iterations: 
  Largest element of residual vector :  0.15969131E-05.
  Largest element of DIIS residual   : -0.85336544E-06.
  transposing abij 
   The total correlation energy is -0.172929729466 a.u.
  Convergence information after     8 iterations: 
  Largest element of residual vector : -0.42224840E-06.
  Largest element of DIIS residual   :  0.26590463E-06.
  transposing abij 
   The total correlation energy is -0.172929817869 a.u.
  Convergence information after     9 iterations: 
  Largest element of residual vector :  0.18823848E-06.
  Largest element of DIIS residual   :  0.11908127E-06.
  transposing abij 
   The total correlation energy is -0.172929841818 a.u.
  Convergence information after    10 iterations: 
  Largest element of residual vector :  0.91095919E-07.
  Largest element of DIIS residual   : -0.48606196E-07.
  transposing abij 
   The total correlation energy is -0.172929861975 a.u.
  Convergence information after    11 iterations: 
  Largest element of residual vector : -0.19059081E-07.
  Largest element of DIIS residual   : -0.10224511E-07.
  transposing abij 
   The total correlation energy is -0.172929868267 a.u.
  Convergence information after    12 iterations: 
  Largest element of residual vector :  0.30877098E-07.
  Largest element of DIIS residual   : -0.61774900E-08.
  transposing abij 
   The total correlation energy is -0.172929876238 a.u.
  Convergence information after    13 iterations: 
  Largest element of residual vector : -0.12486481E-07.
  Largest element of DIIS residual   :  0.14495993E-08.
  transposing abij 
   The total correlation energy is -0.172929875416 a.u.
  Convergence information after    14 iterations: 
  Largest element of residual vector :  0.84482851E-08.
  Largest element of DIIS residual   :  0.16696232E-08.
  transposing abij 
   The total correlation energy is -0.172929875871 a.u.
  Convergence information after    15 iterations: 
  Largest element of residual vector :  0.94163633E-08.
  Largest element of DIIS residual   : -0.76128773E-09.
  transposing abij 
   The total correlation energy is -0.172929875281 a.u.
  Convergence information after    16 iterations: 
  Largest element of residual vector :  0.23323125E-07.
  Largest element of DIIS residual   :  0.55199609E-09.
  transposing abij 
   The total correlation energy is -0.172929876122 a.u.
  Convergence information after    17 iterations: 
  Largest element of residual vector :  0.95073347E-08.
  Largest element of DIIS residual   :  0.15115974E-09.
  transposing abij 
   The total correlation energy is -0.172929876584 a.u.
  Convergence information after    18 iterations: 
  Largest element of residual vector :  0.27455341E-09.
  Largest element of DIIS residual   :  0.68499263E-10.
  transposing abij 
   The total correlation energy is -0.172929876716 a.u.
  Convergence information after    19 iterations: 
  Largest element of residual vector : -0.12345896E-08.
  Largest element of DIIS residual   :  0.19053114E-10.
  transposing abij 
   The total correlation energy is -0.172929876647 a.u.
  Convergence information after    20 iterations: 
  Largest element of residual vector :  0.38117473E-09.
  Largest element of DIIS residual   : -0.91572696E-11.
  transposing abij 
   The total correlation energy is -0.172929876670 a.u.
  Convergence information after    21 iterations: 
  Largest element of residual vector : -0.18065990E-10.
  Largest element of DIIS residual   : -0.35114281E-11.
  Amplitude equations converged in    21iterations.
   The total correlation energy is -0.172929876670 a.u.
   The CC iterations have converged.

            ----------------------------------------------
                     Projected spin multiplicities: 
            ----------------------------------------------
             <0|S^2|0>                  =    2.0000000000.
             <0|S^2 (T2+T1**2) |0>      =    0.0000000000.
             <0|S^2 T1|0>               =    0.0000000000.
             Projected <0|S^2 exp(T)|0> =    2.0000000000.
             Approximate spin mult.     =    3.0000000000.
            ----------------------------------------------
   Largest T1 amplitudes for spin case AA:
   i       a                 i       a                 i       a    
-----------------------------------------------------------------------------
[  2       5    ] 0.01338 [  2       6    ]-0.01260 [  2       9    ] 0.01215
[  2      11    ]-0.00958 [  2       8    ] 0.00641 [  2      16    ]-0.00629
[  2      17    ]-0.00323 [  4      90    ] 0.00163 [  3      57    ] 0.00163
[  4      87    ]-0.00154 [  3      54    ]-0.00154 [  2      21    ]-0.00149
[  1      17    ]-0.00108 [  1       9    ] 0.00105 [  4      86    ] 0.00090
-----------------------------------------------------------------------------
   Norm of T1AA vector (      162 symmetry allowed elements):  0.0262236104.
-----------------------------------------------------------------------------
   Largest T2 amplitudes for spin case AA:
   i   j   a   b             i   j   a   b             i   j   a   b
-----------------------------------------------------------------------------
[  4   3 120  10]-0.01152 [  3   2 176 141] 0.00999 [  4   2 198 141] 0.00999
[  4   3  87  54]-0.00888 [  4   3  90  57]-0.00860 [  4   2 197 141]-0.00857
[  3   2 175 141]-0.00857 [  4   3 120   7] 0.00839 [  4   3 119  10] 0.00839
[  4   3  90  54] 0.00816 [  4   3  87  57] 0.00816 [  4   3 119   7]-0.00723
[  4   3 120  15] 0.00705 [  4   3 123  10] 0.00705 [  4   3  86  54] 0.00686
-----------------------------------------------------------------------------
   Norm of T2AA vector (    19963 symmetry allowed elements):  0.0492450601.
-----------------------------------------------------------------------------
   Largest T1 amplitudes for spin case BB:
   i       a                 i       a                 i       a    
-----------------------------------------------------------------------------
[  2       8    ] 0.02007 [  2       5    ]-0.01600 [  2      13    ] 0.01093
[  2       4    ] 0.00945 [  2       3    ]-0.00923 [  2       7    ]-0.00688
[  2      19    ] 0.00257 [  2      15    ] 0.00117 [  1      13    ] 0.00074
[  1      15    ] 0.00069 [  1      19    ] 0.00065 [  1       7    ]-0.00064
[  1       8    ] 0.00052 [  2      21    ] 0.00046 [  1      21    ]-0.00045
-----------------------------------------------------------------------------
   Norm of T1BB vector (       96 symmetry allowed elements):  0.0317985010.
-----------------------------------------------------------------------------
   Largest T2 amplitudes for spin case BB:
   i   j   a   b             i   j   a   b             i   j   a   b
-----------------------------------------------------------------------------
[  2   1  59  51]-0.00141 [  2   1  93  85]-0.00141 [  2   1  99  85] 0.00140
[  2   1  65  51] 0.00140 [  2   1 155 141] 0.00133 [  2   1 149 141]-0.00127
[  2   1  90  85] 0.00082 [  2   1  56  51] 0.00082 [  2   1 155 146] 0.00077
[  2   1  99  90] 0.00077 [  2   1  65  56] 0.00077 [  2   1 146 141] 0.00068
[  2   1  65  53]-0.00066 [  2   1  99  87]-0.00066 [  2   1 105  85]-0.00065
-----------------------------------------------------------------------------
   Norm of T2BB vector (     3582 symmetry allowed elements):  0.0050624508.
-----------------------------------------------------------------------------
   Largest T2 amplitudes for spin case AB:
       _       _                 _       _                 _       _
   i   j   a   b             i   j   a   b             i   j   a   b
-----------------------------------------------------------------------------
[  2   2 141 141]-0.12468 [  3   2 176 141] 0.02529 [  4   2 198 141] 0.02529
[  3   2  10  51] 0.02450 [  3   2 120  85] 0.02450 [  4   2 120  51] 0.02450
[  4   2  10  85]-0.02450 [  4   2 197 141]-0.02127 [  3   2 175 141]-0.02127
[  3   2   7  51]-0.02102 [  4   2 119  51]-0.02102 [  3   2 119  85]-0.02102
[  4   2   7  85] 0.02102 [  2   2 141 142]-0.01898 [  2   2 141 143]-0.01733
-----------------------------------------------------------------------------
   Norm of T2AB vector (    56332 symmetry allowed elements):  0.1770008022.
-----------------------------------------------------------------------------
       Summary of iterative solution of CC equations 
      -----------------------------------------------------------
                       Correlation           Total
       Iteration         Energy              Energy
      -----------------------------------------------------------
            0        -0.151176310576     -73.251410552513  DIIS 
            1        -0.165205038994     -73.265439280931  DIIS 
            2        -0.169576006555     -73.269810248492  DIIS 
            3        -0.172473970883     -73.272708212820  DIIS 
            4        -0.172877172897     -73.273111414834  DIIS 
            5        -0.172926833782     -73.273161075720  DIIS 
            6        -0.172928024795     -73.273162266732  DIIS 
            7        -0.172929224041     -73.273163465978  DIIS 
            8        -0.172929729466     -73.273163971403  DIIS 
            9        -0.172929817869     -73.273164059806  DIIS 
           10        -0.172929841818     -73.273164083755  DIIS 
           11        -0.172929861975     -73.273164103912  DIIS 
           12        -0.172929868267     -73.273164110204  DIIS 
           13        -0.172929876238     -73.273164118175  DIIS 
           14        -0.172929875416     -73.273164117354  DIIS 
           15        -0.172929875871     -73.273164117808  DIIS 
           16        -0.172929875281     -73.273164117218  DIIS 
           17        -0.172929876122     -73.273164118059  DIIS 
           18        -0.172929876584     -73.273164118521  DIIS 
           19        -0.172929876716     -73.273164118653  DIIS 
           20        -0.172929876647     -73.273164118584  DIIS 
           21        -0.172929876670     -73.273164118608  DIIS 
      -----------------------------------------------------------
      A miracle has come to pass. The CC iterations have converged.
      The reference energy is       -73.10023424193719 a.u.
      The correlation energy is      -0.17292987667035 a.u.
      The total energy is           -73.27316411860754 a.u.
 @CHECKOUT-I, Total execution time (CPU/WALL):     3414.84/    3458.29 seconds.
--executable xvcc finished with status     0 in     3458.40 seconds (walltime).
  The final electronic energy is       -73.273164118607539 a.u. 
  This computation required                         3918.64 seconds (walltime).
Program finished with exit code 0 at: Tue Mar 26 12:23:22 EDT 2024

