Starting run at: Tue Mar 26 10:41:25 EDT 2024
 --invoking executable--
/cvmfs/restricted.computecanada.ca/easybuild/software/2020/avx2/Compiler/intel2020/cfour/2.1/bin/xjoda


   *************************************************************************
         <<<     CCCCCC     CCCCCC   |||     CCCCCC     CCCCCC   >>>
       <<<      CCC        CCC       |||    CCC        CCC         >>>
      <<<      CCC        CCC        |||   CCC        CCC            >>>
    <<<        CCC        CCC        |||   CCC        CCC              >>>
      <<<      CCC        CCC        |||   CCC        CCC            >>>
       <<<      CCC        CCC       |||    CCC        CCC         >>>
         <<<     CCCCCC     CCCCCC   |||     CCCCCC     CCCCCC   >>>
   *************************************************************************

     ****************************************************************
     * CFOUR Coupled-Cluster techniques for Computational Chemistry *
     ****************************************************************
 

   Department of Chemistry                Institut fuer Physikalische Chemie
   University of Florida                  Universitaet Mainz
   Gainesville, FL 32611, USA             D-55099 Mainz, Germany

   Department of Chemistry                Fakultaet fuer Chemie und Biowiss.
   Johns Hopkins University               Karlsruher Institut fuer Technologie
   Baltimore, MD 21218, USA               D-76131 Karlsruhe, Germany

   Department of Chemistry                Department of Physical Chemistry
   Southern Methodist University          Eotvos Lorand University
   Dallas, TX 75275, USA                  H-1053 Budapest, Hungary

 
                       Version 2.1
 
                     gra610                                            
                     Tue Mar 26 10:41:26 EDT 2024                      
                     integer*8 version is running
 
********************************************************************************
*                          Input from ZMAT file                                *
********************************************************************************
TITLE                                                                           
O                                                                               
                                                                                
*ACES2(CALC=CCSDT                                                               
#FROZEN_CORE=ON                                                                 
#DROPMO=1                                                                       
#INPUT_MRCC=OFF                                                                 
#CC_PROG=MRCC                                                                   
XFORM_TOL=18                                                                    
SAVE_INTS=ON                                                                    
SCF_EXPORDER=6                                                                  
SCF_EXPSTART=5                                                                  
#SCF_DAMPING=1000                                                               
SCF_EXTRAPOLATION=ON                                                            
SCF_CONV=10                                                                     
SCF_MAXCYC=9999                                                                 
CC_CONV=10                                                                      
CC_MAXCYC=999                                                                   
T3_EXTRAPOL=ON                                                                  
REFERENCE=ROHF                                                                  
CHARGE=+2                                                                       
MULT=3                                                                          
ABCDTYPE=STANDARD                                                               
OCCUPATION=2-1-1-0-0-0-0-0/2-0-0-0-0-0-0-0                                      
MEM=20                                                                          
MEM_UNIT=GB                                                                     
BASIS=SPECIAL)                                                                  
                                                                                
O:aCVQZ-EMSL                                                                    
                                                                                
********************************************************************************
  @GTFLGS-W, Keyword #FROZEN_CORE not known and is ignored.
  @GTFLGS-W, Keyword #DROPMO not known and is ignored.
  @GTFLGS-W, Keyword #INPUT_MRCC not known and is ignored.
  @GTFLGS-W, Keyword #CC_PROG not known and is ignored.
  @GTFLGS-W, Keyword #SCF_DAMPING not known and is ignored.
    -------------------------------------------------------------------
                    CFOUR Control Parameters 
    -------------------------------------------------------------------
        External           Internal           Value            Units
          Name               Name
    -------------------------------------------------------------------
       ABCDTYPE             IABCDT         STANDARD    [  0]    ***   
       ANHARMONIC           IANHAR         OFF         [  0]    ***   
       ANH_ALGORIT          IANALG         STANDARD    [  0]    ***   
       ANH_DERIVAT          IANDER         SECOND      [  1]    ***   
       ANH_MODE             ANHMOD         VIBRATION   [  0]    ***   
       ANH_STEPSIZ          ICUBST             50000          x 10-6  
       ANH_SYMMETR          IANHSM         ABELIAN     [  0]    ***   
       AO_LADDERS           IAOLAD         SINGLEPASS  [  1]    ***   
       AV_SCF               IAVSCF         OFF         [  0]    ***   
       BASIS                IBASIS         SPECIAL     [  0]    ***   
       BOTHVECTORS          BOTHVC         OFF         [  0]    ***   
       BOX_POTENT           IPIAB          OFF         [  0]    ***   
       BREIT                IBREIT         OFF         [  0]    ***   
       BRUCK_CONV           IBRTOL          10D-  4             ***   
       BRUECKNER            IBRKNR         OFF         [  0]    ***   
       BUFFERSIZE           IBUFFS              4096            ***   
       CACHE_RECS           ICHREC             10               ***   
       CALCLEVEL            ICLLVL         CCSDT       [ 18]    ***   
       CCORBOPT             ICCORB         OFF         [  0]  x 0.01  
       CC_CONV              ICCCNV          10D- 10             ***   
       CC_EXPORDER          ICCEOR              5               ***   
       CC_EXTRAPOL          ICCEXT         DIIS        [  1]    ***   
       CC_GUESS             ICCGES         MP2         [  0]    ***   
       CC_MAXCYC            ICCCYC            999              cycles 
       CC_PROGRAM           ICCPRO         VCC         [  0]    ***   
       CHARGE               ICHRGE              2               ***   
       CHOLESKY             ICHOLE         OFF         [  0]    ***   
       CIS_CONV             ICISTL              5               ***   
       COMM_SIZE            IPSIZE            ***               ***   
       CONSTANT             ICONST         OLD         [  1]    ***   
       CONTINUUM            ICONTU         NONE        [  0]    ***   
       CONTRACTION          ICNTYP         GENERAL     [  1]    ***   
       COORDINATES          ICOORD         INTERNAL    [  0]    ***   
       CPHF_CONVER          ICPHFT          10D- 16             ***   
       CPHF_MAXCYC          ICPHFC             64              cycles 
       CUBIC                ICUBIC         OFF         [  0]    ***   
       CURVILINEAR          ICURVY         OFF         [  0]    ***   
       DBOC                 IDBOC          OFF         [  0]    ***   
       DCT                  IDCT           OFF         [  0]    ***   
       DERIV_LEV            IDRLVL         ZERO        [  0]    ***   
       DEVMEM_SIZE          IDVMEM         *********           MByte  
       DIAG_MRCC            IEOMST          10D-  0             ***   
       DIFF_TYPE            IDIFTY         RELAXED     [  0]    ***   
       DIRECT               IDIRCT         OFF         [  0]    ***   
       DROPMO               IDRPMO      NONE         
       ECP                  IECP           OFF         [  0]    ***   
       EIGENVECTOR          IVEC                1               ***   
       EL_ANHARM            IELANH         OFF         [  0]    ***   
       EOMFOLLOW            IEOMSR         ENERGY      [  0]    ***   
       EOMIP                IEOMIP         OFF         [  0]    ***   
       EOMLEVEL             HBARFM         SAME        [  0]    ***   
       EOM_MRCC             IMRCCE         NEW         [  1]    ***   
       EOM_NONIT            EOMNON         OFF         [  0]    ***   
       EOM_NSING            IEOMSI          10D-  0             ***   
       EOM_NSTATES          IMRCCD         DAVIDSON    [  0]    ***   
       EOM_NTRIP            IEOMTR          10D-  0             ***   
       EOM_ORDER            IEXORD         ENERGY      [  0]    ***   
       EOM_PROPSTA          IEOMST              0               ***   
       ESTATE_CONV          IEXTOL          10D-  5             ***   
       ESTATE_DIAG          IEXDIG         ITERATIVE   [  0]    ***   
       ESTATE_LOCK          IESLOC         ON          [  1]    ***   
       ESTATE_MAXC          IEXMXC             40               ***   
       ESTATE_PROP          IEXPRP         OFF         [  0]    ***   
       EVAL_HESS            IRECAL              0            # of cyc.
       EXCITATION           IEXCIT              0               ***   
       EXCITE               IEXCIT         NONE        [  0]    ***   
       EXTERN_POT           IEXPOT         OFF         [  0]    ***   
       FCGRADNEW            IFCGNW         OFF         [  0]    ***   
       FC_FIELD             IFINFC              0             x 10-6  
       FD_CALTYPE           IFDCAL         GRADONLY    [  0]    ***   
       FD_PROJECT           IFDPRJ         OFF         [  1]    ***   
       FD_STEPSIZE          IDISFD              0            10-4 bohr
       FD_USEGROUP          IFDGRP         FULL        [  0]    ***   
       FILE_RECSIZ          IFLREC              4096           words  
       FINITE_PERT          IFIPER              0             x 10-6  
       FIXGEOM              IFIXGM         OFF         [  0]    ***   
       FOCK                 IFOCK          AO          [  1]    ***   
       FREQ_ALGORI          IVIALG         STANDARD    [  0]    ***   
       FROZEN_CORE          IFROCO         OFF         [  0]    ***   
       GAMMA_ABCD           IGABCD         STORE       [  0]    ***   
       GAMMA_ABCI           IGABCI         STORE       [  0]    ***   
       GENBAS_1             IGNBS1              0               ***   
       GENBAS_2             IGNBS2              0               ***   
       GENBAS_3             IGNBS3              0               ***   
       GENBAS_4             IGNBS4              0               ***   
       GEO_CONV             ICONTL              5              H/bohr 
       GEO_MAXCYC           IOPTCY             50               ***   
       GEO_MAXSTEP          IMXSTP            300            millibohr
       GEO_METHOD           INR            SINGLE_POINT[  5]    ***   
       GIAO                 IGIAO          OFF         [  1]    ***   
       GIMIC                IGIMIC         OFF         [  0]    ***   
       GRID                 IGRID          OFF         [  0]    ***   
       GRID_ALGO            IGALGO         SERIAL      [  0]    ***   
       GUESS                IGUESS         MOREAD      [  0]    ***   
       HBAR                 IHBAR          OFF         [  0]    ***   
       HESS_TYPE            IHESTP         SCF         [  0]    ***   
       HF2_FILE             IHF2Fl         USE         [  1]    ***   
       HFSTABILITY          ISTABL         OFF         [  0]    ***   
       INCORE               INCORE         OFF         [  0]    ***   
       INPUT_MRCC           IMRCC          ON          [  1]    ***   
       INTEGRALS            INTTYP         VMOL        [  1]    ***   
       JODA_PRINT           IJPRNT              0               ***   
       KEYWORD_OUT          IDMPKW         NO          [  0]    ***   
       LINDEP_TOL           ILINDP              8               ***   
       LINEQ_CONV           IZTACN          10D-  7           cycles  
       LINEQ_EXPOR          ILMAXD              5               ***   
       LINEQ_MAXCY          ILMAXC            100               ***   
       LINEQ_TYPE           ILTYPE         DIIS        [  1]    ***   
       LOCK_ORBOCC          ILOCOC         OFF         [  0]    ***   
       MEMORY_SIZE          IMEMSZ         *********           words  
       MEM_UNIT             IMEMU          GB          [  3]    ***   
       MRCC                 IMRCCC         OFF         [  0]    ***   
       MULTIPLICTY          IMULTP              3               ***   
       NACOUPLING           IVCOUP         OFF         [  0]    ***   
       NEGEVAL              IDIE           ABORT       [  0]    ***   
       NEWNORM              INEWNO         OFF         [  0]    ***   
       NON-HF               INONHF         ON          [  1]    ***   
       NTOP_TAMP            ITOPT2             15               ***   
       NUC_MODEL            INUCMO         POINT       [  0]    ***   
       OCCUPATION           IOCCU  A   2,  1,  1,  0,  0,  0,  0,  0,
                                   B   2,  0,  0,  0,  0,  0,  0,  0,
       OPEN-SHELL           IOPEN          SPIN-ORBITAL[  0]    ***   
       OPTVIB               IOPTVB         OFF         [  0]    ***   
       ORBITALS             IORBTP         SEMICANONICA[  1]    ***   
       PARALLEL             IPARAL         ON          [  1]    ***   
       PARA_INT             IPINTS         ON          [  1]    ***   
       PARA_PRINT           IPPRIN              0               ***   
       PERT_ORB             IPTORB         STANDARD    [  0]    ***   
       POINTS               IGRDFD              0               ***   
       PRINT                IPRNT               0               ***   
       PROPS                IPROPS         OFF         [  0]    ***   
       PROP_INTEGR          IINTYP         INTERNAL    [  0]    ***   
       PSI                  IPSI           OFF         [  0]    ***   
       QC_ALG               IQCALG         FLM         [  0]    ***   
       QC_LINALG            IQCLIN         TRIDIAG     [  2]    ***   
       QC_MAXCYC            IQCMAX          10D-100           cycles  
       QC_MAXSCFCY          IQCMSC          10D- 15           cycles  
       QC_RTRUST            IQCRTR          10D-  0           x 10-3  
       QC_SKIPSCF           IQCSKI         OFF         [  0]    ***   
       QC_START             IQCSTA          10D-  1             ***   
       QRHFGUESS            IQGUES         OFF         [  0]    ***   
       QUARTIC              IQUART         OFF         [  0]    ***   
       RAMAN_INT            IRAMIN         OFF         [  0]    ***   
       RAMAN_ORB            IRAMRE         UNRELAXED   [  0]    ***   
       RDO                  IRDOFM         OFF         [  0]    ***   
       REDUCE_REPR          REDREP         Ir          [  0]    ***   
       REFERENCE            IREFNC         ROHF        [  2]    ***   
       RELATIVIST           IRELAT         OFF         [  0]    ***   
       RELAX_DENS           IRDENS         OFF         [  0]    ***   
       RESET_FLAGS          IRESET         OFF         [  0]    ***   
       RESTART_CC           ICCRES         OFF         [  0]    ***   
       ROT_EVEC             ROTVEC              0               ***   
       SAVE_INTS            ISVINT         ON          [  1]    ***   
       SCALE_ON             ISTCRT              0               ***   
       SCF_CONV             ISCFCV          10D- 10             ***   
       SCF_DAMPING          IDAMP               0             x 10-3  
       SCF_EXPORDE          IRPPOR              6               ***   
       SCF_EXPSTAR          IRPPLS              5               ***   
       SCF_EXTRAPO          IRPP           ON          [  1]    ***   
       SCF_MAXCYC           ISCFCY            ***              cycles 
       SCF_NOSTOP           ISCFST         OFF         [  0]    ***   
       SCF_PRINT            ISCFPR              0               ***   
       SCF_PROG             ISCFPR         SCF         [  0]    ***   
       SD_FIELD             IFINSD              0             x 10-6  
       SOPERT               IPERSO         OFF         [  0]    ***   
       SPHERICAL            IDFGHI         ON          [  1]    ***   
       SPINORBIT            ISOCAL         OFF         [  0]    ***   
       SPINROTATIO          ISRCON         OFF         [  0]    ***   
       SPIN_FLIP            ISPFLP         OFF         [  0]    ***   
       SPIN_ORBIT           ISPORB         OFF         [  0]    ***   
       SPIN_SCAL            ISCSMP         OFF         [  0]    ***   
       STEEPSCALE           ISTPSC              1000          x 10-3  
       SUBGROUP             ISUBGP         DEFAULT     [  0]    ***   
       SUBGRPAXIS           ISBXYZ         X           [  0]    ***   
       SYMMETRY             ISYM           ON          [  0]    ***   
       SYM_CHECK            ISYMCK         OVERRIDE    [  1]    ***   
       T3_EXTRAPOL          IT3EXT         ON          [  1]    ***   
       T4_EXTRAPOL          IT4EXP         OFF         [  0]    ***   
       TAMP_SUM             IEVERY              5               ***   
       TESTSUITE            ITESTS         OFF         [  0]    ***   
       THERMOCH             ITHERM         OFF         [  0]    ***   
       TOL_CHOLESK          ITOLCH          10D-  4             ***   
       TRANGRAD             IRESRM         OFF         [  0]    ***   
       TRANS_INV            ITRAIN         USE         [  0]    ***   
       TREAT_PERT           ITREAT         SIMULTANEOUS[  0]    ***   
       TRIP_ALGORI          ITRALG         NORMAL      [  0]    ***   
       UIJ_THRESHO          IUIJTH              1               ***   
       UNITS                IUNITS         ANGSTROM    [  0]    ***   
       UNOS                 IUNOS          OFF         [  0]    ***   
       UPDATE_HESS          IHUPDT         ON          [  1]    ***   
       VIBPHASE             ISETPH         STANDARD    [  0]    ***   
       VIBRATION            IVIB           NO          [  0]    ***   
       VIB_ALGORIT          IGEALG         STANDARD    [  0]    ***   
       VNATORB              IVNORB         OFF         [  0]    ***   
       VTRAN                IVTRAN         FULL/PARTIAL[  0]    ***   
       XFIELD               IXEFLD              0             x 10-6  
       XFORM_TOL            IXFTOL          10D- 18             ***   
       YFIELD               IYEFLD              0             x 10-6  
       ZFIELD               IZEFLD              0             x 10-6  
       ZSCALE_EXP           IZEXPS         OFF         [  0]    ***   
    -------------------------------------------------------------------
   1 entries found in Z-matrix 
   Job Title : TITLE                                                                           
   Rotational constants (in cm-1): 

   Rotational constants (in MHz): 

********************************************************************************
   The full molecular point group is I h .
   The largest Abelian subgroup of the full molecular point group is D2h .
   The computational point group is D2h .
********************************************************************************
  ECPDATA file not present.   Using default ECPDATA. 
  @GTFLGS-W, Keyword #FROZEN_CORE not known and is ignored.
  @GTFLGS-W, Keyword #DROPMO not known and is ignored.
  @GTFLGS-W, Keyword #INPUT_MRCC not known and is ignored.
  @GTFLGS-W, Keyword #CC_PROG not known and is ignored.
  @GTFLGS-W, Keyword #SCF_DAMPING not known and is ignored.
  There are  109 basis functions.
 @GEOPT-W, Archive file not created for single-point calculation.
 @CHECKOUT-I, Total execution time (CPU/WALL):        0.18/       1.74 seconds.
--executable xjoda finished with status     0 in        1.83 seconds (walltime).
 --invoking executable--
/cvmfs/restricted.computecanada.ca/easybuild/software/2020/avx2/Compiler/intel2020/cfour/2.1/bin/xvmol
 SERIAL VERSION OF MOLECULE STARTED
********************************************************************************
                    INPUT FROM MOL FILE
********************************************************************************
INTGRL        1    0    1    0    0    0    0    0    0                         
         *** CFOUR Program System (Release V0.1) ***                            
TITLE                                                                           
    1    3 X  Y   Z   0.10E-08              0    0                              
   9999.00      3.00                                                            
          8.00000000    1    5    1    1    1    1    1                         
O #1   0.000000000000000   0.000000000000000   0.000000000000000                
   16    9                                                                      
   61420.0000000000       9.000000000000001E-005 -2.000000000000000E-005        
  0.000000000000000E+000  0.000000000000000E+000  0.000000000000000E+000        
  0.000000000000000E+000  0.000000000000000E+000  0.000000000000000E+000        
  0.000000000000000E+000                                                        
   9199.00000000000       6.980000000000001E-004 -1.590000000000000E-004        
  0.000000000000000E+000  0.000000000000000E+000  0.000000000000000E+000        
  0.000000000000000E+000  0.000000000000000E+000  0.000000000000000E+000        
  0.000000000000000E+000                                                        
   2091.00000000000       3.664000000000000E-003 -8.290000000000000E-004        
  0.000000000000000E+000  0.000000000000000E+000  0.000000000000000E+000        
  0.000000000000000E+000  0.000000000000000E+000  0.000000000000000E+000        
  0.000000000000000E+000                                                        
   590.900000000000       1.521800000000000E-002 -3.508000000000000E-003        
  0.000000000000000E+000  0.000000000000000E+000  0.000000000000000E+000        
  0.000000000000000E+000  0.000000000000000E+000  0.000000000000000E+000        
  0.000000000000000E+000                                                        
   192.300000000000       5.242300000000000E-002 -1.215600000000000E-002        
  0.000000000000000E+000  0.000000000000000E+000  0.000000000000000E+000        
  0.000000000000000E+000  0.000000000000000E+000  0.000000000000000E+000        
  0.000000000000000E+000                                                        
   69.3200000000000       0.145921000000000      -3.626100000000000E-002        
  0.000000000000000E+000  0.000000000000000E+000  0.000000000000000E+000        
  0.000000000000000E+000  0.000000000000000E+000  0.000000000000000E+000        
  0.000000000000000E+000                                                        
   26.9700000000000       0.305258000000000      -8.299200000000000E-002        
  0.000000000000000E+000  0.000000000000000E+000  0.000000000000000E+000        
  0.000000000000000E+000  0.000000000000000E+000  0.000000000000000E+000        
  0.000000000000000E+000                                                        
   11.1000000000000       0.398508000000000      -0.152090000000000             
  0.000000000000000E+000  0.000000000000000E+000  0.000000000000000E+000        
  0.000000000000000E+000  0.000000000000000E+000  0.000000000000000E+000        
  0.000000000000000E+000                                                        
   4.68200000000000       0.216980000000000      -0.115331000000000             
  0.000000000000000E+000  0.000000000000000E+000  0.000000000000000E+000        
  0.000000000000000E+000  0.000000000000000E+000  0.000000000000000E+000        
  0.000000000000000E+000                                                        
   1.42800000000000       1.759400000000000E-002  0.288979000000000             
   1.00000000000000       0.000000000000000E+000  0.000000000000000E+000        
  0.000000000000000E+000  0.000000000000000E+000  0.000000000000000E+000        
  0.000000000000000E+000                                                        
  0.554700000000000      -2.502000000000000E-003  0.586128000000000             
  0.000000000000000E+000   1.00000000000000       0.000000000000000E+000        
  0.000000000000000E+000  0.000000000000000E+000  0.000000000000000E+000        
  0.000000000000000E+000                                                        
  0.206700000000000       9.540000000000000E-004  0.277624000000000             
  0.000000000000000E+000  0.000000000000000E+000   1.00000000000000             
  0.000000000000000E+000  0.000000000000000E+000  0.000000000000000E+000        
  0.000000000000000E+000                                                        
   12.9740000000000       0.000000000000000E+000  0.000000000000000E+000        
  0.000000000000000E+000  0.000000000000000E+000  0.000000000000000E+000        
   1.00000000000000       0.000000000000000E+000  0.000000000000000E+000        
  0.000000000000000E+000                                                        
   34.9000000000000       0.000000000000000E+000  0.000000000000000E+000        
  0.000000000000000E+000  0.000000000000000E+000  0.000000000000000E+000        
  0.000000000000000E+000   1.00000000000000       0.000000000000000E+000        
  0.000000000000000E+000                                                        
   93.8810000000000       0.000000000000000E+000  0.000000000000000E+000        
  0.000000000000000E+000  0.000000000000000E+000  0.000000000000000E+000        
  0.000000000000000E+000  0.000000000000000E+000   1.00000000000000             
  0.000000000000000E+000                                                        
  6.959000000000000E-002  0.000000000000000E+000  0.000000000000000E+000        
  0.000000000000000E+000  0.000000000000000E+000  0.000000000000000E+000        
  0.000000000000000E+000  0.000000000000000E+000  0.000000000000000E+000        
   1.00000000000000                                                             
   10    8                                                                      
   63.4200000000000       6.044000000000000E-003  0.000000000000000E+000        
  0.000000000000000E+000  0.000000000000000E+000  0.000000000000000E+000        
  0.000000000000000E+000  0.000000000000000E+000  0.000000000000000E+000        
   14.6600000000000       4.179900000000000E-002  0.000000000000000E+000        
  0.000000000000000E+000  0.000000000000000E+000  0.000000000000000E+000        
  0.000000000000000E+000  0.000000000000000E+000  0.000000000000000E+000        
   4.45900000000000       0.161143000000000       0.000000000000000E+000        
  0.000000000000000E+000  0.000000000000000E+000  0.000000000000000E+000        
  0.000000000000000E+000  0.000000000000000E+000  0.000000000000000E+000        
   1.53100000000000       0.356731000000000        1.00000000000000             
  0.000000000000000E+000  0.000000000000000E+000  0.000000000000000E+000        
  0.000000000000000E+000  0.000000000000000E+000  0.000000000000000E+000        
  0.530200000000000       0.448309000000000       0.000000000000000E+000        
   1.00000000000000       0.000000000000000E+000  0.000000000000000E+000        
  0.000000000000000E+000  0.000000000000000E+000  0.000000000000000E+000        
  0.175000000000000       0.244940000000000       0.000000000000000E+000        
  0.000000000000000E+000   1.00000000000000       0.000000000000000E+000        
  0.000000000000000E+000  0.000000000000000E+000  0.000000000000000E+000        
   14.4750000000000       0.000000000000000E+000  0.000000000000000E+000        
  0.000000000000000E+000  0.000000000000000E+000   1.00000000000000             
  0.000000000000000E+000  0.000000000000000E+000  0.000000000000000E+000        
   42.7300000000000       0.000000000000000E+000  0.000000000000000E+000        
  0.000000000000000E+000  0.000000000000000E+000  0.000000000000000E+000        
   1.00000000000000       0.000000000000000E+000  0.000000000000000E+000        
   126.140000000000       0.000000000000000E+000  0.000000000000000E+000        
  0.000000000000000E+000  0.000000000000000E+000  0.000000000000000E+000        
  0.000000000000000E+000   1.00000000000000       0.000000000000000E+000        
  5.348000000000000E-002  0.000000000000000E+000  0.000000000000000E+000        
  0.000000000000000E+000  0.000000000000000E+000  0.000000000000000E+000        
  0.000000000000000E+000  0.000000000000000E+000   1.00000000000000             
    6    6                                                                      
   3.77500000000000        1.00000000000000       0.000000000000000E+000        
  0.000000000000000E+000  0.000000000000000E+000  0.000000000000000E+000        
  0.000000000000000E+000                                                        
   1.30000000000000       0.000000000000000E+000   1.00000000000000             
  0.000000000000000E+000  0.000000000000000E+000  0.000000000000000E+000        
  0.000000000000000E+000                                                        
  0.444000000000000       0.000000000000000E+000  0.000000000000000E+000        
   1.00000000000000       0.000000000000000E+000  0.000000000000000E+000        
  0.000000000000000E+000                                                        
   14.9270000000000       0.000000000000000E+000  0.000000000000000E+000        
  0.000000000000000E+000   1.00000000000000       0.000000000000000E+000        
  0.000000000000000E+000                                                        
   57.5440000000000       0.000000000000000E+000  0.000000000000000E+000        
  0.000000000000000E+000  0.000000000000000E+000   1.00000000000000             
  0.000000000000000E+000                                                        
  0.154000000000000       0.000000000000000E+000  0.000000000000000E+000        
  0.000000000000000E+000  0.000000000000000E+000  0.000000000000000E+000        
   1.00000000000000                                                             
    4    4                                                                      
   2.66600000000000        1.00000000000000       0.000000000000000E+000        
  0.000000000000000E+000  0.000000000000000E+000                                
  0.859000000000000       0.000000000000000E+000   1.00000000000000             
  0.000000000000000E+000  0.000000000000000E+000                                
   26.4830000000000       0.000000000000000E+000  0.000000000000000E+000        
   1.00000000000000       0.000000000000000E+000                                
  0.324000000000000       0.000000000000000E+000  0.000000000000000E+000        
  0.000000000000000E+000   1.00000000000000                                     
    2    2                                                                      
   1.84600000000000        1.00000000000000       0.000000000000000E+000        
  0.714000000000000       0.000000000000000E+000   1.00000000000000             
FINISH                                                                          
 
********************************************************************************
OMP: Info #274: omp_set_nested routine deprecated, please use omp_set_max_active_levels instead.
 ONE- AND TWO-ELECTRON INTEGRALS OVER SYMMETRY-ADAPTED AOS ARE CALCULATED.

  SPHERICAL HARMONICS ARE USED.
  
  INTEGRALS LESS THAN  0.10E-13 ARE NEGLECTED.

  NUCLEAR REPULSION ENERGY :    0.0000000000 A.U.
  @MOLECU-I, ONE ELECTRON INTEGRALS (CPU/WALL):        0.04/       0.04 SECONDS.
  @TWOEL-I,      58779 INTEGRALS OF SYMMETRY TYPE  I I I I
  @TWOEL-I,     458861 INTEGRALS OF SYMMETRY TYPE  I J I J
  @TWOEL-I,     269470 INTEGRALS OF SYMMETRY TYPE  I I J J
  @TWOEL-I,     971729 INTEGRALS OF SYMMETRY TYPE  I J K L
  @TWOEL-I, TOTAL NUMBER OF 2-E INTEGRALS    1758839.
  @MOLECU-I, TWO ELECTRON INTEGRALS (CPU/WALL):        3.07/       3.24 SECONDS.
 @CHECKOUT-I, Total execution time (CPU/WALL):        3.13/       4.29 seconds.

OMP_NUM_THREADS not specified; defaulting to 1
Running with 1 threads/proc

--executable xvmol finished with status     0 in        4.37 seconds (walltime).
 --invoking executable--
/cvmfs/restricted.computecanada.ca/easybuild/software/2020/avx2/Compiler/intel2020/cfour/2.1/bin/xvmol2ja
 @GETMEM-I,  Allocated   19073 MB of main memory.
 @CHECKOUT-I, Total execution time (CPU/WALL):        0.02/       0.02 seconds.
--executable xvmol2ja finished with status     0 in        0.06 seconds (walltime).
 --invoking executable--
/cvmfs/restricted.computecanada.ca/easybuild/software/2020/avx2/Compiler/intel2020/cfour/2.1/bin/xvscf
  There are  109 functions in the AO basis.

  There are 8 irreducible representations.

       Irrep        # of functions
         1                 27
         2                 16
         3                 16
         4                 10
         5                 16
         6                 10
         7                 10
         8                  4


  Parameters for SCF calculation: 
        SCF reference function: ROHF  
  Maximum number of iterations: 9999
     Full symmetry point group: I h 
     Computational point group: D2h 
        Initial density matrix: MOREAD                 
     SCF convergence tolerance: 10**(-10)
  DIIS convergence acceleration:  ON
          Latest start for DIIS:   5
                     DIIS order:   6

     Alpha population by irrep:   2    1    1    0    0    0    0    0
      Beta population by irrep:   2    0    0    0    0    0    0    0


  Memory information:     654862 words required.
  Fock matrices are constructed from AO integral file.
 @GETMEM-I,  Allocated       4 MB of main memory.
  Initialization and symmetry analysis required      0.003 seconds.

 total no. of electrons in initial guess :  0.000000000000000E+000
 total no. of electrons in initial guess :  0.000000000000000E+000
  --------------------------------------------------------------------
  Iteration         Total Energy            Largest Density Difference
  --------------------------------------------------------------------
       0             0.000000000000000              0.0000000000D+00
   current occupation vector 
     2  1  1  0  0  0  0  0
     2  0  0  0  0  0  0  0
       1           -69.928993702653969              0.8763662935D+01
   current occupation vector 
     2  1  1  0  0  0  0  0
     2  0  0  0  0  0  0  0
       2           -72.833488742537881              0.7808672876D+01
   current occupation vector 
     2  1  1  0  0  0  0  0
     2  0  0  0  0  0  0  0
       3           -73.095511187369098              0.6585370405D+00
   current occupation vector 
     2  1  1  0  0  0  0  0
     2  0  0  0  0  0  0  0
       4           -73.098894141824573              0.6045720383D-01
   current occupation vector 
     2  1  1  0  0  0  0  0
     2  0  0  0  0  0  0  0
       5           -73.098990640035424              0.1459540271D-01
   current occupation vector 
     2  1  1  0  0  0  0  0
     2  0  0  0  0  0  0  0
       6           -73.098992298281274              0.1370135565D-02
   current occupation vector 
     2  1  1  0  0  0  0  0
     2  0  0  0  0  0  0  0
       7           -73.098992355420691              0.2039223426D-03
   current occupation vector 
     2  1  1  0  0  0  0  0
     2  0  0  0  0  0  0  0
       8           -73.098992355517510              0.1787160721D-04
   current occupation vector 
     2  1  1  0  0  0  0  0
     2  0  0  0  0  0  0  0
       9           -73.098992355517765              0.3831532163D-06
   current occupation vector 
     2  1  1  0  0  0  0  0
     2  0  0  0  0  0  0  0
      10           -73.098992355517751              0.4416287780D-07
   current occupation vector 
     2  1  1  0  0  0  0  0
     2  0  0  0  0  0  0  0
      11           -73.098992355517353              0.2537040356D-08
   current occupation vector 
     2  1  1  0  0  0  0  0
     2  0  0  0  0  0  0  0
      12           -73.098992355517410              0.1613702817D-09
   current occupation vector 
     2  1  1  0  0  0  0  0
     2  0  0  0  0  0  0  0

  SCF has converged.

 Density matrix saved to file den.dat
 total alpha spin electron number:   4.00000000000000     
 total  beta spin electron number:   2.00000000000000     
     E(ROHF)=       -73.098992355517453              0.1773869940D-10

  Eigenvector printing suppressed.


       The average multiplicity is    3.0000000
  The expectation value of S**2 is    2.0000000

 @PUTMOS-I, Writing converged MOs to NEWMOS. 
 @PUTMOS-I, Symmetry   1 Full Blocks  6 Partial Blocksize   3
 @PUTMOS-I, Symmetry   2 Full Blocks  4 Partial Blocksize   0
 @PUTMOS-I, Symmetry   3 Full Blocks  4 Partial Blocksize   0
 @PUTMOS-I, Symmetry   4 Full Blocks  2 Partial Blocksize   2
 @PUTMOS-I, Symmetry   5 Full Blocks  4 Partial Blocksize   0
 @PUTMOS-I, Symmetry   6 Full Blocks  2 Partial Blocksize   2
 @PUTMOS-I, Symmetry   7 Full Blocks  2 Partial Blocksize   2
 @PUTMOS-I, Symmetry   8 Full Blocks  1 Partial Blocksize   0
 @PUTFOCK-I, Writing converged Fock matrix to NEWFOCK. 
 @PUTFOCK-I, Symmetry   1 Full Blocks  6 Partial Blocksize   3
 @PUTFOCK-I, Symmetry   2 Full Blocks  4 Partial Blocksize   0
 @PUTFOCK-I, Symmetry   3 Full Blocks  4 Partial Blocksize   0
 @PUTFOCK-I, Symmetry   4 Full Blocks  2 Partial Blocksize   2
 @PUTFOCK-I, Symmetry   5 Full Blocks  4 Partial Blocksize   0
 @PUTFOCK-I, Symmetry   6 Full Blocks  2 Partial Blocksize   2
 @PUTFOCK-I, Symmetry   7 Full Blocks  2 Partial Blocksize   2
 @PUTFOCK-I, Symmetry   8 Full Blocks  1 Partial Blocksize   0
  @DMPJOB-I, Rotating orbitals to semicanonical basis.
             *** Eigenvalues correspond to new basis. ***



 
  ORBITAL EIGENVALUES (ALPHA)  (1H = 27.2113834 eV)

       MO #        E(hartree)               E(eV)           FULLSYM    COMPSYM
       ----   --------------------   --------------------   -------   ---------
    1     1         -22.3135593822        -607.1828193680      Ag        Ag (1)
    2     2          -2.6631978152         -72.4692968187      Ag        Ag (1)
    3    44          -2.0436586905         -55.6107801667       u       B3u (3)
    4    28          -2.0436586905         -55.6107801667       u       B2u (2)
  +++++++++++++++++++++++++++++++++++++++++++++++++++++++++++++++++++++++++++++
    5    70          -1.2238792883         -33.3034485494      Au       B1u (5)
    6     3          -0.4335158330         -11.7965655421      Ag        Ag (1)
    7    45          -0.3361515338          -9.1471482659       u       B3u (3)
    8    29          -0.3361515338          -9.1471482659       u       B2u (2)
    9    71          -0.3261932470          -8.8761695063      Au       B1u (5)
   10     4          -0.1574173401          -4.2835435947      Ag        Ag (1)
   11    96          -0.1566416598          -4.2624362613       g       B2g (7)
   12    86          -0.1566416598          -4.2624362613       g       B3g (6)
   13    60          -0.1540317371          -4.1914166553       g       B1g (4)
   14     5          -0.1540317371          -4.1914166553       g        Ag (1)
   15    46          -0.0184592348          -0.5023013150       u       B3u (3)
   16    30          -0.0184592348          -0.5023013150       u       B2u (2)
   17    72           0.0031605877           0.0860039641      Au       B1u (5)
   18     6           0.0933006886           2.5388408094      Ag        Ag (1)
   19    73           0.5714967268          15.5512165457      Au       B1u (5)
   20    31           0.5730748655          15.5941598820       u       B2u (2)
   21    47           0.5730748655          15.5941598820       u       B3u (3)
   22   106           0.5778529625          15.7241785120       u        Au (8)
   23    74           0.5778529625          15.7241785120       u       B1u (5)
   24    61           0.5809028499          15.8071701663       g       B1g (4)
   25     7           0.5809028499          15.8071701663       g        Ag (1)
   26    32           0.5859341230          15.9440780682       u       B2u (2)
   27    48           0.5859341230          15.9440780682       u       B3u (3)
   28    87           0.5896365040          16.0448249760       g       B3g (6)
   29    97           0.5896365040          16.0448249760       g       B2g (7)
   30     8           0.5928233485          16.1315434237      Ag        Ag (1)
   31    33           1.5335354235          41.7296203669       u       B2u (2)
   32    49           1.5335354235          41.7296203669       u       B3u (3)
   33    75           1.5853426331          43.1393662090      Au       B1u (5)
   34     9           2.5404404974          69.1289003806      Ag        Ag (1)
   35    10           2.6584982459          72.3414150385      Ag        Ag (1)
   36    88           2.6604033267          72.3932549228       g       B3g (6)
   37    98           2.6604033267          72.3932549228       g       B2g (7)
   38    11           2.6661306784          72.5491040856       g        Ag (1)
   39    62           2.6661306784          72.5491040856       g       B1g (4)
   40    89           2.6757049183          72.8096323982       g       B3g (6)
   41    99           2.6757049183          72.8096323982       g       B2g (7)
   42    12           2.6891408778          73.1752434433       g        Ag (1)
   43    63           2.6891408778          73.1752434433       g       B1g (4)
   44    76           2.9184139419          79.4140806921      Au       B1u (5)
   45    50           2.9214246933          79.4960074033       u       B3u (3)
   46    34           2.9214246933          79.4960074033       u       B2u (2)
   47   107           2.9305297799          79.7437694072       u        Au (8)
   48    77           2.9305297799          79.7437694072       u       B1u (5)
   49    51           2.9458831087          80.1615547229       u       B3u (3)
   50    35           2.9458831087          80.1615547229       u       B2u (2)
   51    13           3.0329356810          82.5303756420       g        Ag (1)
   52    64           3.0329356810          82.5303756420       g       B1g (4)
   53    90           3.0484241301          82.9518377690       g       B3g (6)
   54   100           3.0484241301          82.9518377690       g       B2g (7)
   55    14           3.0542003084          83.1090155718      Ag        Ag (1)
   56    52           7.8282234089         213.0167885194       u       B3u (3)
   57    36           7.8282234089         213.0167885194       u       B2u (2)
   58    78           7.8390601619         213.3116715619      Au       B1u (5)
   59    15           9.2490922122         251.6805942887      Ag        Ag (1)
   60   101           9.2529507677         251.7855909212       g       B2g (7)
   61    91           9.2529507677         251.7855909212       g       B3g (6)
   62    65           9.2645376209         252.1008852264       g       B1g (4)
   63    16           9.2645376209         252.1008852264       g        Ag (1)
   64    92           9.2838842520         252.6273338227       g       B3g (6)
   65   102           9.2838842520         252.6273338227       g       B2g (7)
   66    66           9.3110364047         253.3661814585       g       B1g (4)
   67    17           9.3110364047         253.3661814585       g        Ag (1)
   68    79          10.3611210702         281.9404378959      Au       B1u (5)
   69    53          10.3662384042         282.0796876335       u       B3u (3)
   70    37          10.3662384042         282.0796876335       u       B2u (2)
   71   108          10.3816324214         282.4985801376       u        Au (8)
   72    80          10.3816324214         282.4985801376       u       B1u (5)
   73    54          10.4074341942         283.2006820698       u       B3u (3)
   74    38          10.4074341942         283.2006820698       u       B2u (2)
   75    18          11.0885557925         301.7349430228      Ag        Ag (1)
   76    93          11.0918944563         301.8257926818       g       B3g (6)
   77   103          11.0918944563         301.8257926818       g       B2g (7)
   78    67          11.1022870205         302.1085887320       g       B1g (4)
   79    19          11.1022870205         302.1085887320       g        Ag (1)
   80    20          14.8710440026         404.6616799119      Ag        Ag (1)
   81    81          31.5039551399         857.2662019286      Au       B1u (5)
   82    55          31.5375869675         858.1813704840       u       B3u (3)
   83    39          31.5375869675         858.1813704840       u       B2u (2)
   84    21          45.3704262499        1234.5920637076      Ag        Ag (1)
   85   104          45.3808479442        1234.8756524258       g       B2g (7)
   86    94          45.3808479442        1234.8756524258       g       B3g (6)
   87    22          45.4120988279        1235.7260322058       g        Ag (1)
   88    68          45.4120988279        1235.7260322058       g       B1g (4)
   89    23          61.3938896308        1670.6126691618      Ag        Ag (1)
   90    82         101.6328536367        2765.5705463432      Au       B1u (5)
   91    56         101.6383972981        2765.7213970413       u       B3u (3)
   92    40         101.6383972981        2765.7213970413       u       B2u (2)
   93   109         101.6550277024        2766.1739333470       u        Au (8)
   94    83         101.6550277024        2766.1739333471       u       B1u (5)
   95    41         101.6827432056        2766.9281105307       u       B2u (2)
   96    57         101.6827432056        2766.9281105307       u       B3u (3)
   97    84         114.8513979449        3125.2654235049      Au       B1u (5)
   98    42         114.8876361396        3126.2515149135       u       B2u (2)
   99    58         114.8876361396        3126.2515149135       u       B3u (3)
  100    24         196.8909069113        5357.6739559377      Ag        Ag (1)
  101   105         196.8984453181        5357.8790864136       g       B3g (7)
  102    95         196.8984453181        5357.8790864136       g       B2g (6)
  103    69         196.9210137456        5358.4932045482       g       B1g (4)
  104    25         196.9210137456        5358.4932045483       g        Ag (1)
  105    26         213.9954838776        5823.1131576614      Ag        Ag (1)
  106    85         393.4693409569       10706.8450929231      Au       B1u (5)
  107    59         393.4895891817       10707.3960751317       u       B3u (3)
  108    43         393.4895891817       10707.3960751317       u       B2u (2)
  109    27         892.8393578518       24295.3940811151      Ag        Ag (1)


 
  ORBITAL EIGENVALUES ( BETA)  (1H = 27.2113834 eV)

       MO #        E(hartree)               E(eV)           FULLSYM    COMPSYM
       ----   --------------------   --------------------   -------   ---------
    1     1         -22.2108503084        -604.3879633813      Ag        Ag (1)
    2     2          -2.2965750220         -62.4929834297      Ag        Ag (1)
  +++++++++++++++++++++++++++++++++++++++++++++++++++++++++++++++++++++++++++++
    3    70          -1.1298614240         -30.7450923971      Au       B1u (5)
    4    28          -1.0369596206         -28.2171058067       u       B2u (2)
    5    44          -1.0369596206         -28.2171058067       u       B3u (3)
    6     3          -0.4194424510         -11.4136093478      Ag        Ag (1)
    7    71          -0.3207843950          -8.7289871616      Au       B1u (5)
    8    29          -0.3093508002          -8.4178632291       u       B2u (2)
    9    45          -0.3093508002          -8.4178632291       u       B3u (3)
   10     4          -0.1498198319          -4.0768048874      Ag        Ag (1)
   11    86          -0.1462962298          -3.9809227986       g       B3g (6)
   12    96          -0.1462962298          -3.9809227986       g       B2g (7)
   13    60          -0.1359470061          -3.6993061040       g       B1g (4)
   14     5          -0.1359470061          -3.6993061040       g        Ag (1)
   15    72           0.0146911986           0.3997678377      Au       B1u (5)
   16    30           0.0378958990           1.0311998368       u       B2u (2)
   17    46           0.0378958990           1.0311998368       u       B3u (3)
   18     6           0.1239916625           3.3739846671      Ag        Ag (1)
   19    73           0.5761175279          15.6769549351      Au       B1u (5)
   20    31           0.5782188332          15.7341343601       u       B2u (2)
   21    47           0.5782188332          15.7341343601       u       B3u (3)
   22    74           0.5845582489          15.9066386312       u       B1u (5)
   23   106           0.5845582489          15.9066386312       u        Au (8)
   24    32           0.5952773708          16.1983207670       u       B2u (2)
   25    48           0.5952773708          16.1983207670       u       B3u (3)
   26     7           0.6309274636          17.1684091090      Ag        Ag (1)
   27    97           0.6413996021          17.4533704853       g       B2g (7)
   28    87           0.6413996021          17.4533704853       g       B3g (6)
   29     8           0.6722886278          18.2939036052       g        Ag (1)
   30    61           0.6722886278          18.2939036052       g       B1g (4)
   31    75           1.6198219168          44.0775952186      Au       B1u (5)
   32    49           1.6857316984          45.8710915535       u       B3u (3)
   33    33           1.6857316984          45.8710915535       u       B2u (2)
   34     9           2.6271038969          71.4871313713      Ag        Ag (1)
   35    10           2.6678059553          72.5946906861      Ag        Ag (1)
   36    98           2.6702400100          72.6609246814       g       B2g (7)
   37    88           2.6702400100          72.6609246814       g       B3g (6)
   38    11           2.6775642037          72.8602261261       g        Ag (1)
   39    62           2.6775642037          72.8602261261       g       B1g (4)
   40    89           2.6898429829          73.1943486923       g       B3g (6)
   41    99           2.6898429829          73.1943486923       g       B2g (7)
   42    12           2.7071931204          73.6664699362       g        Ag (1)
   43    63           2.7071931204          73.6664699362       g       B1g (4)
   44    76           2.9503704135          80.2836604934      Au       B1u (5)
   45    50           2.9569798616          80.4635127190       u       B3u (3)
   46    34           2.9569798616          80.4635127190       u       B2u (2)
   47   107           2.9769642901          81.0073166664       u        Au (8)
   48    77           2.9769642901          81.0073166664       u       B1u (5)
   49    35           3.0109219916          81.9313527000       u       B2u (2)
   50    51           3.0109219916          81.9313527000       u       B3u (3)
   51    13           3.1351064360          85.3105832309      Ag        Ag (1)
   52   100           3.1558799320          85.8758587927       g       B2g (7)
   53    90           3.1558799320          85.8758587927       g       B3g (6)
   54    14           3.2191958967          87.5987737846       g        Ag (1)
   55    64           3.2191958967          87.5987737846       g       B1g (4)
   56    78           7.8808903533         214.4499289377      Au       B1u (5)
   57    52           7.9771087259         217.0681639641       u       B3u (3)
   58    36           7.9771087259         217.0681639641       u       B2u (2)
   59    15           9.2855972751         252.6739475514      Ag        Ag (1)
   60   101           9.2916130386         252.8376447985       g       B2g (7)
   61    91           9.2916130386         252.8376447985       g       B3g (6)
   62    16           9.3097065851         253.3299952292       g        Ag (1)
   63    65           9.3097065851         253.3299952292       g       B1g (4)
   64    92           9.3400211648         254.1548968789       g       B3g (6)
   65   102           9.3400211648         254.1548968789       g       B2g (7)
   66    66           9.3828104898         255.3192536062       g       B1g (4)
   67    17           9.3828104898         255.3192536062       g        Ag (1)
   68    79          10.4268668379         283.7294711858      Au       B1u (5)
   69    53          10.4394117526         284.0708356717       u       B3u (3)
   70    37          10.4394117526         284.0708356717       u       B2u (2)
   71   108          10.4772566764         285.1006484008       u        Au (8)
   72    80          10.4772566764         285.1006484008       u       B1u (5)
   73    54          10.5411640631         286.8396568031       u       B3u (3)
   74    38          10.5411640631         286.8396568031       u       B2u (2)
   75    18          11.1671603287         303.8738811945      Ag        Ag (1)
   76    93          11.1942888496         304.6120857780       g       B3g (6)
   77   103          11.1942888496         304.6120857780       g       B2g (7)
   78    67          11.2762950167         306.8435870305       g       B1g (4)
   79    19          11.2762950167         306.8435870305       g        Ag (1)
   80    20          14.9552664851         406.9534901743      Ag        Ag (1)
   81    81          31.5305453131         857.9897573261      Au       B1u (5)
   82    55          31.6168847226         860.3391721015       u       B3u (3)
   83    39          31.6168847226         860.3391721015       u       B2u (2)
   84    21          45.4095853782        1235.6576377614      Ag        Ag (1)
   85   104          45.4313584419        1236.2501129448       g       B2g (7)
   86    94          45.4313584419        1236.2501129448       g       B3g (6)
   87    68          45.4966487771        1238.0267532895       g       B1g (4)
   88    22          45.4966487771        1238.0267532895       g        Ag (1)
   89    23          61.4299002241        1671.5925672209      Ag        Ag (1)
   90    82         101.6590927476        2766.2845488510      Au       B1u (5)
   91    40         101.6677103936        2766.5190469214       u       B2u (2)
   92    56         101.6677103936        2766.5190469214       u       B3u (3)
   93   109         101.6935642368        2767.2225657610       u        Au (8)
   94    83         101.6935642368        2767.2225657610       u       B1u (5)
   95    41         101.7366576790        2768.3951979376       u       B2u (2)
   96    57         101.7366576790        2768.3951979376       u       B3u (3)
   97    84         114.8619232627        3125.5518319616      Au       B1u (5)
   98    42         114.9153515812        3127.0056904211       u       B2u (2)
   99    58         114.9153515812        3127.0056904211       u       B3u (3)
  100    24         196.9005999922        5357.9377180789      Ag        Ag (1)
  101    95         196.9107963788        5358.2151758621       g       B3g (6)
  102   105         196.9107963788        5358.2151758621       g       B2g (7)
  103    69         196.9413092772        5359.0454740394       g       B1g (4)
  104    25         196.9413092772        5359.0454740395       g        Ag (1)
  105    26         214.0066267304        5823.4163701015      Ag        Ag (1)
  106    85         393.4723045815       10706.9257372494      Au       B1u (5)
  107    59         393.4968564918       10707.5938286929       u       B3u (3)
  108    43         393.4968564918       10707.5938286930       u       B2u (2)
  109    27         892.8422163720       24295.4718654054      Ag        Ag (1)


  VSCF finished.

 @CHECKOUT-I, Total execution time (CPU/WALL):        1.46/       1.90 seconds.
--executable xvscf finished with status     0 in        1.95 seconds (walltime).
 --invoking executable--
/cvmfs/restricted.computecanada.ca/easybuild/software/2020/avx2/Compiler/intel2020/cfour/2.1/bin/xvtran
 @GETMEM-I,  Allocated   19073 MB of main memory.
  Full UHF integral transformation
  Transformation of IIII integrals :
  2 passes through the AO integral file were required.
       58779 AO integrals were read.
      104254 MO integrals (Spin case AAAA) were written to HF2AA.
      104254 MO integrals (Spin case BBBB) were written to HF2BB.
      207547 MO integrals (Spin case AABB) were written to HF2AB.
  Transformation of IIJJ integrals :
  2 passes through the AO integral file were required.
      269470 AO integrals were read.
      357987 MO integrals (Spin case AAAA) were written to HF2AA.
      357987 MO integrals (Spin case BBBB) were written to HF2BB.
      715974 MO integrals (Spin case AABB) were written to HF2AB.
  Transformation of IJIJ integrals :
  2 passes through the AO integral file were required.
      458861 AO integrals were read.
      634683 MO integrals (Spin case AAAA) were written to HF2AA.
      634683 MO integrals (Spin case BBBB) were written to HF2BB.
     1264332 MO integrals (Spin case AABB) were written to HF2AB.
  Transformation of IJKL integrals :
  2 passes through the AO integral file were required.
      971729 AO integrals were read.
     1195752 MO integrals (Spin case AAAA) were written to HF2AA.
     1195752 MO integrals (Spin case BBBB) were written to HF2BB.
     2391504 MO integrals (Spin case AABB) were written to HF2AB.
  Summary of active molecular orbitals: 
------------------------------------------------------------------------
                         * Spin case alpha *
 
  Index      Eigenvalue    Symmetry    Index      Eigenvalue    Symmetry
------------------------------------------------------------------------
     1       -22.3135594        1        56       101.6383973        3
     2        -2.6631978        1        57       101.6827432        3
     3        -2.0436587        2        58       114.8876361        3
     4        -2.0436587        3        59       393.4895892        3
     5        -0.4335158        1        60        -0.1540317        4
     6        -0.1574173        1        61         0.5809028        4
     7        -0.1540317        1        62         2.6661307        4
     8         0.0933007        1        63         2.6891409        4
     9         0.5809028        1        64         3.0329357        4
    10         0.5928233        1        65         9.2645376        4
    11         2.5404405        1        66         9.3110364        4
    12         2.6584982        1        67        11.1022870        4
    13         2.6661307        1        68        45.4120988        4
    14         2.6891409        1        69       196.9210137        4
    15         3.0329357        1        70        -1.2238793        5
    16         3.0542003        1        71        -0.3261932        5
    17         9.2490922        1        72         0.0031606        5
    18         9.2645376        1        73         0.5714967        5
    19         9.3110364        1        74         0.5778530        5
    20        11.0885558        1        75         1.5853426        5
    21        11.1022870        1        76         2.9184139        5
    22        14.8710440        1        77         2.9305298        5
    23        45.3704262        1        78         7.8390602        5
    24        45.4120988        1        79        10.3611211        5
    25        61.3938896        1        80        10.3816324        5
    26       196.8909069        1        81        31.5039551        5
    27       196.9210137        1        82       101.6328536        5
    28       213.9954839        1        83       101.6550277        5
    29       892.8393579        1        84       114.8513979        5
    30        -0.3361515        2        85       393.4693410        5
    31        -0.0184592        2        86        -0.1566417        6
    32         0.5730749        2        87         0.5896365        6
    33         0.5859341        2        88         2.6604033        6
    34         1.5335354        2        89         2.6757049        6
    35         2.9214247        2        90         3.0484241        6
    36         2.9458831        2        91         9.2529508        6
    37         7.8282234        2        92         9.2838843        6
    38        10.3662384        2        93        11.0918945        6
    39        10.4074342        2        94        45.3808479        6
    40        31.5375870        2        95       196.8984453        6
    41       101.6383973        2        96        -0.1566417        7
    42       101.6827432        2        97         0.5896365        7
    43       114.8876361        2        98         2.6604033        7
    44       393.4895892        2        99         2.6757049        7
    45        -0.3361515        3       100         3.0484241        7
    46        -0.0184592        3       101         9.2529508        7
    47         0.5730749        3       102         9.2838843        7
    48         0.5859341        3       103        11.0918945        7
    49         1.5335354        3       104        45.3808479        7
    50         2.9214247        3       105       196.8984453        7
    51         2.9458831        3       106         0.5778530        8
    52         7.8282234        3       107         2.9305298        8
    53        10.3662384        3       108        10.3816324        8
    54        10.4074342        3       109       101.6550277        8
    55        31.5375870        3
------------------------------------------------------------------------
------------------------------------------------------------------------
                         * Spin case beta *
 
  Index      Eigenvalue    Symmetry    Index      Eigenvalue    Symmetry
------------------------------------------------------------------------
     1       -22.2108503        1        56       101.6677104        3
     2        -2.2965750        1        57       101.7366577        3
     3        -0.4194425        1        58       114.9153516        3
     4        -0.1498198        1        59       393.4968565        3
     5        -0.1359470        1        60        -0.1359470        4
     6         0.1239917        1        61         0.6722886        4
     7         0.6309275        1        62         2.6775642        4
     8         0.6722886        1        63         2.7071931        4
     9         2.6271039        1        64         3.2191959        4
    10         2.6678060        1        65         9.3097066        4
    11         2.6775642        1        66         9.3828105        4
    12         2.7071931        1        67        11.2762950        4
    13         3.1351064        1        68        45.4966488        4
    14         3.2191959        1        69       196.9413093        4
    15         9.2855973        1        70        -1.1298614        5
    16         9.3097066        1        71        -0.3207844        5
    17         9.3828105        1        72         0.0146912        5
    18        11.1671603        1        73         0.5761175        5
    19        11.2762950        1        74         0.5845582        5
    20        14.9552665        1        75         1.6198219        5
    21        45.4095854        1        76         2.9503704        5
    22        45.4966488        1        77         2.9769643        5
    23        61.4299002        1        78         7.8808904        5
    24       196.9006000        1        79        10.4268668        5
    25       196.9413093        1        80        10.4772567        5
    26       214.0066267        1        81        31.5305453        5
    27       892.8422164        1        82       101.6590927        5
    28        -1.0369596        2        83       101.6935642        5
    29        -0.3093508        2        84       114.8619233        5
    30         0.0378959        2        85       393.4723046        5
    31         0.5782188        2        86        -0.1462962        6
    32         0.5952774        2        87         0.6413996        6
    33         1.6857317        2        88         2.6702400        6
    34         2.9569799        2        89         2.6898430        6
    35         3.0109220        2        90         3.1558799        6
    36         7.9771087        2        91         9.2916130        6
    37        10.4394118        2        92         9.3400212        6
    38        10.5411641        2        93        11.1942888        6
    39        31.6168847        2        94        45.4313584        6
    40       101.6677104        2        95       196.9107964        6
    41       101.7366577        2        96        -0.1462962        7
    42       114.9153516        2        97         0.6413996        7
    43       393.4968565        2        98         2.6702400        7
    44        -1.0369596        3        99         2.6898430        7
    45        -0.3093508        3       100         3.1558799        7
    46         0.0378959        3       101         9.2916130        7
    47         0.5782188        3       102         9.3400212        7
    48         0.5952774        3       103        11.1942888        7
    49         1.6857317        3       104        45.4313584        7
    50         2.9569799        3       105       196.9107964        7
    51         3.0109220        3       106         0.5845582        8
    52         7.9771087        3       107         2.9769643        8
    53        10.4394118        3       108        10.4772567        8
    54        10.5411641        3       109       101.6935642        8
    55        31.6168847        3
------------------------------------------------------------------------
  -22.3135593822090       -2.66319781517204       -2.04365869052786     
  -2.04365869052787      -0.433515833011697      -0.157417340080029     
 -0.154031737149494       9.330068861630766E-002  0.580902849881469     
  0.592823348470764        2.54044049743694        2.65849824594123     
   2.66613067844291        2.68914087783218        3.03293568095371     
   3.05420030838439        9.24909221222079        9.26453762091426     
   9.31103640465873        11.0885557925295        11.1022870205139     
   14.8710440025573        45.3704262499050        45.4120988279421     
   61.3938896308282        196.890906911321        196.921013745602     
   213.995483877581        892.839357851801      -0.336151533770595     
 -1.845923478499354E-002  0.573074865498843       0.585934123003725     
   1.53353542352036        2.92142469328844        2.94588310871623     
   7.82822340886238        10.3662384042367        10.4074341942411     
   31.5375869675173        101.638397298145        101.682743205577     
   114.887636139567        393.489589181698      -0.336151533770602     
 -1.845923478499993E-002  0.573074865498854       0.585934123003729     
   1.53353542352037        2.92142469328842        2.94588310871622     
   7.82822340886219        10.3662384042366        10.4074341942410     
   31.5375869675172        101.638397298145        101.682743205577     
   114.887636139567        393.489589181698      -0.154031737149499     
  0.580902849881467        2.66613067844292        2.68914087783218     
   3.03293568095373        9.26453762091424        9.31103640465870     
   11.1022870205138        45.4120988279421        196.921013745601     
  -1.22387928830457      -0.326193246987628       3.160587716134449E-003
  0.571496726834449       0.577852962521564        1.58534263307555     
   2.91841394186780        2.93052977994594        7.83906016192961     
   10.3611210702320        10.3816324214374        31.5039551399139     
   101.632853636657        101.655027702379        114.851397944908     
   393.469340956884      -0.156641659800776       0.589636503963036     
   2.66040332674930        2.67570491834109        3.04842413006634     
   9.25295076770116        9.28388425201055        11.0918944562671     
   45.3808479441658        196.898445318057      -0.156641659800778     
  0.589636503963037        2.66040332674930        2.67570491834110     
   3.04842413006635        9.25295076770113        9.28388425201055     
   11.0918944562671        45.3808479441658        196.898445318057     
  0.577852962521559        2.93052977994593        10.3816324214374     
   101.655027702379     
  -22.2108503083803       -2.29657502197134      -0.419442450976247     
 -0.149819831922649      -0.135947006061403       0.123991662514026     
  0.630927463575811       0.672288627752580        2.62710389694127     
   2.66780595528567        2.67756420373890        2.70719312036919     
   3.13510643604073        3.21919589669263        9.28559727512248     
   9.30970658512004        9.38281048975197        11.1671603287365     
   11.2762950166856        14.9552664850647        45.4095853782068     
   45.4966487771268        61.4299002240682        196.900599992241     
   196.941309277185        214.006626730395        892.842216372042     
  -1.03695962060877      -0.309350800191330       3.789589899473311E-002
  0.578218833230046       0.595277370831327        1.68573169835727     
   2.95697986156021        3.01092199156556        7.97710872590534     
   10.4394117526460        10.5411640630926        31.6168847226448     
   101.667710393635        101.736657678992        114.915351581173     
   393.496856491793       -1.03695962060876      -0.309350800191327     
  3.789589899474793E-002  0.578218833230051       0.595277370831330     
   1.68573169835725        2.95697986156018        3.01092199156556     
   7.97710872590506        10.4394117526460        10.5411640630926     
   31.6168847226444        101.667710393635        101.736657678992     
   114.915351581173        393.496856491793      -0.135947006061407     
  0.672288627752583        2.67756420373891        2.70719312036920     
   3.21919589669266        9.30970658512005        9.38281048975197     
   11.2762950166856        45.4966487771267        196.941309277184     
  -1.12986142399147      -0.320784395020839       1.469119860140432E-002
  0.576117527898477       0.584558248925713        1.61982191682921     
   2.95037041348697        2.97696429011580        7.88089035332655     
   10.4268668378615        10.4772566763660        31.5305453131101     
   101.659092747597        101.693564236833        114.861923262661     
   393.472304581523      -0.146296229783433       0.641399602096719     
   2.67024000997149        2.68984298285714        3.15587993195071     
   9.29161303862747        9.34002116477747        11.1942888496424     
   45.4313584418780        196.910796378770      -0.146296229783429     
  0.641399602096717        2.67024000997149        2.68984298285715     
   3.15587993195071        9.29161303862743        9.34002116477748     
   11.1942888496424        45.4313584418779        196.910796378771     
  0.584558248925714        2.97696429011580        10.4772566763660     
   101.693564236833     
 @CHECKOUT-I, Total execution time (CPU/WALL):        1.82/     410.46 seconds.
--executable xvtran finished with status     0 in      410.51 seconds (walltime).
 --invoking executable--
/cvmfs/restricted.computecanada.ca/easybuild/software/2020/avx2/Compiler/intel2020/cfour/2.1/bin/xintprc
 @GETMEM-I,  Allocated   19073 MB of main memory.
  @GMOIAA-I, Processing MO integrals for spin case AA.
  @GMOIAA-I, Generation of integral list completed.
                      TYPE                NUMBER
                      ----               --------
                      PPPP               1969356
                      PPPH                302440
                      PPHH                 12229
                      PHPH                  7919
                      PHHH                   710
                      HHHH                    22

                     TOTAL               2292676
  @GMOIAA-I, Processing MO integrals for spin case BB.
  @GMOIAA-I, Generation of integral list completed.
                      TYPE                NUMBER
                      ----               --------
                      PPPP               2123071
                      PPPH                163200
                      PPHH                  3525
                      PHPH                  2724
                      PHHH                   150
                      HHHH                     6

                     TOTAL               2292676
  @GMOIAB-I, Processing MO integrals for spin case AB.
                      TYPE                NUMBER
                      ----               --------
                      PPPP               4083738
                      PPPH1H              314300
                      PPPH2H              157140
                      PPHH                 12648
                      PHPH1P                2628
                      PHPH2P                8250
                      PHHH1P                 240
                      PHHH2P                 398
                      HHHH                    15

                     TOTAL               4579357

  @FORMT2-I, Second-order MP correlation energies:
  @FORMT2-I, Singles contribution will be calculated.
            ------------------------------------------------
            E(SCF)                  =    -73.098992355517 a.u.
            E2(AA)                  =     -0.019303281764 a.u.
            E2(BB)                  =     -0.001175662105 a.u.
            E2(AB)                  =     -0.120484892520 a.u.
            E2(SINGLE)              =     -0.004786636178 a.u.
            E2(TOT)                 =     -0.140963836389 a.u.
            Total MP2 energy        =    -73.244742828084 a.u.
            ------------------------------------------------
            ----------------------------------------------
                     Projected spin multiplicities: 
            ----------------------------------------------
             <0|S^2|0>                  =    2.0000000000.
             <0|S^2 T2|0>               =   -0.0000000000.
             Projected <0|S^2 exp(T)|0> =    2.0000000000.
             Approximate spin mult.     =    3.0000000000.
            ----------------------------------------------
   Largest T2 amplitudes for spin case AA:
   i   j   a   b             i   j   a   b             i   j   a   b
-----------------------------------------------------------------------------
[  4   3  61   9]-0.01031 [  4   3  49  34]-0.01020 [  3   2  87  70]-0.01005
[  4   2  97  70]-0.01005 [  4   3  64  15]-0.00957 [  3   2  90  70] 0.00845
[  4   2 100  70] 0.00845 [  4   3  61  15] 0.00829 [  4   3  64   9] 0.00829
[  4   3  49  31]-0.00707 [  4   3  46  34]-0.00707 [  3   2  34  11]-0.00612
[  4   2  49  11]-0.00612 [  4   3  46  31]-0.00583 [  4   3  61   7]-0.00556
-----------------------------------------------------------------------------
   Norm of T2AA vector (     4310 symmetry allowed elements):  0.0451118664.
-----------------------------------------------------------------------------
   Largest T2 amplitudes for spin case BB:
   i   j   a   b             i   j   a   b             i   j   a   b
-----------------------------------------------------------------------------
[  2   1  78  70] 0.00187 [  2   1  36  28] 0.00183 [  2   1  52  44] 0.00183
[  2   1  81  70]-0.00115 [  2   1  55  44]-0.00112 [  2   1  39  28]-0.00112
[  2   1  75  70] 0.00094 [  2   1  49  44] 0.00092 [  2   1  33  28] 0.00092
[  2   1  36  33] 0.00085 [  2   1  52  49] 0.00085 [  2   1  78  75] 0.00083
[  2   1  55  49]-0.00081 [  2   1  39  33]-0.00081 [  2   1  81  75]-0.00080
-----------------------------------------------------------------------------
   Norm of T2BB vector (      801 symmetry allowed elements):  0.0052521354.
-----------------------------------------------------------------------------
   Largest T2 amplitudes for spin case AB:
       _       _                 _       _                 _       _
   i   j   a   b             i   j   a   b             i   j   a   b
-----------------------------------------------------------------------------
[  2   2  70  70]-0.06571 [  3   2  87  70]-0.01934 [  4   2  97  70]-0.01934
[  4   2   9  44] 0.01908 [  3   2  61  44]-0.01908 [  4   2  61  28]-0.01908
[  3   2   9  28]-0.01908 [  3   2  90  70] 0.01665 [  4   2 100  70] 0.01665
[  3   2  64  44] 0.01618 [  3   2  15  28] 0.01618 [  4   2  15  44]-0.01618
[  4   2  64  28] 0.01618 [  4   2  49   9]-0.01062 [  3   2  34   9]-0.01062
-----------------------------------------------------------------------------
   Norm of T2AB vector (    12648 symmetry allowed elements):  0.1192033763.
-----------------------------------------------------------------------------
 @CHECKOUT-I, Total execution time (CPU/WALL):        2.20/      77.48 seconds.
--executable xintprc finished with status     0 in       77.56 seconds (walltime).
  calling xvcc 
 --invoking executable--
/cvmfs/restricted.computecanada.ca/easybuild/software/2020/avx2/Compiler/intel2020/cfour/2.1/bin/xvcc
 @GETMEM-I,  Allocated   19073 MB of main memory.
   CCSDT   energy will be calculated.
   The reference state is a ROHF wave function.
   The total correlation energy is -0.145806138956 a.u.
  transposing abij 
   The total correlation energy is -0.160985541758 a.u.
  Convergence information after     1 iterations: 
  Largest element of residual vector : -0.28145487E-01.
  Largest element of DIIS residual   : -0.28145487E-01.
  transposing abij 
   The total correlation energy is -0.165340863530 a.u.
  Convergence information after     2 iterations: 
  Largest element of residual vector : -0.14601156E-01.
  Largest element of DIIS residual   : -0.52064292E-02.
  transposing abij 
   The total correlation energy is -0.168242867336 a.u.
  Convergence information after     3 iterations: 
  Largest element of residual vector : -0.28291239E-02.
  Largest element of DIIS residual   : -0.33775116E-03.
  transposing abij 
   The total correlation energy is -0.168665729056 a.u.
  Convergence information after     4 iterations: 
  Largest element of residual vector : -0.30780098E-03.
  Largest element of DIIS residual   :  0.82335389E-04.
  transposing abij 
   The total correlation energy is -0.168708363547 a.u.
  Convergence information after     5 iterations: 
  Largest element of residual vector :  0.18323757E-04.
  Largest element of DIIS residual   :  0.11458645E-04.
  transposing abij 
   The total correlation energy is -0.168708588293 a.u.
  Convergence information after     6 iterations: 
  Largest element of residual vector : -0.60618797E-05.
  Largest element of DIIS residual   :  0.25478616E-05.
  transposing abij 
   The total correlation energy is -0.168710359103 a.u.
  Convergence information after     7 iterations: 
  Largest element of residual vector :  0.13125511E-05.
  Largest element of DIIS residual   :  0.76606961E-06.
  transposing abij 
   The total correlation energy is -0.168710718637 a.u.
  Convergence information after     8 iterations: 
  Largest element of residual vector : -0.45460456E-06.
  Largest element of DIIS residual   :  0.27620658E-06.
  transposing abij 
   The total correlation energy is -0.168710838032 a.u.
  Convergence information after     9 iterations: 
  Largest element of residual vector :  0.12104268E-06.
  Largest element of DIIS residual   :  0.85843233E-07.
  transposing abij 
   The total correlation energy is -0.168710847360 a.u.
  Convergence information after    10 iterations: 
  Largest element of residual vector :  0.11597853E-06.
  Largest element of DIIS residual   :  0.56310141E-07.
  transposing abij 
   The total correlation energy is -0.168710868635 a.u.
  Convergence information after    11 iterations: 
  Largest element of residual vector :  0.41674527E-07.
  Largest element of DIIS residual   : -0.97367826E-08.
  transposing abij 
   The total correlation energy is -0.168710877802 a.u.
  Convergence information after    12 iterations: 
  Largest element of residual vector : -0.43602437E-08.
  Largest element of DIIS residual   :  0.23370656E-08.
  transposing abij 
   The total correlation energy is -0.168710879450 a.u.
  Convergence information after    13 iterations: 
  Largest element of residual vector :  0.10117460E-07.
  Largest element of DIIS residual   :  0.17482703E-08.
  transposing abij 
   The total correlation energy is -0.168710881000 a.u.
  Convergence information after    14 iterations: 
  Largest element of residual vector :  0.40137706E-08.
  Largest element of DIIS residual   :  0.15248426E-08.
  transposing abij 
   The total correlation energy is -0.168710881441 a.u.
  Convergence information after    15 iterations: 
  Largest element of residual vector :  0.96258955E-09.
  Largest element of DIIS residual   :  0.52764596E-09.
  transposing abij 
   The total correlation energy is -0.168710881617 a.u.
  Convergence information after    16 iterations: 
  Largest element of residual vector :  0.12101535E-08.
  Largest element of DIIS residual   : -0.17074198E-09.
  transposing abij 
   The total correlation energy is -0.168710881886 a.u.
  Convergence information after    17 iterations: 
  Largest element of residual vector : -0.18293780E-08.
  Largest element of DIIS residual   : -0.62756319E-10.
  transposing abij 
   The total correlation energy is -0.168710881724 a.u.
  Convergence information after    18 iterations: 
  Largest element of residual vector :  0.19838248E-08.
  Largest element of DIIS residual   :  0.15427402E-10.
  transposing abij 
   The total correlation energy is -0.168710881847 a.u.
  Convergence information after    19 iterations: 
  Largest element of residual vector :  0.14566709E-09.
  Largest element of DIIS residual   :  0.16555779E-10.
  transposing abij 
   The total correlation energy is -0.168710881870 a.u.
  Convergence information after    20 iterations: 
  Largest element of residual vector : -0.15191168E-09.
  Largest element of DIIS residual   :  0.46033015E-11.
  transposing abij 
   The total correlation energy is -0.168710881862 a.u.
  Convergence information after    21 iterations: 
  Largest element of residual vector :  0.13535886E-09.
  Largest element of DIIS residual   :  0.46882234E-11.
  transposing abij 
   The total correlation energy is -0.168710881867 a.u.
  Convergence information after    22 iterations: 
  Largest element of residual vector :  0.57787639E-10.
  Largest element of DIIS residual   :  0.19395602E-11.
  Amplitude equations converged in    22iterations.
   The total correlation energy is -0.168710881869 a.u.
   The CC iterations have converged.

            ----------------------------------------------
                     Projected spin multiplicities: 
            ----------------------------------------------
             <0|S^2|0>                  =    2.0000000000.
             <0|S^2 (T2+T1**2) |0>      =   -0.0000000000.
             <0|S^2 T1|0>               =   -0.0000000000.
             Projected <0|S^2 exp(T)|0> =    2.0000000000.
             Approximate spin mult.     =    3.0000000000.
            ----------------------------------------------
   Largest T1 amplitudes for spin case AA:
   i       a                 i       a                 i       a    
-----------------------------------------------------------------------------
[  2       8    ]-0.01429 [  2       5    ] 0.01341 [  2      10    ] 0.00978
[  2      11    ] 0.00859 [  2      16    ]-0.00852 [  2       6    ]-0.00517
[  2      20    ] 0.00209 [  3      34    ] 0.00181 [  4      49    ] 0.00181
[  1      11    ] 0.00134 [  3      31    ] 0.00108 [  4      46    ] 0.00108
[  1      22    ]-0.00084 [  1       8    ]-0.00080 [  1      20    ] 0.00078
-----------------------------------------------------------------------------
   Norm of T1AA vector (       80 symmetry allowed elements):  0.0259327117.
-----------------------------------------------------------------------------
   Largest T2 amplitudes for spin case AA:
   i   j   a   b             i   j   a   b             i   j   a   b
-----------------------------------------------------------------------------
[  4   3  49  34]-0.01210 [  4   3  61   9]-0.01083 [  3   2  87  70]-0.01021
[  4   2  97  70]-0.01021 [  4   3  64  15]-0.01003 [  4   3  61  15] 0.00872
[  4   3  64   9] 0.00872 [  4   3  49  31]-0.00859 [  4   3  46  34]-0.00859
[  4   2 100  70] 0.00783 [  3   2  90  70] 0.00783 [  3   2  34  11]-0.00717
[  4   2  49  11]-0.00717 [  4   3  46  31]-0.00708 [  4   3  45  34]-0.00641
-----------------------------------------------------------------------------
   Norm of T2AA vector (     4310 symmetry allowed elements):  0.0491443513.
-----------------------------------------------------------------------------
   Largest T1 amplitudes for spin case BB:
   i       a                 i       a                 i       a    
-----------------------------------------------------------------------------
[  2       7    ]-0.02058 [  2      13    ] 0.01623 [  2       4    ] 0.01142
[  2       3    ]-0.00966 [  2       6    ] 0.00961 [  2      18    ]-0.00364
[  2       9    ]-0.00351 [  1       9    ]-0.00079 [  1      18    ]-0.00078
[  1      13    ] 0.00077 [  1      20    ] 0.00057 [  2      20    ]-0.00050
[  1       6    ] 0.00050 [  1       7    ]-0.00040 [  1       3    ]-0.00033
-----------------------------------------------------------------------------
   Norm of T1BB vector (       50 symmetry allowed elements):  0.0321191809.
-----------------------------------------------------------------------------
   Largest T2 amplitudes for spin case BB:
   i   j   a   b             i   j   a   b             i   j   a   b
-----------------------------------------------------------------------------
[  2   1  36  28] 0.00176 [  2   1  52  44] 0.00176 [  2   1  78  70] 0.00162
[  2   1  55  44]-0.00109 [  2   1  39  28]-0.00109 [  2   1  81  70]-0.00107
[  2   1  49  44] 0.00088 [  2   1  33  28] 0.00088 [  2   1  36  33] 0.00084
[  2   1  52  49] 0.00084 [  2   1  78  75] 0.00083 [  2   1  81  75]-0.00082
[  2   1  55  49]-0.00081 [  2   1  39  33]-0.00081 [  2   1  81  78]-0.00077
-----------------------------------------------------------------------------
   Norm of T2BB vector (      801 symmetry allowed elements):  0.0050148217.
-----------------------------------------------------------------------------
   Largest T2 amplitudes for spin case AB:
       _       _                 _       _                 _       _
   i   j   a   b             i   j   a   b             i   j   a   b
-----------------------------------------------------------------------------
[  2   2  70  70]-0.12494 [  3   2  87  70]-0.02574 [  4   2  97  70]-0.02574
[  4   2   9  44] 0.02514 [  3   2  61  44]-0.02514 [  4   2  61  28]-0.02514
[  3   2   9  28]-0.02514 [  4   2 100  70] 0.02000 [  3   2  90  70] 0.02000
[  4   2  15  44]-0.01919 [  3   2  64  44] 0.01919 [  3   2  15  28] 0.01919
[  4   2  64  28] 0.01919 [  2   2  70  72]-0.01855 [  2   2  72  70]-0.01660
-----------------------------------------------------------------------------
   Norm of T2AB vector (    12648 symmetry allowed elements):  0.1772880619.
-----------------------------------------------------------------------------
       Summary of iterative solution of CC equations 
      -----------------------------------------------------------
                       Correlation           Total
       Iteration         Energy              Energy
      -----------------------------------------------------------
            0        -0.145806138956     -73.244798494474  DIIS 
            1        -0.160985541758     -73.259977897276  DIIS 
            2        -0.165340863530     -73.264333219048  DIIS 
            3        -0.168242867336     -73.267235222854  DIIS 
            4        -0.168665729056     -73.267658084573  DIIS 
            5        -0.168708363547     -73.267700719064  DIIS 
            6        -0.168708588293     -73.267700943810  DIIS 
            7        -0.168710359103     -73.267702714620  DIIS 
            8        -0.168710718637     -73.267703074154  DIIS 
            9        -0.168710838032     -73.267703193549  DIIS 
           10        -0.168710847360     -73.267703202877  DIIS 
           11        -0.168710868635     -73.267703224152  DIIS 
           12        -0.168710877802     -73.267703233319  DIIS 
           13        -0.168710879450     -73.267703234967  DIIS 
           14        -0.168710881000     -73.267703236517  DIIS 
           15        -0.168710881441     -73.267703236959  DIIS 
           16        -0.168710881617     -73.267703237135  DIIS 
           17        -0.168710881886     -73.267703237403  DIIS 
           18        -0.168710881724     -73.267703237241  DIIS 
           19        -0.168710881847     -73.267703237364  DIIS 
           20        -0.168710881870     -73.267703237387  DIIS 
           21        -0.168710881862     -73.267703237379  DIIS 
           22        -0.168710881869     -73.267703237387  DIIS 
      -----------------------------------------------------------
      A miracle has come to pass. The CC iterations have converged.
      The reference energy is       -73.09899235551745 a.u.
      The correlation energy is      -0.16871088186940 a.u.
      The total energy is           -73.26770323738685 a.u.
 @CHECKOUT-I, Total execution time (CPU/WALL):      168.51/     200.15 seconds.
--executable xvcc finished with status     0 in      200.24 seconds (walltime).
  The final electronic energy is       -73.267703237386854 a.u. 
  This computation required                          696.61 seconds (walltime).
Program finished with exit code 0 at: Tue Mar 26 10:53:02 EDT 2024

