 --invoking executable--
/home/nike/cfour_v2.00beta/bin/xjoda


   *************************************************************************
         <<<     CCCCCC     CCCCCC   |||     CCCCCC     CCCCCC   >>>
       <<<      CCC        CCC       |||    CCC        CCC         >>>
      <<<      CCC        CCC        |||   CCC        CCC            >>>
    <<<        CCC        CCC        |||   CCC        CCC              >>>
      <<<      CCC        CCC        |||   CCC        CCC            >>>
       <<<      CCC        CCC       |||    CCC        CCC         >>>
         <<<     CCCCCC     CCCCCC   |||     CCCCCC     CCCCCC   >>>
   *************************************************************************

     ****************************************************************
     * CFOUR Coupled-Cluster techniques for Computational Chemistry *
     ****************************************************************
 

   Department of Chemistry                Institut fuer Physikalische Chemie
   University of Texas at Austin          Universitaet Mainz
   Austin, TX  78712, USA                 D-55099 Mainz, Germany
 
                       Version 2.00beta
 
                     wob122                                            
                     Wed Nov  1 11:22:43 EDT 2017                      
                     integer*8 version is running
 
********************************************************************************
*                          Input from ZMAT file                                *
********************************************************************************
Li2                                                                             
Li                                                                              
Li 1 R                                                                          
                                                                                
R=4.170                                                                         
                                                                                
*ACES2(CALC=CCSDT                                                               
SAVE_INTS=ON                                                                    
XFORM_TOL=18                                                                    
SCF_CONV=10                                                                     
cctol=16                                                                        
CC_MAXCYC=999                                                                   
SCF_MAXCYC=99999                                                                
REFERENCE=ROHF                                                                  
MULT=3                                                                          
ABCDTYPE=STANDARD                                                               
MEM=32                                                                          
MEM_UNIT=GB                                                                     
BASIS=SPECIAL)                                                                  
                                                                                
LI:aug-cc-pCV5Z                                                                 
LI:aug-cc-pCV5Z                                                                 
                                                                                
********************************************************************************
  @GTFLGS-W, Keyword cctol not known and is ignored.
    -------------------------------------------------------------------
                    CFOUR Control Parameters 
    -------------------------------------------------------------------
        External           Internal           Value            Units
          Name               Name
    -------------------------------------------------------------------
       ABCDTYPE             IABCDT         STANDARD     [  0]   ***   
       ANHARMONIC           IANHAR         OFF          [  0]   ***   
       ANH_ALGORIT          IANALG         STANDARD     [  0]   ***   
       ANH_DERIVAT          IANDER         SECOND       [  1]   ***   
       ANH_STEPSIZ          ICUBST             50000          x 10-6  
       ANH_SYMMETR          IANHSM         ABELIAN      [  0]   ***   
       AO_LADDERS           IAOLAD         SINGLEPASS   [  1]   ***   
       BASIS                IBASIS         SPECIAL      [  0]   ***   
       BREIT                IBREIT         OFF          [  0]   ***   
       BRUCK_CONV           IBRTOL          10D-  4             ***   
       BRUECKNER            IBRKNR             OFF      [  0]   ***   
       BUFFERSIZE           IBUFFS            600               ***   
       CACHE_RECS           ICHREC             10               ***   
       CALCLEVEL            ICLLVL           CCSDT      [ 18]   ***   
       CCORBOPT             ICCORB             OFF      [  0] x 0.01  
       CC_CONV              ICCCNV          10D-  7             ***   
       CC_EXPORDER          ICCEOR              5               ***   
       CC_EXTRAPOL          ICCEXT             DIIS     [  1]   ***   
       CC_MAXCYC            ICCCYC            999              cycles 
       CC_PROGRAM           ICCPRO         VCC          [  0]   ***   
       CHARGE               ICHRGE              0               ***   
       CHOLESKY             ICHOLE         OFF          [  0]   ***   
       CIS_CONV             ICISTL              5               ***   
       COMM_SIZE            IPSIZE            ***               ***   
       CONSTANT             ICONST         OLD          [  1]   ***   
       CONTINUUM            ICONTU         NONE         [  0]   ***   
       CONTRACTION          ICNTYP          GENERAL     [  1]   ***   
       COORDINATES          ICOORD         INTERNAL     [  0]   ***   
       CPHF_CONVER          ICPHFT          10D- 16             ***   
       CPHF_MAXCYC          ICPHFC             64              cycles 
       CUBIC                ICUBIC         OFF          [  0]   ***   
       CURVILINEAR          ICURVY            OFF       [  0]   ***   
       DBOC                 IDBOC          OFF          [  0]   ***   
       DCT                  IDCT           OFF          [  0]   ***   
       DERIV_LEV            IDRLVL            ZERO      [  0]   ***   
       DIAG_MRCC            IEOMST          10D-  0             ***   
       DIFF_TYPE            IDIFTY         RELAXED      [  0]   ***   
       DIRECT               IDIRCT         OFF          [  0]   ***   
       DROPMO               IDRPMO      NONE         
       ECP                  IECP           OFF          [  0]   ***   
       EIGENVECTOR          IVEC                1               ***   
       EL_ANHARM            IELANH         OFF          [  0]   ***   
       EOMFOLLOW            IEOMSR         ENERGY       [  0]   ***   
       EOM_MRCC             IMRCCE         NEW          [  1]   ***   
       EOM_NONIT            EOMNON         OFF          [  0]   ***   
       EOM_NSING            IEOMSI          10D-  0             ***   
       EOM_NSTATES          IMRCCD         DAVIDSON     [  0]   ***   
       EOM_NTRIP            IEOMTR          10D-  0             ***   
       EOM_ORDER            IEXORD         ENERGY       [  0]   ***   
       ESTATE_CONV          IEXTOL          10D-  5             ***   
       ESTATE_DIAG          IEXDIG         ITERATIVE    [  0]   ***   
       ESTATE_LOCK          IESLOC         ON           [  1]   ***   
       ESTATE_MAXC          IEXMXC             20               ***   
       ESTATE_PROP          IEXPRP         OFF          [  0]   ***   
       EVAL_HESS            IRECAL              0            # of cyc.
       EXCITATION           IEXCIT              0               ***   
       EXCITE               IEXCIT         NONE         [  0]   ***   
       FCGRADNEW            IFCGNW         OFF          [  0]   ***   
       FC_FIELD             IFINFC              0             x 10-6  
       FD_CALTYPE           IFDCAL         GRADONLY     [  0]   ***   
       FD_PROJECT           IFDPRJ         OFF          [  1]   ***   
       FD_STEPSIZE          IDISFD              0            10-4 bohr
       FD_USEGROUP          IFDGRP         FULL         [  0]   ***   
       FILE_RECSIZ          IFLREC              4096           words  
       FINITE_PERT          IFIPER              0             x 10-6  
       FIXGEOM              IFIXGM         OFF          [  0]   ***   
       FOCK                 IFOCK          AO           [  1]   ***   
       FREQ_ALGORI          IVIALG         STANDARD     [  0]   ***   
       FROZEN_CORE          IFROCO         OFF          [  0]   ***   
       FROZEN_VIRT          IFROVI         OFF          [  0]   ***   
       GAMMA_ABCD           IGABCD         STORE        [  0]   ***   
       GAMMA_ABCI           IGABCI         STORE        [  0]   ***   
       GENBAS_1             IGNBS1              0               ***   
       GENBAS_2             IGNBS2              0               ***   
       GENBAS_3             IGNBS3              0               ***   
       GENBAS_4             IGNBS4              0               ***   
       GEO_CONV             ICONTL              5              H/bohr 
       GEO_MAXCYC           IOPTCY             50               ***   
       GEO_MAXSTEP          IMXSTP            300            millibohr
       GEO_METHOD           INR            SINGLE_POINT [  5]   ***   
       GIAO                 IGIAO          OFF          [  1]   ***   
       GIMIC                IGIMIC         OFF          [  0]   ***   
       GRID                 IGRID          OFF          [  0]   ***   
       GRID_ALGO            IGALGO         SERIAL       [  0]   ***   
       GUESS                IGUESS            MOREAD    [  0]   ***   
       HBAR                 IHBAR              OFF      [  0]   ***   
       HESS_TYPE            IHESTP         SCF          [  0]   ***   
       HF2_FILE             IHF2Fl         USE          [  1]   ***   
       HFSTABILITY          ISTABL         OFF          [  0]   ***   
       INCORE               INCORE             OFF      [  0]   ***   
       INPUT_MRCC           IMRCC          ON           [  1]   ***   
       INTEGRALS            INTTYP             VMOL     [  1]   ***   
       JODA_PRINT           IJPRNT              0               ***   
       LINDEP_TOL           ILINDP              8               ***   
       LINEQ_CONV           IZTACN          10D-  7           cycles  
       LINEQ_EXPOR          ILMAXD              5               ***   
       LINEQ_MAXCY          ILMAXC             50               ***   
       LINEQ_TYPE           ILTYPE         DIIS         [  1]   ***   
       LOCK_ORBOCC          ILOCOC             OFF      [  0]   ***   
       MEMORY_SIZE          IMEMSZ         *********           words  
       MEM_UNIT             IMEMU          GB           [  3]   ***   
       MRCC                 IMRCCC         OFF          [  0]   ***   
       MULTIPLICTY          IMULTP              3               ***   
       NEGEVAL              IDIE             ABORT      [  0]   ***   
       NEWNORM              INEWNO         OFF          [  0]   ***   
       NON-HF               INONHF              ON      [  1]   ***   
       NTOP_TAMP            ITOPT2             15               ***   
       NUC_MODEL            INUCMO         POINT        [  0]   ***   
       OCCUPATION           IOCCU   ESTIMATED BY SCF 
       OPEN-SHELL           IOPEN          SPIN-ORBITAL [  0]   ***   
       ORBITALS             IORBTP         SEMICANONICAL[  1]   ***   
       PARALLEL             IPARAL         ON           [  1]   ***   
       PARA_INT             IPINTS         ON           [  1]   ***   
       PARA_PRINT           IPPRIN              0               ***   
       PERT_ORB             IPTORB         STANDARD     [  0]   ***   
       POINTS               IGRDFD              0               ***   
       PRINT                IPRNT               0               ***   
       PROPS                IPROPS             OFF      [  0]   ***   
       PROP_INTEGR          IINTYP         INTERNAL     [  0]   ***   
       PSI                  IPSI           OFF          [  0]   ***   
       QUARTIC              IQUART         OFF          [  0]   ***   
       RAMAN_INT            IRAMIN         OFF          [  0]   ***   
       RAMAN_ORB            IRAMRE         UNRELAXED    [  0]   ***   
       RDO                  IRDOFM             OFF      [  0]   ***   
       REFERENCE            IREFNC             ROHF     [  2]   ***   
       RELATIVIST           IRELAT         OFF          [  0]   ***   
       RELAX_DENS           IRDENS             OFF      [  0]   ***   
       RESET_FLAGS          IRESET             OFF      [  0]   ***   
       RESTART_CC           ICCRES         OFF          [  0]   ***   
       ROT_EVEC             ROTVEC              0               ***   
       SAVE_INTS            ISVINT              ON      [  1]   ***   
       SCALE_ON             ISTCRT              0               ***   
       SCF_CONV             ISCFCV          10D- 10             ***   
       SCF_DAMPING          IDAMP               0             x 10-3  
       SCF_EXPORDE          IRPPOR              6               ***   
       SCF_EXPSTAR          IRPPLS              8               ***   
       SCF_EXTRAPO          IRPP                ON      [  1]   ***   
       SCF_MAXCYC           ISCFCY            ***              cycles 
       SCF_NOSTOP           ISCFST         OFF          [  0]   ***   
       SCF_PRINT            ISCFPR              0               ***   
       SD_FIELD             IFINSD              0             x 10-6  
       SEQUENCE             ISEQUE         OFF          [  0]   ***   
       SOPERT               IPERSO         OFF          [  0]   ***   
       SPHERICAL            IDFGHI             ON       [  1]   ***   
       SPINORBIT            ISOCAL         OFF          [  0]   ***   
       SPINROTATIO          ISRCON         OFF          [  0]   ***   
       SPIN_FLIP            ISPFLP         OFF          [  0]   ***   
       SPIN_ORBIT           ISPORB         OFF          [  0]   ***   
       SPIN_SCAL            ISCSMP         OFF          [  0]   ***   
       SUBGROUP             ISUBGP         DEFAULT      [  0]   ***   
       SUBGRPAXIS           ISBXYZ         X            [  0]   ***   
       SYMMETRY             ISYM             ON         [  0]   ***   
       SYM_CHECK            ISYMCK         OVERRIDE     [  1]   ***   
       T3_EXTRAPOL          IT3EXT         OFF          [  0]   ***   
       TAMP_SUM             IEVERY              5               ***   
       TESTSUITE            ITESTS         OFF          [  0]   ***   
       THERMOCH             ITHERM         OFF          [  0]   ***   
       TOL_CHOLESK          ITOLCH          10D-  4             ***   
       TRANGRAD             IRESRM         OFF          [  0]   ***   
       TRANS_INV            ITRAIN         USE          [  0]   ***   
       TREAT_PERT           ITREAT         SIMULTANEOUS [  0]   ***   
       UIJ_THRESHO          IUIJTH              1               ***   
       UNITS                IUNITS         ANGSTROM     [  0]   ***   
       UNOS                 IUNOS          OFF          [  0]   ***   
       UPDATE_HESS          IHUPDT         ON           [  1]   ***   
       VIBPHASE             ISETPH         STANDARD     [  0]   ***   
       VIBRATION            IVIB              NO        [  0]   ***   
       VIB_ALGORIT          IGEALG         STANDARD     [  0]   ***   
       VNATORB              IVNORB         OFF          [  0]   ***   
       VTRAN                IVTRAN         FULL/PARTIAL [  0]   ***   
       XFIELD               IXEFLD              0             x 10-6  
       XFORM_TOL            IXFTOL          10D- 18             ***   
       YFIELD               IYEFLD              0             x 10-6  
       ZFIELD               IZEFLD              0             x 10-6  
    -------------------------------------------------------------------
   2 entries found in Z-matrix 
   Job Title : Li2                                                                             
   There are  1 unique internal coordinates.
   Of these,  0 will be optimized.
   User supplied Z-matrix: 
--------------------------------------------------------------------------------
       SYMBOL    BOND      LENGTH    ANGLE     ANGLE     DIHED     ANGLE
                  TO      (ANGST)    WRT      (DEG)      WRT      (DEG)
--------------------------------------------------------------------------------
        Li   
        Li         1         R    
                  *Initial values for internal coordinates* 
                      Name             Value
                        R               4.1700000000
--------------------------------------------------------------------------------
  1  LI         3     7.01600
  2  LI         3     7.01600
 factor:   60.1997200000000     
   Rotational constants (in cm-1): 
          0.2763533126             0.2763533126
   Rotational constants (in MHz): 
       8284.8650478640          8284.8650478640
********************************************************************************
   The full molecular point group is DXh .
   The largest Abelian subgroup of the full molecular point group is D2h .
   The computational point group is D2h .
********************************************************************************
--------------------------------------------------------------------------------
   Analysis of internal coordinates specified by Z-matrix 
--------------------------------------------------------------------------------
   *The nuclear repulsion energy is    1.142108848920863 a.u.
   *There is   1 degree of freedom within the tot. symm. molecular subspace.
   *Z-matrix requests optimization of   0 coordinates.
   *The optimization is constrained.
   *The following   1 parameters can have non-zero 
    derivatives within the totally symmetric subspace:
             R    [ 1]
   *The following   0 parameters are to be optimized:

   *The following coordinates must be varied in an  unconstrained optimization.
             R    [ 1]
--------------------------------------------------------------------------------
 ----------------------------------------------------------------
 Z-matrix   Atomic            Coordinates (in bohr)
  Symbol    Number           X              Y              Z
 ----------------------------------------------------------------
     LI        3         0.00000000     0.00000000     3.94007980
     LI        3         0.00000000     0.00000000    -3.94007980
 ----------------------------------------------------------------
   Interatomic distance matrix (Angstroms) 
 
                 LI            LI   
                [ 1]        [ 2]
  LI   [ 1]     0.00000
  LI   [ 2]     4.17000     0.00000
   Rotational constants (in cm-1): 
          0.2763533126             0.0000000000
   Rotational constants (in MHz): 
       8284.8650478640             0.0000000000
  @GTFLGS-W, Keyword cctol not known and is ignored.
  There are  362 basis functions.
 @GEOPT-W, Archive file not created for single-point calculation.
  @CHECKOUT-I, Total execution time (CPU/WALL):        0.31/       2.04 seconds.
--executable xjoda finished with status     0 in        2.24 seconds (walltime).
 --invoking executable--
/home/nike/cfour_v2.00beta/bin/xvmol
 Serial version of molecule started
********************************************************************************
                    Input from MOL file
********************************************************************************
INTGRL        1    0    1    0    0    0    0    0    0                         
         *** CFOUR Program System (Release V0.1) ***                            
Li2                                                                             
    1    3 X  Y   Z   0.10E-08              0    0                              
   9999.00      3.00                                                            
          3.00000000    1    6    1    1    1    1    1    1                    
LI#1   0.000000000000000   0.000000000000000   3.940079795592062                
   19   11                                                                      
   29493.0000000000       1.800000000000000E-005 -3.000000000000000E-006        
  0.000000000000000E+000  0.000000000000000E+000  0.000000000000000E+000        
  0.000000000000000E+000  0.000000000000000E+000  0.000000000000000E+000        
  0.000000000000000E+000  0.000000000000000E+000  0.000000000000000E+000        
   4417.10100000000       1.410000000000000E-004 -2.200000000000000E-005        
  0.000000000000000E+000  0.000000000000000E+000  0.000000000000000E+000        
  0.000000000000000E+000  0.000000000000000E+000  0.000000000000000E+000        
  0.000000000000000E+000  0.000000000000000E+000  0.000000000000000E+000        
   1005.22300000000       7.390000000000000E-004 -1.150000000000000E-004        
  0.000000000000000E+000  0.000000000000000E+000  0.000000000000000E+000        
  0.000000000000000E+000  0.000000000000000E+000  0.000000000000000E+000        
  0.000000000000000E+000  0.000000000000000E+000  0.000000000000000E+000        
   284.700900000000       3.107000000000000E-003 -4.870000000000000E-004        
  0.000000000000000E+000  0.000000000000000E+000  0.000000000000000E+000        
  0.000000000000000E+000  0.000000000000000E+000  0.000000000000000E+000        
  0.000000000000000E+000  0.000000000000000E+000  0.000000000000000E+000        
   92.8654300000000       1.113500000000000E-002 -1.746000000000000E-003        
  0.000000000000000E+000  0.000000000000000E+000  0.000000000000000E+000        
  0.000000000000000E+000  0.000000000000000E+000  0.000000000000000E+000        
  0.000000000000000E+000  0.000000000000000E+000  0.000000000000000E+000        
   33.5117900000000       3.467000000000000E-002 -5.520000000000000E-003        
  0.000000000000000E+000  0.000000000000000E+000  0.000000000000000E+000        
  0.000000000000000E+000  0.000000000000000E+000  0.000000000000000E+000        
  0.000000000000000E+000  0.000000000000000E+000  0.000000000000000E+000        
   13.0418000000000       9.217100000000000E-002 -1.492800000000000E-002        
  0.000000000000000E+000  0.000000000000000E+000  0.000000000000000E+000        
  0.000000000000000E+000  0.000000000000000E+000  0.000000000000000E+000        
  0.000000000000000E+000  0.000000000000000E+000  0.000000000000000E+000        
   5.35753600000000       0.199576000000000      -3.420600000000000E-002        
  0.000000000000000E+000  0.000000000000000E+000  0.000000000000000E+000        
  0.000000000000000E+000  0.000000000000000E+000  0.000000000000000E+000        
  0.000000000000000E+000  0.000000000000000E+000  0.000000000000000E+000        
   2.27933800000000       0.328836000000000      -6.215500000000000E-002        
  0.000000000000000E+000  0.000000000000000E+000  0.000000000000000E+000        
  0.000000000000000E+000  0.000000000000000E+000  0.000000000000000E+000        
  0.000000000000000E+000  0.000000000000000E+000  0.000000000000000E+000        
  0.993990000000000       0.345975000000000      -9.590200000000000E-002        
  0.000000000000000E+000  0.000000000000000E+000  0.000000000000000E+000        
  0.000000000000000E+000  0.000000000000000E+000  0.000000000000000E+000        
  0.000000000000000E+000  0.000000000000000E+000  0.000000000000000E+000        
  0.433471000000000       0.142761000000000      -0.103972000000000             
   1.00000000000000       0.000000000000000E+000  0.000000000000000E+000        
  0.000000000000000E+000  0.000000000000000E+000  0.000000000000000E+000        
  0.000000000000000E+000  0.000000000000000E+000  0.000000000000000E+000        
  9.556600000000000E-002  5.319000000000000E-003  0.307151000000000             
  0.000000000000000E+000   1.00000000000000       0.000000000000000E+000        
  0.000000000000000E+000  0.000000000000000E+000  0.000000000000000E+000        
  0.000000000000000E+000  0.000000000000000E+000  0.000000000000000E+000        
  4.465700000000000E-002 -2.101000000000000E-003  0.579028000000000             
  0.000000000000000E+000  0.000000000000000E+000   1.00000000000000             
  0.000000000000000E+000  0.000000000000000E+000  0.000000000000000E+000        
  0.000000000000000E+000  0.000000000000000E+000  0.000000000000000E+000        
  2.063300000000000E-002  8.150000000000000E-004  0.223231000000000             
  0.000000000000000E+000  0.000000000000000E+000  0.000000000000000E+000        
   1.00000000000000       0.000000000000000E+000  0.000000000000000E+000        
  0.000000000000000E+000  0.000000000000000E+000  0.000000000000000E+000        
   27.8558000000000       0.000000000000000E+000  0.000000000000000E+000        
  0.000000000000000E+000  0.000000000000000E+000  0.000000000000000E+000        
  0.000000000000000E+000   1.00000000000000       0.000000000000000E+000        
  0.000000000000000E+000  0.000000000000000E+000  0.000000000000000E+000        
   12.5082000000000       0.000000000000000E+000  0.000000000000000E+000        
  0.000000000000000E+000  0.000000000000000E+000  0.000000000000000E+000        
  0.000000000000000E+000  0.000000000000000E+000   1.00000000000000             
  0.000000000000000E+000  0.000000000000000E+000  0.000000000000000E+000        
   5.61660000000000       0.000000000000000E+000  0.000000000000000E+000        
  0.000000000000000E+000  0.000000000000000E+000  0.000000000000000E+000        
  0.000000000000000E+000  0.000000000000000E+000  0.000000000000000E+000        
   1.00000000000000       0.000000000000000E+000  0.000000000000000E+000        
   2.52210000000000       0.000000000000000E+000  0.000000000000000E+000        
  0.000000000000000E+000  0.000000000000000E+000  0.000000000000000E+000        
  0.000000000000000E+000  0.000000000000000E+000  0.000000000000000E+000        
  0.000000000000000E+000   1.00000000000000       0.000000000000000E+000        
  6.100000000000000E-003  0.000000000000000E+000  0.000000000000000E+000        
  0.000000000000000E+000  0.000000000000000E+000  0.000000000000000E+000        
  0.000000000000000E+000  0.000000000000000E+000  0.000000000000000E+000        
  0.000000000000000E+000  0.000000000000000E+000   1.00000000000000             
   13   10                                                                      
   19.6635000000000       5.400000000000000E-004  0.000000000000000E+000        
  0.000000000000000E+000  0.000000000000000E+000  0.000000000000000E+000        
  0.000000000000000E+000  0.000000000000000E+000  0.000000000000000E+000        
  0.000000000000000E+000  0.000000000000000E+000                                
   4.62311000000000       3.865000000000000E-003  0.000000000000000E+000        
  0.000000000000000E+000  0.000000000000000E+000  0.000000000000000E+000        
  0.000000000000000E+000  0.000000000000000E+000  0.000000000000000E+000        
  0.000000000000000E+000  0.000000000000000E+000                                
   1.41378000000000       1.517100000000000E-002  0.000000000000000E+000        
  0.000000000000000E+000  0.000000000000000E+000  0.000000000000000E+000        
  0.000000000000000E+000  0.000000000000000E+000  0.000000000000000E+000        
  0.000000000000000E+000  0.000000000000000E+000                                
  0.473721000000000       4.920400000000000E-002  0.000000000000000E+000        
  0.000000000000000E+000  0.000000000000000E+000  0.000000000000000E+000        
  0.000000000000000E+000  0.000000000000000E+000  0.000000000000000E+000        
  0.000000000000000E+000  0.000000000000000E+000                                
  0.176151000000000       0.154661000000000        1.00000000000000             
  0.000000000000000E+000  0.000000000000000E+000  0.000000000000000E+000        
  0.000000000000000E+000  0.000000000000000E+000  0.000000000000000E+000        
  0.000000000000000E+000  0.000000000000000E+000                                
  7.267500000000000E-002  0.360095000000000       0.000000000000000E+000        
   1.00000000000000       0.000000000000000E+000  0.000000000000000E+000        
  0.000000000000000E+000  0.000000000000000E+000  0.000000000000000E+000        
  0.000000000000000E+000  0.000000000000000E+000                                
  3.214100000000000E-002  0.441852000000000       0.000000000000000E+000        
  0.000000000000000E+000   1.00000000000000       0.000000000000000E+000        
  0.000000000000000E+000  0.000000000000000E+000  0.000000000000000E+000        
  0.000000000000000E+000  0.000000000000000E+000                                
  1.455600000000000E-002  0.156000000000000       0.000000000000000E+000        
  0.000000000000000E+000  0.000000000000000E+000   1.00000000000000             
  0.000000000000000E+000  0.000000000000000E+000  0.000000000000000E+000        
  0.000000000000000E+000  0.000000000000000E+000                                
   29.2095000000000       0.000000000000000E+000  0.000000000000000E+000        
  0.000000000000000E+000  0.000000000000000E+000  0.000000000000000E+000        
   1.00000000000000       0.000000000000000E+000  0.000000000000000E+000        
  0.000000000000000E+000  0.000000000000000E+000                                
   11.1763000000000       0.000000000000000E+000  0.000000000000000E+000        
  0.000000000000000E+000  0.000000000000000E+000  0.000000000000000E+000        
  0.000000000000000E+000   1.00000000000000       0.000000000000000E+000        
  0.000000000000000E+000  0.000000000000000E+000                                
   4.27630000000000       0.000000000000000E+000  0.000000000000000E+000        
  0.000000000000000E+000  0.000000000000000E+000  0.000000000000000E+000        
  0.000000000000000E+000  0.000000000000000E+000   1.00000000000000             
  0.000000000000000E+000  0.000000000000000E+000                                
   1.63620000000000       0.000000000000000E+000  0.000000000000000E+000        
  0.000000000000000E+000  0.000000000000000E+000  0.000000000000000E+000        
  0.000000000000000E+000  0.000000000000000E+000  0.000000000000000E+000        
   1.00000000000000       0.000000000000000E+000                                
  6.500000000000000E-003  0.000000000000000E+000  0.000000000000000E+000        
  0.000000000000000E+000  0.000000000000000E+000  0.000000000000000E+000        
  0.000000000000000E+000  0.000000000000000E+000  0.000000000000000E+000        
  0.000000000000000E+000   1.00000000000000                                     
    8    8                                                                      
  0.531000000000000        1.00000000000000       0.000000000000000E+000        
  0.000000000000000E+000  0.000000000000000E+000  0.000000000000000E+000        
  0.000000000000000E+000  0.000000000000000E+000  0.000000000000000E+000        
  0.248100000000000       0.000000000000000E+000   1.00000000000000             
  0.000000000000000E+000  0.000000000000000E+000  0.000000000000000E+000        
  0.000000000000000E+000  0.000000000000000E+000  0.000000000000000E+000        
  0.115900000000000       0.000000000000000E+000  0.000000000000000E+000        
   1.00000000000000       0.000000000000000E+000  0.000000000000000E+000        
  0.000000000000000E+000  0.000000000000000E+000  0.000000000000000E+000        
  5.420000000000000E-002  0.000000000000000E+000  0.000000000000000E+000        
  0.000000000000000E+000   1.00000000000000       0.000000000000000E+000        
  0.000000000000000E+000  0.000000000000000E+000  0.000000000000000E+000        
   19.8455000000000       0.000000000000000E+000  0.000000000000000E+000        
  0.000000000000000E+000  0.000000000000000E+000   1.00000000000000             
  0.000000000000000E+000  0.000000000000000E+000  0.000000000000000E+000        
   7.14920000000000       0.000000000000000E+000  0.000000000000000E+000        
  0.000000000000000E+000  0.000000000000000E+000  0.000000000000000E+000        
   1.00000000000000       0.000000000000000E+000  0.000000000000000E+000        
   2.57540000000000       0.000000000000000E+000  0.000000000000000E+000        
  0.000000000000000E+000  0.000000000000000E+000  0.000000000000000E+000        
  0.000000000000000E+000   1.00000000000000       0.000000000000000E+000        
  2.350000000000000E-002  0.000000000000000E+000  0.000000000000000E+000        
  0.000000000000000E+000  0.000000000000000E+000  0.000000000000000E+000        
  0.000000000000000E+000  0.000000000000000E+000   1.00000000000000             
    6    6                                                                      
  0.292000000000000        1.00000000000000       0.000000000000000E+000        
  0.000000000000000E+000  0.000000000000000E+000  0.000000000000000E+000        
  0.000000000000000E+000                                                        
  0.164100000000000       0.000000000000000E+000   1.00000000000000             
  0.000000000000000E+000  0.000000000000000E+000  0.000000000000000E+000        
  0.000000000000000E+000                                                        
  9.220000000000000E-002  0.000000000000000E+000  0.000000000000000E+000        
   1.00000000000000       0.000000000000000E+000  0.000000000000000E+000        
  0.000000000000000E+000                                                        
   13.2502000000000       0.000000000000000E+000  0.000000000000000E+000        
  0.000000000000000E+000   1.00000000000000       0.000000000000000E+000        
  0.000000000000000E+000                                                        
   4.19910000000000       0.000000000000000E+000  0.000000000000000E+000        
  0.000000000000000E+000  0.000000000000000E+000   1.00000000000000             
  0.000000000000000E+000                                                        
  4.480000000000000E-002  0.000000000000000E+000  0.000000000000000E+000        
  0.000000000000000E+000  0.000000000000000E+000  0.000000000000000E+000        
   1.00000000000000                                                             
    4    4                                                                      
  0.297100000000000        1.00000000000000       0.000000000000000E+000        
  0.000000000000000E+000  0.000000000000000E+000                                
  0.150000000000000       0.000000000000000E+000   1.00000000000000             
  0.000000000000000E+000  0.000000000000000E+000                                
   8.40930000000000       0.000000000000000E+000  0.000000000000000E+000        
   1.00000000000000       0.000000000000000E+000                                
  7.240000000000001E-002  0.000000000000000E+000  0.000000000000000E+000        
  0.000000000000000E+000   1.00000000000000                                     
    2    2                                                                      
  0.294900000000000        1.00000000000000       0.000000000000000E+000        
  0.127400000000000       0.000000000000000E+000   1.00000000000000             
FINISH                                                                          
 
********************************************************************************
 One- and two-electron integrals over symmetry-adapted AOs are calculated.

  Spherical harmonics are used.
  
  Integrals less than  0.10E-13 are neglected.

  Nuclear repulsion energy :    1.1421088489 a.u.
  required memory for a1 array               92880832  words 
  required memory for a2 array               27939203  words 
 @GETMEM-I,  Allocated     937 MB of main memory.
  @MOLECU-I, One electron integrals (CPU/WALL):        0.47/       0.49 seconds.
  @TWOEL-I,    4472336 integrals of symmetry type  I I I I
  @TWOEL-I,   48859780 integrals of symmetry type  I J I J
  @TWOEL-I,   26300521 integrals of symmetry type  I I J J
  @TWOEL-I,  126740245 integrals of symmetry type  I J K L
  @TWOEL-I, Total number of 2-e integrals  206372882.
  @MOLECU-I, Two electron integrals (CPU/WALL):      856.13/     857.48 seconds.
  @CHECKOUT-I, Total execution time (CPU/WALL):      856.84/     858.59 seconds.
--executable xvmol finished with status     0 in      858.84 seconds (walltime).
 --invoking executable--
/home/nike/cfour_v2.00beta/bin/xvmol2ja
 @GETMEM-I,  Allocated   30517 MB of main memory.
  @CHECKOUT-I, Total execution time (CPU/WALL):        0.36/       0.62 seconds.
--executable xvmol2ja finished with status     0 in        1.27 seconds (walltime).
 --invoking executable--
/home/nike/cfour_v2.00beta/bin/xvscf
  There are  362 functions in the AO basis.

  There are 8 irreducible representations.

       Irrep        # of functions
         1                 67
         2                 44
         3                 44
         4                 26
         5                 67
         6                 44
         7                 44
         8                 26


  Parameters for SCF calculation: 
        SCF reference function: ROHF  
  Maximum number of iterations: ****
     Full symmetry point group: DXh 
     Computational point group: D2h 
        Initial density matrix: MOREAD                 
     SCF convergence tolerance: 10**(-10)
  DIIS convergence acceleration:  ON
          Latest start for DIIS:   8
                     DIIS order:   6

     Alpha population by irrep:   2    0    0    0    2    0    0    0
      Beta population by irrep:   1    0    0    0    1    0    0    0


  Memory information:    7928302 words required.
  Fock matrices are constructed from AO integral file.
 @GETMEM-I,  Allocated      60 MB of main memory.
  Initialization and symmetry analysis required      0.003 seconds.

  starting vectors read from OLDMOS 
 total no. of electrons in initial guess :  0.000000000000000E+000
 total no. of electrons in initial guess :  0.000000000000000E+000
  --------------------------------------------------------------------
  Iteration         Total Energy            Largest Density Difference
  --------------------------------------------------------------------
       0           -14.864012799596463              0.0000000000D+00
   current occupation vector 
     2  0  0  0  2  0  0  0
     1  0  0  0  1  0  0  0
       1           -14.864012799596555              0.3898992488D-07
   current occupation vector 
     2  0  0  0  2  0  0  0
     1  0  0  0  1  0  0  0
       2           -14.864012799596598              0.2503216069D-07
   current occupation vector 
     2  0  0  0  2  0  0  0
     1  0  0  0  1  0  0  0
       3           -14.864012799596598              0.9336129240D-09
   current occupation vector 
     2  0  0  0  2  0  0  0
     1  0  0  0  1  0  0  0
       4           -14.864012799596654              0.6200835718D-08
   current occupation vector 
     2  0  0  0  2  0  0  0
     1  0  0  0  1  0  0  0
       5           -14.864012799596484              0.1846773554D-08
   current occupation vector 
     2  0  0  0  2  0  0  0
     1  0  0  0  1  0  0  0

  SCF has converged.

 Density matrix saved to file den.dat
 total alpha spin electron number:   4.00000000000002     
 total  beta spin electron number:   2.00000000000002     
     E(ROHF)=       -14.864012799596555              0.8170258914D-10

  Eigenvector printing suppressed.


       The average multiplicity is    3.0000000
  The expectation value of S**2 is    2.0000000

 @PUTMOS-I, Writing converged MOs to NEWMOS. 
 @PUTMOS-I, Symmetry   1 Full Blocks 16 Partial Blocksize   3
 @PUTMOS-I, Symmetry   2 Full Blocks 11 Partial Blocksize   0
 @PUTMOS-I, Symmetry   3 Full Blocks 11 Partial Blocksize   0
 @PUTMOS-I, Symmetry   4 Full Blocks  6 Partial Blocksize   2
 @PUTMOS-I, Symmetry   5 Full Blocks 16 Partial Blocksize   3
 @PUTMOS-I, Symmetry   6 Full Blocks 11 Partial Blocksize   0
 @PUTMOS-I, Symmetry   7 Full Blocks 11 Partial Blocksize   0
 @PUTMOS-I, Symmetry   8 Full Blocks  6 Partial Blocksize   2
 @PUTMOS-I, NEWMOS already exists and will be deleted. 
  @DMPJOB-I, Rotating orbitals to semicanonical basis.
             *** Eigenvalues correspond to new basis. ***

  @PRJDEN-I, Basis set contains h and/or higher angular momentum functions.
             Analysis of density matrix symmetry not available.
             Check irreps of the molecular orbitals in the full point group
             for presence of an asymmetric solution.

 
  ORBITAL EIGENVALUES (ALPHA)  (1H = 27.2113838 eV)

       MO #        E(hartree)               E(eV)           FULLSYM    COMPSYM
       ----   --------------------   --------------------   -------   ---------
    1   182          -2.4853061204         -67.6286187523    PI         B1u (5)
    2     1          -2.4853059580         -67.6286143312    PI          Ag (1)
    3     2          -0.2276536652          -6.1947712606    SGg+        Ag (1)
    4   183          -0.1706317603          -4.6431263223    SGu+       B1u (5)
  +++++++++++++++++++++++++++++++++++++++++++++++++++++++++++++++++++++++++++++
    5     3           0.0044011736           0.1197620235    SGg+        Ag (1)
    6   112           0.0055424152           0.1508167871    PIu        B3u (3)
    7    68           0.0055424152           0.1508167871    PIu        B2u (2)
    8   184           0.0123426113           0.3358595341    SGu+       B1u (5)
    9   249           0.0172453237           0.4692691229    PIg        B3g (6)
   10   293           0.0172453237           0.4692691229    PIg        B2g (7)
   11     4           0.0178213027           0.4849423091    SGg+        Ag (1)
   12     5           0.0221113121           0.6016793996    SGg+        Ag (1)
   13   113           0.0227066612           0.6178796745    PIu        B3u (3)
   14    69           0.0227066612           0.6178796745    PIu        B2u (2)
   15   185           0.0277609968           0.7554151388    SGu+       B1u (5)
   16   250           0.0395976602           1.0775071311    PIg        B3g (6)
   17   294           0.0395976602           1.0775071311    PIg        B2g (7)
   18   186           0.0459367463           1.2500024362    SGu+       B1u (5)
   19   156           0.0614383714           1.6718231049    DEg        B1g (4)
   20     6           0.0614383714           1.6718231049    DEg         Ag (1)
   21     7           0.0715065925           1.9457933341    SGg+        Ag (1)
   22   114           0.0748860085           2.0377519199    PIu        B3u (3)
   23    70           0.0748860085           2.0377519199    PIu        B2u (2)
   24     8           0.0762127939           2.0738555854    SGg+        Ag (1)
   25   187           0.0788202151           2.1448071252    SGu+       B1u (5)
   26   188           0.0820849021           2.2336437768    DEu        B1u (5)
   27   337           0.0820849021           2.2336437768    DEu         Au (8)
   28    71           0.0827366445           2.2513785905    PIu        B2u (2)
   29   115           0.0827366445           2.2513785905    PIu        B3u (3)
   30   295           0.0878799103           2.3913339683    PIg        B2g (7)
   31   251           0.0878799103           2.3913339683    PIg        B3g (6)
   32   252           0.1010405181           2.7494523204    PIg        B3g (6)
   33   296           0.1010405181           2.7494523204    PIg        B2g (7)
   34     9           0.1077065431           2.9308440854    SGg+        Ag (1)
   35   189           0.1205706035           3.2808929679    SGu+       B1u (5)
   36   190           0.1403760262           3.8198259276    SGu+       B1u (5)
   37    72           0.1559787410           4.2443973880    PHu        B2u (2)
   38   116           0.1559787410           4.2443973880    PHu        B3u (3)
   39   157           0.1701821051           4.6308905799    DEg        B1g (4)
   40    10           0.1701821051           4.6308905799    DEg         Ag (1)
   41   297           0.1866693151           5.0795303792    PHg        B2g (7)
   42   253           0.1866693151           5.0795303792    PHg        B3g (6)
   43   117           0.1888619000           5.1391936511    PIu        B3u (3)
   44    73           0.1888619000           5.1391936511    PIu        B2u (2)
   45    11           0.1916563239           5.2152337899    SGg+        Ag (1)
   46   158           0.1944341939           5.2908234772    DEg        B1g (4)
   47    12           0.1944341939           5.2908234772    DEg         Ag (1)
   48   254           0.2026951387           5.5156152187    PIg        B3g (6)
   49   298           0.2026951387           5.5156152187    PIg        B2g (7)
   50   191           0.2068299190           5.6281283106    DEu        B1u (5)
   51   338           0.2068299190           5.6281283106    DEu         Au (8)
   52    13           0.2112813775           5.7492586568    SGg+        Ag (1)
   53    74           0.2113576926           5.7513352960    PIu        B2u (2)
   54   118           0.2113576926           5.7513352960    PIu        B3u (3)
   55   299           0.2196548191           5.9771115910    PIg        B2g (7)
   56   255           0.2196548191           5.9771115910    PIg        B3g (6)
   57   192           0.2201823927           5.9914675983    SGu+       B1u (5)
   58    75           0.2327708951           6.3340181690    PIu        B2u (2)
   59   119           0.2327708951           6.3340181690    PIu        B3u (3)
   60   339           0.2348421942           6.3903810829    DEu         Au (8)
   61   193           0.2348421942           6.3903810829    DEu        B1u (5)
   62   194           0.2397939822           6.5251260874    SGu+       B1u (5)
   63    14           0.2588782797           7.0444362302    SGg+        Ag (1)
   64   195           0.3049831464           8.2990134546    SGu+       B1u (5)
   65   256           0.3190419815           8.6815738129    PIg        B3g (6)
   66   300           0.3190419815           8.6815738129    PIg        B2g (7)
   67   159           0.3361353241           9.1467073194    GAg        B1g (4)
   68    15           0.3361353241           9.1467073194    GAg         Ag (1)
   69    16           0.3391584037           9.2289694979    SGg+        Ag (1)
   70    76           0.3414033182           9.2900567287    PHu        B2u (2)
   71   120           0.3414033182           9.2900567287    PHu        B3u (3)
   72   340           0.3704603398          10.0807384957    GAu         Au (8)
   73   196           0.3704603398          10.0807384957    GAu        B1u (5)
   74    17           0.3865030320          10.5172823515    DEg         Ag (1)
   75   160           0.3865030320          10.5172823515    DEg        B1g (4)
   76   121           0.4120370552          11.2120984560    PIu        B3u (3)
   77    77           0.4120370552          11.2120984560    PIu        B2u (2)
   78   257           0.4217183931          11.4755410593    PIg        B3g (6)
   79   301           0.4217183931          11.4755410594    PIg        B2g (7)
   80   302           0.4264393779          11.6040055871    PHg        B2g (7)
   81   258           0.4264393779          11.6040055871    PHg        B3g (6)
   82    78           0.4288923010          11.6707530194    PHu        B2u (2)
   83   122           0.4288923010          11.6707530194    PHu        B3u (3)
   84    18           0.4326084573          11.7718747745    SGg+        Ag (1)
   85    19           0.4428256476          12.0498986631    DEg         Ag (1)
   86   161           0.4428256476          12.0498986631    DEg        B1g (4)
   87   197           0.4435374140          12.0692668110    SGu+       B1u (5)
   88   303           0.4521082429          12.3024909243    PHg        B2g (7)
   89   259           0.4521082429          12.3024909243    PHg        B3g (6)
   90   198           0.4593009791          12.4982152300    DEu        B1u (5)
   91   341           0.4593009791          12.4982152300    DEu         Au (8)
   92   123           0.4654649154          12.6659444682    PIu        B3u (3)
   93    79           0.4654649154          12.6659444682    PIu        B2u (2)
   94   199           0.4712362793          12.8229912654    SGu+       B1u (5)
   95    20           0.4781309790          13.0106055856    SGg+        Ag (1)
   96   162           0.4825847568          13.1317990435    DEg        B1g (4)
   97    21           0.4825847568          13.1317990435    DEg         Ag (1)
   98   304           0.4951777036          13.4744705521    PIg        B2g (7)
   99   260           0.4951777036          13.4744705522    PIg        B3g (6)
  100   200           0.4975583282          13.5392506411    DEu        B1u (5)
  101   342           0.4975583282          13.5392506411    DEu         Au (8)
  102   201           0.5027585833          13.6807567790    SGu+       B1u (5)
  103   124           0.5374083659          14.6236253114    PIu        B3u (3)
  104    80           0.5374083659          14.6236253114    PIu        B2u (2)
  105    22           0.5426035818          14.7649943254    SGg+        Ag (1)
  106   343           0.5433856366          14.7862751201    DEu         Au (8)
  107   202           0.5433856366          14.7862751201    DEu        B1u (5)
  108   261           0.5720893851          15.5673438377    PIg        B3g (6)
  109   305           0.5720893851          15.5673438377    PIg        B2g (7)
  110    81           0.5758710351          15.6702477661    PIu        B2u (2)
  111   125           0.5758710351          15.6702477661    PIu        B3u (3)
  112   203           0.6113352105          16.6352770552    SGu+       B1u (5)
  113    23           0.6444726081          17.5369914995    SGg+        Ag (1)
  114   262           0.7206963732          19.6111456277    PIg        B3g (6)
  115   306           0.7206963732          19.6111456277    PIg        B2g (7)
  116   163           0.7356147404          20.0170950452    GAg        B1g (4)
  117    24           0.7356147404          20.0170950452    GAg         Ag (1)
  118    82           0.7527980349          20.4846762660    PHu        B2u (2)
  119   126           0.7527980349          20.4846762660    PHu        B3u (3)
  120    83           0.7633523796          20.7718745914    PHu        B2u (2)
  121   127           0.7633523796          20.7718745914    PHu        B3u (3)
  122   263           0.7836624257          21.3245390503    PHg        B3g (6)
  123   307           0.7836624257          21.3245390503    PHg        B2g (7)
  124    25           0.8090634525          22.0157361397    DEg         Ag (1)
  125   164           0.8090634525          22.0157361397    DEg        B1g (4)
  126   344           0.8354105375          22.7326767818    GAu         Au (8)
  127   204           0.8354105375          22.7326767818    GAu        B1u (5)
  128   128           0.8424490003          22.9242030950    PIu        B3u (3)
  129    84           0.8424490003          22.9242030950    PIu        B2u (2)
  130    26           0.8681869863          23.6245693119    SGg+        Ag (1)
  131   205           0.8691120897          23.6497426556    SGu+       B1u (5)
  132    27           0.8909829006          24.2448776853    GAg         Ag (1)
  133   165           0.8909829006          24.2448776853    GAg        B1g (4)
  134    85           0.8953414880          24.3634808789    PHu        B2u (2)
  135   129           0.8953414880          24.3634808789    PHu        B3u (3)
  136   206           0.9085781413          24.7236685335    GAu        B1u (5)
  137   345           0.9085781413          24.7236685335    GAu         Au (8)
  138    28           0.9125457336          24.8316322109    SGg+        Ag (1)
  139   264           0.9304854544          25.3197968387    PIg        B3g (6)
  140   308           0.9304854544          25.3197968387    PIg        B2g (7)
  141   265           0.9328747898          25.3848139598    PHg        B3g (6)
  142   309           0.9328747898          25.3848139598    PHg        B2g (7)
  143    86           0.9405169228          25.5927669757    PHu        B2u (2)
  144   130           0.9405169228          25.5927669757    PHu        B3u (3)
  145   310           0.9434034879          25.6713144058    PHg        B2g (7)
  146   266           0.9434034879          25.6713144058    PHg        B3g (6)
  147    29           0.9506096757          25.8674047469    DEg         Ag (1)
  148   166           0.9506096757          25.8674047469    DEg        B1g (4)
  149   207           0.9629900925          26.2042930214    DEu        B1u (5)
  150   346           0.9629900925          26.2042930214    DEu         Au (8)
  151   208           0.9673375856          26.3225943246    SGu+       B1u (5)
  152   131           0.9688918821          26.3648888838    PIu        B3u (3)
  153    87           0.9688918821          26.3648888838    PIu        B2u (2)
  154    30           0.9701037650          26.3978658944    DEg         Ag (1)
  155   167           0.9701037650          26.3978658944    DEg        B1g (4)
  156   267           0.9732394351          26.4831918164    PHg        B3g (6)
  157   311           0.9732394351          26.4831918164    PHg        B2g (7)
  158    31           0.9859412575          26.8288259802    SGg+        Ag (1)
  159   347           0.9905793524          26.9550349627    DEu         Au (8)
  160   209           0.9905793524          26.9550349627    DEu        B1u (5)
  161   312           1.0172241511          27.6800768049    PIg        B2g (7)
  162   268           1.0172241511          27.6800768049    PIg        B3g (6)
  163   210           1.0241010717          27.8672073331    SGu+       B1u (5)
  164   269           1.0594477569          28.8290395506    PIg        B3g (6)
  165   313           1.0594477569          28.8290395506    PIg        B2g (7)
  166   211           1.1009704176          29.9589286073    SGu+       B1u (5)
  167    88           1.1060213953          30.0963727002    PIu        B2u (2)
  168   132           1.1060213953          30.0963727002    PIu        B3u (3)
  169   348           1.1078626322          30.1464753046    DEu         Au (8)
  170   212           1.1078626322          30.1464753046    DEu        B1u (5)
  171   168           1.1136004561          30.3026094324    DEg        B1g (4)
  172    32           1.1136004561          30.3026094324    DEg         Ag (1)
  173   349           1.1751311339          31.9769443231    DEu         Au (8)
  174   213           1.1751311339          31.9769443231    DEu        B1u (5)
  175    89           1.1859471652          32.2712635017    PIu        B2u (2)
  176   133           1.1859471652          32.2712635017    PIu        B3u (3)
  177    33           1.2080322496          32.8722292107    SGg+        Ag (1)
  178   214           1.2782074907          34.7817946312    SGu+       B1u (5)
  179   314           1.3507253544          36.7551060546    PIg        B2g (7)
  180   270           1.3507253544          36.7551060547    PIg        B3g (6)
  181    90           1.4379162116          39.1276899335    PIu        B2u (2)
  182   134           1.4379162116          39.1276899336    PIu        B3u (3)
  183    34           1.4499723449          39.4557540047    SGg+        Ag (1)
  184   215           1.5758592201          42.8813100835    SGu+       B1u (5)
  185   315           1.6504291513          44.9104611033    PIg        B2g (7)
  186   271           1.6504291513          44.9104611033    PIg        B3g (6)
  187    35           1.7561716764          47.7878615383    SGg+        Ag (1)
  188   216           1.8318022858          49.8458750794    SGu+       B1u (5)
  189   135           1.9259205695          52.4069638233    PHu        B3u (3)
  190    91           1.9259205695          52.4069638233    PHu        B2u (2)
  191    36           1.9271540413          52.4405282978    DEg         Ag (1)
  192   169           1.9271540413          52.4405282978    DEg        B1g (4)
  193   272           1.9395296506          52.7772857525    PHg        B3g (6)
  194   316           1.9395296506          52.7772857525    PHg        B2g (7)
  195   136           1.9556756159          53.2166398115    PIu        B3u (3)
  196    92           1.9556756159          53.2166398115    PIu        B2u (2)
  197    37           1.9673926368          53.5354761641    SGg+        Ag (1)
  198   217           1.9690669756          53.5810372398    DEu        B1u (5)
  199   350           1.9690669756          53.5810372398    DEu         Au (8)
  200   317           2.0194773225          54.9527725388    PIg        B2g (7)
  201   273           2.0194773225          54.9527725388    PIg        B3g (6)
  202   137           2.0213543026          55.0038477637    PHu        B3u (3)
  203    93           2.0213543026          55.0038477637    PHu        B2u (2)
  204    38           2.0244544147          55.0882061038    GAg         Ag (1)
  205   170           2.0244544147          55.0882061038    GAg        B1g (4)
  206   218           2.0301034836          55.2419250870    SGu+       B1u (5)
  207   351           2.0366033559          55.4187956055    GAu         Au (8)
  208   219           2.0366033559          55.4187956055    GAu        B1u (5)
  209    39           2.0526146477          55.8544850124    DEg         Ag (1)
  210   171           2.0526146477          55.8544850124    DEg        B1g (4)
  211   274           2.0629773260          56.1364678302    PHg        B3g (6)
  212   318           2.0629773260          56.1364678302    PHg        B2g (7)
  213    40           2.0768977435          56.5152616523    GAg         Ag (1)
  214   172           2.0768977435          56.5152616523    GAg        B1g (4)
  215   138           2.0839425663          56.7069610307    PHu        B3u (3)
  216    94           2.0839425663          56.7069610307    PHu        B2u (2)
  217   275           2.0924856494          56.9394301441    PHg        B3g (6)
  218   319           2.0924856494          56.9394301441    PHg        B2g (7)
  219    41           2.0989172938          57.1144440873    SGg+        Ag (1)
  220    95           2.1023742249          57.2085119660    PHu        B2u (2)
  221   139           2.1023742249          57.2085119660    PHu        B3u (3)
  222   220           2.1032725244          57.2329559394    SGu+       B1u (5)
  223   221           2.1132862483          57.5054432233    GAu        B1u (5)
  224   352           2.1132862483          57.5054432233    GAu         Au (8)
  225   320           2.1152473635          57.5588078810    PIg        B2g (7)
  226   276           2.1152473635          57.5588078810    PIg        B3g (6)
  227   353           2.1186713637          57.6519796639    DEu         Au (8)
  228   222           2.1186713637          57.6519796639    DEu        B1u (5)
  229   140           2.1233786693          57.7800719636    PIu        B3u (3)
  230    96           2.1233786693          57.7800719636    PIu        B2u (2)
  231   173           2.1516147789          58.5484155807    DEg        B1g (4)
  232    42           2.1516147789          58.5484155807    DEg         Ag (1)
  233   277           2.1518429956          58.5546256725    PHg        B3g (6)
  234   321           2.1518429956          58.5546256725    PHg        B2g (7)
  235    43           2.1546662457          58.6314502157    SGg+        Ag (1)
  236   141           2.1724886222          59.1164217427    PIu        B3u (3)
  237    97           2.1724886222          59.1164217427    PIu        B2u (2)
  238   223           2.2088805123          60.1066954309    DEu        B1u (5)
  239   354           2.2088805123          60.1066954309    DEu         Au (8)
  240   322           2.2760558994          61.9346306725    PIg        B2g (7)
  241   278           2.2760558994          61.9346306725    PIg        B3g (6)
  242   224           2.4064315557          65.4823326974    SGu+       B1u (5)
  243   174           2.5454240019          69.2645094995    DEg        B1g (4)
  244    44           2.5454240019          69.2645094995    DEg         Ag (1)
  245   355           2.5645330233          69.7844924159    DEu         Au (8)
  246   225           2.5645330233          69.7844924159    DEu        B1u (5)
  247   142           2.5785162269          70.1649947340    PIu        B3u (3)
  248    98           2.5785162269          70.1649947340    PIu        B2u (2)
  249    45           2.7139673422          73.8508070222    SGg+        Ag (1)
  250   279           2.7265998863          74.1945560289    PIg        B3g (6)
  251   323           2.7265998863          74.1945560289    PIg        B2g (7)
  252   226           2.7407106160          74.5785285108    SGu+       B1u (5)
  253    99           4.3085204060         117.2408024634    PIu        B2u (2)
  254   143           4.3085204060         117.2408024634    PIu        B3u (3)
  255    46           4.4388095703         120.7861509204    SGg+        Ag (1)
  256   324           4.4537906967         121.1938080990    PIg        B2g (7)
  257   280           4.4537906967         121.1938080990    PIg        B3g (6)
  258   227           4.6590113799         126.7781468791    SGu+       B1u (5)
  259   228           4.8171411713         131.0810773246    SGu+       B1u (5)
  260    47           4.9390876747         134.3994104357    SGg+        Ag (1)
  261    48           8.6027193442         234.0918979677    DEg         Ag (1)
  262   175           8.6027193442         234.0918979677    DEg        B1g (4)
  263   356           8.6125568988         234.3595914403    DEu         Au (8)
  264   229           8.6125568988         234.3595914403    DEu        B1u (5)
  265   144           8.6200255535         234.5628238708    PIu        B3u (3)
  266   100           8.6200255535         234.5628238708    PIu        B2u (2)
  267    49           8.6811013221         236.2247800511    SGg+        Ag (1)
  268   281           8.6873408505         236.3945662532    PIg        B3g (6)
  269   325           8.6873408505         236.3945662532    PIg        B2g (7)
  270   230           8.7173989992         237.2124900760    SGu+       B1u (5)
  271   101          12.8920515340         350.8105625122    PIu        B2u (2)
  272   145          12.8920515340         350.8105625122    PIu        B3u (3)
  273   282          13.0128342110         354.0972262972    PIg        B3g (6)
  274   326          13.0128342110         354.0972262972    PIg        B2g (7)
  275    50          13.0147674711         354.1498329796    SGg+        Ag (1)
  276   231          13.1995502396         359.1780278163    SGu+       B1u (5)
  277   232          13.6602984952         371.7156254435    SGu+       B1u (5)
  278    51          13.7624069881         374.4941388342    SGg+        Ag (1)
  279   102          16.9075630257         460.0781869467    PHu        B2u (2)
  280   146          16.9075630257         460.0781869467    PHu        B3u (3)
  281    52          16.9080850319         460.0923914572    DEg         Ag (1)
  282   176          16.9080850319         460.0923914572    DEg        B1g (4)
  283   283          16.9085665841         460.1054951578    PHg        B3g (6)
  284   327          16.9085665841         460.1054951578    PHg        B2g (7)
  285    53          16.9100635501         460.1462296745    SGg+        Ag (1)
  286   103          16.9108410491         460.1673864980    PIu        B2u (2)
  287   147          16.9108410491         460.1673864980    PIu        B3u (3)
  288   233          16.9114059012         460.1827569054    DEu        B1u (5)
  289   357          16.9114059012         460.1827569054    DEu         Au (8)
  290   284          16.9164262942         460.3193687472    PIg        B3g (6)
  291   328          16.9164262942         460.3193687472    PIg        B2g (7)
  292   234          16.9225076627         460.4848511982    SGu+       B1u (5)
  293   177          27.6262416961         751.7482662839    DEg        B1g (4)
  294    54          27.6262416961         751.7482662839    DEg         Ag (1)
  295   358          27.6328201228         751.9272743779    DEu         Au (8)
  296   235          27.6328201228         751.9272743779    DEu        B1u (5)
  297   104          27.6378279424         752.0635440813    PIu        B2u (2)
  298   148          27.6378279424         752.0635440813    PIu        B3u (3)
  299    55          27.6768637256         753.1257617593    SGg+        Ag (1)
  300   285          27.6826586182         753.2834488052    PIg        B3g (6)
  301   329          27.6826586182         753.2834488052    PIg        B2g (7)
  302   236          27.7079833095         753.9725687014    SGu+       B1u (5)
  303   237          35.5157321564         966.4322193420    SGu+       B1u (5)
  304    56          35.5841665712         968.2944144681    SGg+        Ag (1)
  305   149          36.9551677195        1005.6012529313    PIu        B3u (3)
  306   105          36.9551677195        1005.6012529313    PIu        B2u (2)
  307   286          37.0582130786        1008.4052597505    PIg        B3g (6)
  308   330          37.0582130786        1008.4052597505    PIg        B2g (7)
  309    57          37.0880781097        1009.2179285746    SGg+        Ag (1)
  310   238          37.2209808822        1012.8343969268    SGu+       B1u (5)
  311   178          44.0235880988        1197.9427528723    GAg        B1g (4)
  312    58          44.0235880988        1197.9427528723    GAg         Ag (1)
  313   239          44.0236043345        1197.9431946670    GAu        B1u (5)
  314   359          44.0236043345        1197.9431946670    GAu         Au (8)
  315   106          44.0236342462        1197.9440086074    PHu        B2u (2)
  316   150          44.0236342462        1197.9440086074    PHu        B3u (3)
  317   287          44.0236906067        1197.9455422539               B3g (6)
  318   331          44.0236906067        1197.9455422539               B2g (7)
  319    59          44.0236932365        1197.9456138133                Ag (1)
  320   179          44.0236932365        1197.9456138133               B1g (4)
  321   107          44.0238012294        1197.9485524506    PIu        B2u (2)
  322   151          44.0238012294        1197.9485524506    PIu        B3u (3)
  323   240          44.0238184214        1197.9490202671    DEu        B1u (5)
  324   360          44.0238184214        1197.9490202671    DEu         Au (8)
  325   241          44.0238615003        1197.9501925049    SGu+       B1u (5)
  326    60          44.0238741145        1197.9505357538    SGg+        Ag (1)
  327   288          44.0239584394        1197.9528303512    PIg        B3g (6)
  328   332          44.0239584394        1197.9528303512    PIg        B2g (7)
  329   152          63.0925175756        1716.8347118933    PHu        B3u (3)
  330   108          63.0925175756        1716.8347118933    PHu        B2u (2)
  331    61          63.0927534520        1716.8411304163    DEg         Ag (1)
  332   180          63.0927534520        1716.8411304163    DEg        B1g (4)
  333   333          63.0929726184        1716.8470942384    PHg        B2g (7)
  334   289          63.0929726184        1716.8470942384    PHg        B3g (6)
  335    62          63.0935684469        1716.8633075569    SGg+        Ag (1)
  336   153          63.0940171135        1716.8755163945    PIu        B3u (3)
  337   109          63.0940171135        1716.8755163945    PIu        B2u (2)
  338   242          63.0942535474        1716.8819500890    DEu        B1u (5)
  339   361          63.0942535474        1716.8819500890    DEu         Au (8)
  340   334          63.0964835643        1716.9426319340    PIg        B2g (7)
  341   290          63.0964835643        1716.9426319340    PIg        B3g (6)
  342   243          63.0991672211        1717.0156579502    SGu+       B1u (5)
  343    63          84.3311694068        2294.7678186829    DEg         Ag (1)
  344   181          84.3311694068        2294.7678186829    DEg        B1g (4)
  345   244          84.3357318900        2294.8919701632    DEu        B1u (5)
  346   362          84.3357318900        2294.8919701632    DEu         Au (8)
  347   154          84.3391939692        2294.9861781307    PIu        B3u (3)
  348   110          84.3391939692        2294.9861781307    PIu        B2u (2)
  349    64          84.3657983838        2295.7101210678    SGg+        Ag (1)
  350   291          84.3703255173        2295.8333106338    PIg        B3g (6)
  351   335          84.3703255173        2295.8333106338    PIg        B2g (7)
  352   245          84.3890916946        2296.3439642880    SGu+       B1u (5)
  353   246          90.8748212953        2472.8296418024    SGu+       B1u (5)
  354    65          90.9530795337        2474.9591567656    SGg+        Ag (1)
  355   155         106.1719250496        2889.0850033886    PIu        B3u (3)
  356   111         106.1719250496        2889.0850033886    PIu        B2u (2)
  357   292         106.2579558241        2891.4260198135    PIg        B3g (6)
  358   336         106.2579558241        2891.4260198135    PIg        B2g (7)
  359    66         106.2735427582        2891.8501618586    SGg+        Ag (1)
  360   247         106.3946994875        2895.1470041241    SGu+       B1u (5)
  361   248         306.7836046850        8348.0064166370    SGu+       B1u (5)
  362    67         307.1377869187        8357.6442053408    SGg+        Ag (1)


 
  ORBITAL EIGENVALUES ( BETA)  (1H = 27.2113838 eV)

       MO #        E(hartree)               E(eV)           FULLSYM    COMPSYM
       ----   --------------------   --------------------   -------   ---------
    1     1          -2.4710465264         -67.2405954656    PI          Ag (1)
    2   182          -2.4710451542         -67.2405581265    PI         B1u (5)
  +++++++++++++++++++++++++++++++++++++++++++++++++++++++++++++++++++++++++++++
    3     2           0.0001375466           0.0037428341    SGg+        Ag (1)
    4   183           0.0097603945           0.2655938420    SGu+       B1u (5)
    5   112           0.0118611813           0.3227591567    PIu        B3u (3)
    6    68           0.0118611813           0.3227591567    PIu        B2u (2)
    7     3           0.0157091365           0.4274673433    SGg+        Ag (1)
    8   249           0.0184116579           0.5010066909    PIg        B3g (6)
    9   293           0.0184116579           0.5010066909    PIg        B2g (7)
   10     4           0.0264896729           0.7208206577    SGg+        Ag (1)
   11   184           0.0269308597           0.7328259610    SGu+       B1u (5)
   12   185           0.0295042167           0.8028505660    SGu+       B1u (5)
   13   113           0.0392435559           1.0678714607    PIu        B3u (3)
   14    69           0.0392435559           1.0678714607    PIu        B2u (2)
   15     5           0.0481431374           1.3100413906    SGg+        Ag (1)
   16   294           0.0529106629           1.4397723559    PIg        B2g (7)
   17   250           0.0529106629           1.4397723559    PIg        B3g (6)
   18     6           0.0640411424           1.7426481063    DEg         Ag (1)
   19   156           0.0640411424           1.7426481063    DEg        B1g (4)
   20   186           0.0661354027           1.7996358275    SGu+       B1u (5)
   21   114           0.0817294704           2.2239719896    PIu        B3u (3)
   22    70           0.0817294704           2.2239719896    PIu        B2u (2)
   23   187           0.0841666925           2.2902921749    DEu        B1u (5)
   24   337           0.0841666925           2.2902921749    DEu         Au (8)
   25   188           0.0852702818           2.3203223666    SGu+       B1u (5)
   26     7           0.0891197762           2.4250724356    SGg+        Ag (1)
   27     8           0.0979586892           2.6655914911    SGg+        Ag (1)
   28   115           0.0996056394           2.7104072832    PIu        B3u (3)
   29    71           0.0996056394           2.7104072832    PIu        B2u (2)
   30   251           0.1001957822           2.7264658873    PIg        B3g (6)
   31   295           0.1001957822           2.7264658873    PIg        B2g (7)
   32   252           0.1141104424           3.1051030464    PIg        B3g (6)
   33   296           0.1141104424           3.1051030464    PIg        B2g (7)
   34     9           0.1182634726           3.2181127451    SGg+        Ag (1)
   35   189           0.1470293266           4.0008714386    SGu+       B1u (5)
   36    72           0.1582329218           4.3057367668    PHu        B2u (2)
   37   116           0.1582329218           4.3057367668    PHu        B3u (3)
   38   190           0.1607035870           4.3729669861    SGu+       B1u (5)
   39   157           0.1746479502           4.7524124071    DEg        B1g (4)
   40    10           0.1746479502           4.7524124071    DEg         Ag (1)
   41   253           0.1888640064           5.1392509680    PHg        B3g (6)
   42   297           0.1888640064           5.1392509680    PHg        B2g (7)
   43   117           0.2037034059           5.5430515643    PIu        B3u (3)
   44    73           0.2037034059           5.5430515643    PIu        B2u (2)
   45   158           0.2042641396           5.5583099042    DEg        B1g (4)
   46    11           0.2042641396           5.5583099042    DEg         Ag (1)
   47    12           0.2116080303           5.7581473329    SGg+        Ag (1)
   48   254           0.2133613175           5.8058567020    PIg        B3g (6)
   49   298           0.2133613175           5.8058567020    PIg        B2g (7)
   50   191           0.2147080460           5.8425030500    DEu        B1u (5)
   51   338           0.2147080460           5.8425030500    DEu         Au (8)
   52    13           0.2187268700           5.9518608125    SGg+        Ag (1)
   53   118           0.2216134115           6.0304076011    PIu        B3u (3)
   54    74           0.2216134115           6.0304076011    PIu        B2u (2)
   55   192           0.2237506124           6.0885637932    SGu+       B1u (5)
   56   255           0.2327717911           6.3340425489    PIg        B3g (6)
   57   299           0.2327717911           6.3340425489    PIg        B2g (7)
   58   193           0.2402777276           6.5382894704    DEu        B1u (5)
   59   339           0.2402777276           6.5382894704    DEu         Au (8)
   60   119           0.2447094104           6.6588816903    PIu        B3u (3)
   61    75           0.2447094104           6.6588816903    PIu        B2u (2)
   62   194           0.2595751161           7.0633981134    SGu+       B1u (5)
   63    14           0.2777614103           7.5582723461    SGg+        Ag (1)
   64   195           0.3248528287           8.8396950060    SGu+       B1u (5)
   65   256           0.3278643199           8.9216418487    PIg        B3g (6)
   66   300           0.3278643199           8.9216418487    PIg        B2g (7)
   67   159           0.3387377026           9.2175216403    GAg        B1g (4)
   68    15           0.3387377026           9.2175216403    GAg         Ag (1)
   69    76           0.3446345982           9.3779843281    PHu        B2u (2)
   70   120           0.3446345982           9.3779843281    PHu        B3u (3)
   71    16           0.3514602057           9.5637185555    SGg+        Ag (1)
   72   196           0.3730711727          10.1517828733    GAu        B1u (5)
   73   340           0.3730711727          10.1517828733    GAu         Au (8)
   74    17           0.3926709059          10.6851187345    DEg         Ag (1)
   75   160           0.3926709059          10.6851187345    DEg        B1g (4)
   76    77           0.4252151184          11.5706917934    PIu        B2u (2)
   77   121           0.4252151184          11.5706917934    PIu        B3u (3)
   78   257           0.4285376831          11.6611033773    PIg        B3g (6)
   79   301           0.4285376831          11.6611033773    PIg        B2g (7)
   80   302           0.4290955039          11.6762824509    PHg        B2g (7)
   81   258           0.4290955039          11.6762824509    PHg        B3g (6)
   82    78           0.4361924976          11.8694014712    PHu        B2u (2)
   83   122           0.4361924976          11.8694014712    PHu        B3u (3)
   84   161           0.4488257136          12.2131687597    DEg        B1g (4)
   85    18           0.4488257136          12.2131687597    DEg         Ag (1)
   86    19           0.4495245756          12.2321857634    SGg+        Ag (1)
   87   197           0.4574016303          12.4465313217    SGu+       B1u (5)
   88   259           0.4594605482          12.5025573279    PHg        B3g (6)
   89   303           0.4594605482          12.5025573279    PHg        B2g (7)
   90   341           0.4658248549          12.6757389186    DEu         Au (8)
   91   198           0.4658248549          12.6757389186    DEu        B1u (5)
   92   123           0.4729463106          12.8695235847    PIu        B3u (3)
   93    79           0.4729463106          12.8695235847    PIu        B2u (2)
   94   199           0.4798593676          13.0576374300    SGu+       B1u (5)
   95    20           0.4875479447          13.2668542546    SGg+        Ag (1)
   96   162           0.4976238532          13.5410336681    DEg        B1g (4)
   97    21           0.4976238532          13.5410336681    DEg         Ag (1)
   98   260           0.5052868225          13.7495536670    PIg        B3g (6)
   99   304           0.5052868225          13.7495536670    PIg        B2g (7)
  100   200           0.5092281735          13.8568032795    SGu+       B1u (5)
  101   201           0.5097337579          13.8705609324    DEu        B1u (5)
  102   342           0.5097337579          13.8705609324    DEu         Au (8)
  103   202           0.5497701127          14.9600055499    DEu        B1u (5)
  104   343           0.5497701127          14.9600055499    DEu         Au (8)
  105   124           0.5498288608          14.9616041674    PIu        B3u (3)
  106    80           0.5498288608          14.9616041674    PIu        B2u (2)
  107    22           0.5567300687          15.1493955821    SGg+        Ag (1)
  108   125           0.5846889574          15.9101956343    PIu        B3u (3)
  109    81           0.5846889574          15.9101956343    PIu        B2u (2)
  110   261           0.5851662082          15.9231822903    PIg        B3g (6)
  111   305           0.5851662082          15.9231822903    PIg        B2g (7)
  112   203           0.6258565954          17.0304240337    SGu+       B1u (5)
  113    23           0.6584171614          17.9164420931    SGg+        Ag (1)
  114   262           0.7282331522          19.8162318152    PIg        B3g (6)
  115   306           0.7282331522          19.8162318152    PIg        B2g (7)
  116   163           0.7397288948          20.1290468801    GAg        B1g (4)
  117    24           0.7397288948          20.1290468801    GAg         Ag (1)
  118    82           0.7578690211          20.6226648188    PHu        B2u (2)
[...]
   125         0.5498289        3       306         0.7282332        7
   126         0.5846890        3       307         0.7874298        7
   127         0.7578690        3       308         0.9355256        7
   128         0.7671217        3       309         0.9398611        7
   129         0.8528569        3       310         0.9490539        7
   130         0.9019641        3       311         0.9805839        7
   131         0.9498784        3       312         1.0261519        7
   132         0.9758905        3       313         1.0694087        7
   133         1.1160509        3       314         1.3591026        7
   134         1.1930687        3       315         1.6564947        7
   135         1.4447074        3       316         1.9466861        7
   136         1.9331559        3       317         2.0266007        7
   137         1.9632818        3       318         2.0699459        7
   138         2.0285385        3       319         2.0984894        7
   139         2.0899747        3       320         2.1223176        7
   140         2.1086692        3       321         2.1580210        7
   141         2.1303023        3       322         2.2823262        7
   142         2.1789680        3       323         2.7310687        7
   143         2.5832952        3       324         4.4582633        7
   144         4.3131523        3       325         8.6885018        7
   145         8.6211840        3       326        13.0168751        7
   146        12.8961515        3       327        16.9088696        7
   147        16.9078659        3       328        16.9167522        7
   148        16.9111659        3       329        27.6846474        7
   149        27.6398214        3       330        37.0616778        7
   150        36.9586511        3       331        44.0242282        7
   151        44.0241718        3       332        44.0244990        7
   152        44.0243417        3       333        63.0943804        7
   153        63.0939254        3       334        63.0978945        7
   154        63.0954282        3       335        84.3724639        7
   155        84.3413337        3       336       106.2605743        7
   156       106.1745485        3       337         0.0841667        8
   157         0.0640411        4       338         0.2147080        8
   158         0.1746480        4       339         0.2402777        8
   159         0.2042641        4       340         0.3730712        8
   160         0.3387377        4       341         0.4658249        8
   161         0.3926709        4       342         0.5097338        8
   162         0.4488257        4       343         0.5497701        8
   163         0.4976239        4       344         0.8393435        8
   164         0.7397289        4       345         0.9151277        8
   165         0.8168665        4       346         0.9704326        8
   166         0.8976062        4       347         0.9986088        8
   167         0.9577728        4       348         1.1160674        8
   168         0.9777707        4       349         1.1824355        8
   169         1.1242794        4       350         1.9762934        8
   170         1.9346238        4       351         2.0435103        8
   171         2.0314379        4       352         2.1193856        8
   172         2.0598999        4       353         2.1255775        8
   173         2.0830970        4       354         2.2151313        8
   174         2.1578865        4       355         2.5691102        8
   175         2.5500466        4       356         8.6136705        8
   176         8.6038337        4       357        16.9117223        8
   177        16.9084009        4       358        27.6348045        8
   178        27.6282269        4       359        44.0241395        8
   179        44.0241232        4       360        44.0243578        8
   180        44.0242326        4       361        63.0956633        8
   181        63.0941633        4       362        84.3378698        8
------------------------------------------------------------------------
  @CHECKOUT-I, Total execution time (CPU/WALL):      911.86/    1048.94 seconds.
--executable xvtran finished with status     0 in     1049.29 seconds (walltime).
 --invoking executable--
/home/nike/cfour_v2.00beta/bin/xintprc
 @GETMEM-I,  Allocated   30517 MB of main memory.
  @GMOIAA-I, Processing MO integrals for spin case AA.
  @GMOIAA-I, Generation of integral list completed.
                      TYPE                NUMBER
                      ----               --------
                      PPPP             259431668
                      PPPH              11754548
                      PPHH                141084
                      PHPH                 88804
                      PHHH                  2600
                      HHHH                    31

                     TOTAL             271418735
  @GMOIAA-I, Processing MO integrals for spin case BB.
  @GMOIAA-I, Generation of integral list completed.
                      TYPE                NUMBER
                      ----               --------
                      PPPP             265371467
                      PPPH               5983824
                      PPHH                 35976
                      PHPH                 27072
                      PHHH                   396
                      HHHH                     4

                     TOTAL             271418739
  @GMOIAB-I, Processing MO integrals for spin case AB.
                      TYPE                NUMBER
                      ----               --------
                      PPPP             524703033
                      PPPH1H            11895695
                      PPPH2H             5912723
                      PPHH                141408
                      PHPH1P               26677
                      PHPH2P               90120
                      PHHH1P                 780
                      PHHH2P                1320
                      HHHH                    16

                     TOTAL             542771772
            ----------------------------------------------
                     Projected spin multiplicities: 
            ----------------------------------------------
             <0|S^2|0>                  =    2.0000000000.
             <0|S^2 T2|0>               =    0.0000000000.
             Projected <0|S^2 exp(T)|0> =    2.0000000000.
             Approximate spin mult.     =    3.0000000000.
            ----------------------------------------------
   Largest T2 amplitudes for spin case AA:
   i   j   a   b             i   j   a   b             i   j   a   b
-----------------------------------------------------------------------------
[  4   2 189   5] 0.01410 [  4   2 186   5] 0.01081 [  4   2 189   6]-0.01028
[  4   2 189   9] 0.00839 [  4   2 250  70] 0.00822 [  4   2 294 114] 0.00822
[  4   2 186   6]-0.00766 [  4   2 294 115] 0.00762 [  4   2 250  71] 0.00762
[  4   2 189  13]-0.00737 [  4   2 189   7]-0.00676 [  4   2 250  72]-0.00665
[  4   2 294 116]-0.00665 [  4   2 187   5]-0.00630 [  4   2 251  70] 0.00593
-----------------------------------------------------------------------------
   Norm of T2AA vector (    52280 symmetry allowed elements):  0.0493385075.
-----------------------------------------------------------------------------
   Largest T2 amplitudes for spin case BB:
   i   j   a   b             i   j   a   b             i   j   a   b
-----------------------------------------------------------------------------
[  2   1 205  23] 0.00001 [  2   1 205  35]-0.00001 [  2   1 205  24]-0.00001
[  2   1 216  35] 0.00001 [  2   1 315 135]-0.00001 [  2   1 271  91]-0.00001
[  2   1 194  23] 0.00001 [  2   1 216  23]-0.00001 [  2   1 194  35]-0.00001
[  2   1 205  36] 0.00001 [  2   1 216  24] 0.00001 [  2   1 194  24]-0.00001
[  2   1 216  36]-0.00001 [  2   1 205  34]-0.00001 [  2   1 194  36] 0.00001
-----------------------------------------------------------------------------
   Norm of T2BB vector (     8904 symmetry allowed elements):  0.0001005105.
-----------------------------------------------------------------------------
   Largest T2 amplitudes for spin case AB:
       _       _                 _       _                 _       _
   i   j   a   b             i   j   a   b             i   j   a   b
-----------------------------------------------------------------------------
[  3   2 228 228]-0.00564 [  1   1 228 228]-0.00564 [  1   1  49  48]-0.00536
[  3   2  49  48]-0.00536 [  3   1 228  48]-0.00505 [  1   2 228  48]-0.00505
[  3   1  49 228]-0.00505 [  1   2  49 228]-0.00505 [  1   1 145 144]-0.00487
[  1   1 101 100]-0.00487 [  3   2 145 144]-0.00487 [  3   2 101 100]-0.00487
[  1   1  48  47]-0.00486 [  3   2  48  47]-0.00486 [  1   2 101 280]-0.00476
-----------------------------------------------------------------------------
   Norm of T2AB vector (   141408 symmetry allowed elements):  0.0741997719.
-----------------------------------------------------------------------------
  @CHECKOUT-I, Total execution time (CPU/WALL):      367.52/     916.95 seconds.
--executable xintprc finished with status     0 in      917.86 seconds (walltime).
  calling xvcc 
 --invoking executable--
/home/nike/cfour_v2.00beta/bin/xvcc
 @GETMEM-I,  Allocated   30517 MB of main memory.
   CCSDT   energy will be calculated.
   The reference state is a ROHF wave function.
   The reference state is a general non-HF wave function.
   The total correlation energy is -0.083106360306 a.u.
  transposing abij 
   The total correlation energy is -0.090123719979 a.u.
  Convergence information after     1 iterations: 
  Largest element of residual vector :  0.77078567E-02.
  Largest element of DIIS residual   :  0.77078567E-02.
  transposing abij 
   The total correlation energy is -0.091517443474 a.u.
  Convergence information after     2 iterations: 
  Largest element of residual vector : -0.52548184E-02.
  Largest element of DIIS residual   : -0.47405574E-02.
  transposing abij 
   The total correlation energy is -0.092278961920 a.u.
  Convergence information after     3 iterations: 
  Largest element of residual vector : -0.28380014E-02.
  Largest element of DIIS residual   :  0.11229848E-02.
  transposing abij 
   The total correlation energy is -0.092330691539 a.u.
  Convergence information after     4 iterations: 
  Largest element of residual vector :  0.69896874E-03.
  Largest element of DIIS residual   : -0.19653289E-03.
  transposing abij 
   The total correlation energy is -0.092367126403 a.u.
  Convergence information after     5 iterations: 
  Largest element of residual vector : -0.11172026E-03.
  Largest element of DIIS residual   :  0.70963553E-04.
  transposing abij 
   The total correlation energy is -0.092371379796 a.u.
  Convergence information after     6 iterations: 
  Largest element of residual vector :  0.41896223E-04.
  Largest element of DIIS residual   :  0.35640963E-04.
  transposing abij 
   The total correlation energy is -0.092371438447 a.u.
  Convergence information after     7 iterations: 
  Largest element of residual vector :  0.22471803E-04.
  Largest element of DIIS residual   :  0.14298812E-04.
  transposing abij 
   The total correlation energy is -0.092371440740 a.u.
  Convergence information after     8 iterations: 
  Largest element of residual vector :  0.79794368E-05.
  Largest element of DIIS residual   :  0.35887774E-05.
  transposing abij 
   The total correlation energy is -0.092371471852 a.u.
  Convergence information after     9 iterations: 
  Largest element of residual vector :  0.22539682E-05.
  Largest element of DIIS residual   :  0.31456922E-05.
  transposing abij 
   The total correlation energy is -0.092371481990 a.u.
  Convergence information after    10 iterations: 
  Largest element of residual vector :  0.19282373E-05.
  Largest element of DIIS residual   :  0.18604217E-05.
  transposing abij 
   The total correlation energy is -0.092371461672 a.u.
  Convergence information after    11 iterations: 
  Largest element of residual vector :  0.11530719E-05.
  Largest element of DIIS residual   : -0.51739509E-06.
  transposing abij 
   The total correlation energy is -0.092371438817 a.u.
  Convergence information after    12 iterations: 
  Largest element of residual vector : -0.35737387E-06.
  Largest element of DIIS residual   : -0.23718055E-06.
  transposing abij 
   The total correlation energy is -0.092371428983 a.u.
  Convergence information after    13 iterations: 
  Largest element of residual vector : -0.15790526E-06.
  Largest element of DIIS residual   : -0.70866025E-07.
  transposing abij 
   The total correlation energy is -0.092371423176 a.u.
  Convergence information after    14 iterations: 
  Largest element of residual vector : -0.41677533E-07.
  Largest element of DIIS residual   : -0.51644850E-07.
  Amplitude equations converged in    14iterations.
   The total correlation energy is -0.092371422067 a.u.
   The CC iterations have converged.

            ----------------------------------------------
                     Projected spin multiplicities: 
            ----------------------------------------------
             <0|S^2|0>                  =    2.0000000000.
             <0|S^2 (T2+T1**2) |0>      =    0.0000000000.
             <0|S^2 T1|0>               =    0.0000000000.
             Projected <0|S^2 exp(T)|0> =    2.0000000000.
             Approximate spin mult.     =    3.0000000000.
            ----------------------------------------------
   Largest T1 amplitudes for spin case AA:
   i       a                 i       a                 i       a    
-----------------------------------------------------------------------------
[  2       5    ]-0.02523 [  2       6    ] 0.01647 [  2       7    ] 0.01076
[  2       9    ]-0.00873 [  2      10    ]-0.00630 [  2      13    ] 0.00433
[  2      16    ]-0.00365 [  4     195    ]-0.00336 [  2      25    ] 0.00245
[  2      18    ] 0.00206 [  4     186    ]-0.00162 [  4     197    ]-0.00162
[  4     184    ] 0.00161 [  4     189    ] 0.00140 [  4     214    ] 0.00132
-----------------------------------------------------------------------------
   Norm of T1AA vector (      260 symmetry allowed elements):  0.0349860619.
-----------------------------------------------------------------------------
   Largest T2 amplitudes for spin case AA:
   i   j   a   b             i   j   a   b             i   j   a   b
-----------------------------------------------------------------------------
[  4   2 189   5] 0.03437 [  4   2 186   5] 0.02636 [  4   2 250  70] 0.02496
[  4   2 294 114] 0.02496 [  4   2 189   6]-0.02485 [  4   2 294 115] 0.02271
[  4   2 250  71] 0.02271 [  4   2 189   9] 0.01876 [  4   2 186   6]-0.01873
[  4   2 251  70] 0.01848 [  4   2 295 114] 0.01848 [  4   2 187   5]-0.01800
[  4   2 250  72]-0.01752 [  4   2 294 116]-0.01752 [  4   2 251  71] 0.01691
-----------------------------------------------------------------------------
   Norm of T2AA vector (    52280 symmetry allowed elements):  0.1169864606.
-----------------------------------------------------------------------------
   Largest T1 amplitudes for spin case BB:
   i       a                 i       a                 i       a    
-----------------------------------------------------------------------------
[  1      35    ] 0.00112 [  2     215    ] 0.00107 [  2     195    ]-0.00097
[  1      15    ] 0.00086 [  2     214    ] 0.00083 [  1      24    ]-0.00078
[  2     189    ] 0.00076 [  1      36    ] 0.00074 [  1      20    ]-0.00069
[  2     197    ]-0.00065 [  2     210    ] 0.00060 [  1      23    ]-0.00054
[  1      10    ]-0.00052 [  1      17    ]-0.00050 [  2     203    ]-0.00045
-----------------------------------------------------------------------------
   Norm of T1BB vector (      132 symmetry allowed elements):  0.0032984753.
-----------------------------------------------------------------------------
   Largest T2 amplitudes for spin case BB:
   i   j   a   b             i   j   a   b             i   j   a   b
-----------------------------------------------------------------------------
[  2   1 205  23] 0.00001 [  2   1 205  35]-0.00001 [  2   1 205  24]-0.00001
[  2   1 194  23] 0.00001 [  2   1 216  23]-0.00001 [  2   1 216  35] 0.00001
[  2   1 194  35]-0.00001 [  2   1 205  36] 0.00001 [  2   1 194  24]-0.00001
[  2   1 216  24] 0.00001 [  2   1 271  91]-0.00001 [  2   1 315 135]-0.00001
[  2   1 216  36]-0.00001 [  2   1 194  36] 0.00001 [  2   1 205  13]-0.00001
-----------------------------------------------------------------------------
   Norm of T2BB vector (     8904 symmetry allowed elements):  0.0001154510.
-----------------------------------------------------------------------------
   Largest T2 amplitudes for spin case AB:
       _       _                 _       _                 _       _
   i   j   a   b             i   j   a   b             i   j   a   b
-----------------------------------------------------------------------------
[  3   2 228 228]-0.00641 [  1   1 228 228]-0.00641 [  1   1  49  48]-0.00607
[  3   2  49  48]-0.00607 [  3   1 228  48]-0.00574 [  3   1  49 228]-0.00574
[  1   2 228  48]-0.00574 [  1   2  49 228]-0.00574 [  1   1  48  47]-0.00544
[  1   1 145 144]-0.00544 [  1   1 101 100]-0.00544 [  3   2 145 144]-0.00544
[  3   2 101 100]-0.00544 [  3   2  48  47]-0.00544 [  1   2 145 324]-0.00531
-----------------------------------------------------------------------------
   Norm of T2AB vector (   141408 symmetry allowed elements):  0.0844539568.
-----------------------------------------------------------------------------
       Summary of iterative solution of CC equations 
      -----------------------------------------------------------
                       Correlation           Total
       Iteration         Energy              Energy
      -----------------------------------------------------------
            0        -0.083106360306     -14.947119159903  DIIS 
            1        -0.090123719979     -14.954136519575  DIIS 
            2        -0.091517443474     -14.955530243070  DIIS 
            3        -0.092278961920     -14.956291761517  DIIS 
            4        -0.092330691539     -14.956343491136  DIIS 
            5        -0.092367126403     -14.956379926000  DIIS 
            6        -0.092371379796     -14.956384179392  DIIS 
            7        -0.092371438447     -14.956384238044  DIIS 
            8        -0.092371440740     -14.956384240337  DIIS 
            9        -0.092371471852     -14.956384271449  DIIS 
           10        -0.092371481990     -14.956384281587  DIIS 
           11        -0.092371461672     -14.956384261268  DIIS 
           12        -0.092371438817     -14.956384238413  DIIS 
           13        -0.092371428983     -14.956384228579  DIIS 
           14        -0.092371422067     -14.956384221664  DIIS 
      -----------------------------------------------------------
      A miracle has come to pass. The CC iterations have converged.
      The reference energy is       -14.86401279959655 a.u.
      The correlation energy is      -0.09237142206709 a.u.
      The total energy is           -14.95638422166364 a.u.
  @CHECKOUT-I, Total execution time (CPU/WALL):   118162.11/  139530.87 seconds.
--executable xvcc finished with status     0 in   139531.54 seconds (walltime).
  The final electronic energy is       -14.956384221663642 a.u. 
  This computation required                       142391.60 seconds (walltime).
--- SharcNET Job Epilogue ---
Job completed successfully.
               jobid: 1489658
               resid: 2970926
         exit status: 0
      allocated time: 142393
           user time: 110955
         system time: 9369.18
peak rss=31603822592; peak vsz=31604420608 (bytes)
atime=142393; utime=110955; stime=9369.18; exit=0
