 --invoking executable--
/home/nike/cfour_v2.00beta/cfour_v2.00beta/bin/xjoda


   *************************************************************************
         <<<     CCCCCC     CCCCCC   |||     CCCCCC     CCCCCC   >>>
       <<<      CCC        CCC       |||    CCC        CCC         >>>
      <<<      CCC        CCC        |||   CCC        CCC            >>>
    <<<        CCC        CCC        |||   CCC        CCC              >>>
      <<<      CCC        CCC        |||   CCC        CCC            >>>
       <<<      CCC        CCC       |||    CCC        CCC         >>>
         <<<     CCCCCC     CCCCCC   |||     CCCCCC     CCCCCC   >>>
   *************************************************************************

     ****************************************************************
     * CFOUR Coupled-Cluster techniques for Computational Chemistry *
     ****************************************************************
 

   Department of Chemistry                Institut fuer Physikalische Chemie
   University of Texas at Austin          Universitaet Mainz
   Austin, TX  78712, USA                 D-55099 Mainz, Germany
 
                       Version 2.00beta
 
                     blg8332.int.ets1.calculquebec.ca                  
                     Mo 17. Feb 22:20:49 EST 2020                      
                     integer*8 version is running
 
********************************************************************************
*                          Input from ZMAT file                                *
********************************************************************************
TITLE                                                                           
N                                                                               
N 1 R                                                                           
                                                                                
R=2.07431268275                                                                 
                                                                                
*ACES2(CALC=CCSD(T)                                                             
UNITS=BOHR                                                                      
#GEOM=1.097679x10/5.29177210903_Leroy2006                                       
#COORD=CARTESIAN                                                                
COORD=INTERNAL                                                                  
PRINT=4                                                                         
JODA_PRINT=4                                                                    
INPUT_MRCC=OFF                                                                  
#CC_PROG=MRCC                                                                   
FROZEN_CORE=ON                                                                  
#DROPMO=1>5                                                                     
CONTRACTION=GENERAL                                                             
#CONTRACTION=SEGMENTED                                                          
RELATIVISTIC=OFF                                                                
#EXCITE=EOMEE                                                                   
#ESTATE_CONV=5                                                                  
#ESTATE_SYM=2/2/2/2/2/2/2/2                                                     
XFORM_TOL=18                                                                    
SAVE_INTS=ON                                                                    
SCF_EXPORDER=6                                                                  
SCF_EXPSTART=5                                                                  
#SCF_DAMPING=1000                                                               
SCF_EXTRAPOLATION=ON                                                            
SCF_CONV=13                                                                     
SCF_MAXCYC=9999                                                                 
CC_CONV=8                                                                       
CC_MAXCYC=999                                                                   
T3_EXTRAPOL=ON                                                                  
REFERENCE=RHF                                                                   
CHARGE=+0                                                                       
MULT=1                                                                          
ABCDTYPE=STANDARD                                                               
#OCCUPATION=3-2-2-0-1-0-0-0/3-1-1-0-1-0-0-0                                     
MEM=12                                                                          
MEM_UNIT=GB                                                                     
BASIS=SPECIAL)                                                                  
                                                                                
N:def2-TZVPP                                                                    
N:def2-TZVPP                                                                    
                                                                                
********************************************************************************
  @GTFLGS-W, Keyword #GEOM not known and is ignored.
  @GTFLGS-W, Keyword #COORD not known and is ignored.
  @GTFLGS-W, Keyword #CC_PROG not known and is ignored.
  @GTFLGS-W, Keyword #DROPMO not known and is ignored.
  @GTFLGS-W, Keyword #CONTRACTION not known and is ignored.
  @GTFLGS-W, Keyword #EXCITE not known and is ignored.
  @GTFLGS-W, Keyword #ESTATE_CONV not known and is ignored.
  @GTFLGS-W, Keyword #ESTATE_SYM not known and is ignored.
  @GTFLGS-W, Keyword #SCF_DAMPING not known and is ignored.
  @GTFLGS-W, Keyword #OCCUPATION not known and is ignored.
    -------------------------------------------------------------------
                    CFOUR Control Parameters 
    -------------------------------------------------------------------
        External           Internal           Value            Units
          Name               Name
    -------------------------------------------------------------------
       ABCDTYPE             IABCDT         STANDARD     [  0]   ***   
       ANHARMONIC           IANHAR         OFF          [  0]   ***   
       ANH_ALGORIT          IANALG         STANDARD     [  0]   ***   
       ANH_DERIVAT          IANDER         SECOND       [  1]   ***   
       ANH_STEPSIZ          ICUBST             50000          x 10-6  
       ANH_SYMMETR          IANHSM         ABELIAN      [  0]   ***   
       AO_LADDERS           IAOLAD         SINGLEPASS   [  1]   ***   
       BASIS                IBASIS         SPECIAL      [  0]   ***   
       BREIT                IBREIT         OFF          [  0]   ***   
       BRUCK_CONV           IBRTOL          10D-  4             ***   
       BRUECKNER            IBRKNR             OFF      [  0]   ***   
       BUFFERSIZE           IBUFFS            600               ***   
       CACHE_RECS           ICHREC             10               ***   
       CALCLEVEL            ICLLVL           CCSD(T)    [ 22]   ***   
       CCORBOPT             ICCORB             OFF      [  0] x 0.01  
       CC_CONV              ICCCNV          10D-  8             ***   
       CC_EXPORDER          ICCEOR              5               ***   
       CC_EXTRAPOL          ICCEXT             DIIS     [  1]   ***   
       CC_MAXCYC            ICCCYC            999              cycles 
       CC_PROGRAM           ICCPRO         VCC          [  0]   ***   
       CHARGE               ICHRGE              0               ***   
       CHOLESKY             ICHOLE         OFF          [  0]   ***   
       CIS_CONV             ICISTL              5               ***   
       COMM_SIZE            IPSIZE            ***               ***   
       CONSTANT             ICONST         OLD          [  1]   ***   
       CONTINUUM            ICONTU         NONE         [  0]   ***   
       CONTRACTION          ICNTYP          GENERAL     [  1]   ***   
       COORDINATES          ICOORD         INTERNAL     [  0]   ***   
       CPHF_CONVER          ICPHFT          10D- 16             ***   
       CPHF_MAXCYC          ICPHFC             64              cycles 
       CUBIC                ICUBIC         OFF          [  0]   ***   
       CURVILINEAR          ICURVY            OFF       [  0]   ***   
       DBOC                 IDBOC          OFF          [  0]   ***   
       DCT                  IDCT           OFF          [  0]   ***   
       DERIV_LEV            IDRLVL            ZERO      [  0]   ***   
       DIAG_MRCC            IEOMST          10D-  0             ***   
       DIFF_TYPE            IDIFTY         RELAXED      [  0]   ***   
       DIRECT               IDIRCT         OFF          [  0]   ***   
       DROPMO               IDRPMO      NONE         
       ECP                  IECP           OFF          [  0]   ***   
       EIGENVECTOR          IVEC                1               ***   
       EL_ANHARM            IELANH         OFF          [  0]   ***   
       EOMFOLLOW            IEOMSR         ENERGY       [  0]   ***   
       EOM_MRCC             IMRCCE         NEW          [  1]   ***   
       EOM_NONIT            EOMNON         OFF          [  0]   ***   
       EOM_NSING            IEOMSI          10D-  0             ***   
       EOM_NSTATES          IMRCCD         DAVIDSON     [  0]   ***   
       EOM_NTRIP            IEOMTR          10D-  0             ***   
       EOM_ORDER            IEXORD         ENERGY       [  0]   ***   
       ESTATE_CONV          IEXTOL          10D-  5             ***   
       ESTATE_DIAG          IEXDIG         ITERATIVE    [  0]   ***   
       ESTATE_LOCK          IESLOC         ON           [  1]   ***   
       ESTATE_MAXC          IEXMXC             20               ***   
       ESTATE_PROP          IEXPRP         OFF          [  0]   ***   
       EVAL_HESS            IRECAL              0            # of cyc.
       EXCITATION           IEXCIT              0               ***   
       EXCITE               IEXCIT         NONE         [  0]   ***   
       FCGRADNEW            IFCGNW         OFF          [  0]   ***   
       FC_FIELD             IFINFC              0             x 10-6  
       FD_CALTYPE           IFDCAL         GRADONLY     [  0]   ***   
       FD_PROJECT           IFDPRJ         OFF          [  1]   ***   
       FD_STEPSIZE          IDISFD              0            10-4 bohr
       FD_USEGROUP          IFDGRP         FULL         [  0]   ***   
       FILE_RECSIZ          IFLREC              4096           words  
       FINITE_PERT          IFIPER              0             x 10-6  
       FIXGEOM              IFIXGM         OFF          [  0]   ***   
       FOCK                 IFOCK          AO           [  1]   ***   
       FREQ_ALGORI          IVIALG         STANDARD     [  0]   ***   
       FROZEN_CORE          IFROCO         ON           [  1]   ***   
       FROZEN_VIRT          IFROVI         OFF          [  0]   ***   
       GAMMA_ABCD           IGABCD         STORE        [  0]   ***   
       GAMMA_ABCI           IGABCI         STORE        [  0]   ***   
       GENBAS_1             IGNBS1              0               ***   
       GENBAS_2             IGNBS2              0               ***   
       GENBAS_3             IGNBS3              0               ***   
       GENBAS_4             IGNBS4              0               ***   
       GEO_CONV             ICONTL              5              H/bohr 
       GEO_MAXCYC           IOPTCY             50               ***   
       GEO_MAXSTEP          IMXSTP            300            millibohr
       GEO_METHOD           INR            SINGLE_POINT [  5]   ***   
       GIAO                 IGIAO          OFF          [  1]   ***   
       GIMIC                IGIMIC         OFF          [  0]   ***   
       GRID                 IGRID          OFF          [  0]   ***   
       GRID_ALGO            IGALGO         SERIAL       [  0]   ***   
       GUESS                IGUESS            MOREAD    [  0]   ***   
       HBAR                 IHBAR              OFF      [  0]   ***   
       HESS_TYPE            IHESTP         SCF          [  0]   ***   
       HF2_FILE             IHF2Fl         USE          [  1]   ***   
       HFSTABILITY          ISTABL         OFF          [  0]   ***   
       INCORE               INCORE             OFF      [  0]   ***   
       INPUT_MRCC           IMRCC          OFF          [  0]   ***   
       INTEGRALS            INTTYP             VMOL     [  1]   ***   
       JODA_PRINT           IJPRNT              4               ***   
       LINDEP_TOL           ILINDP              8               ***   
       LINEQ_CONV           IZTACN          10D-  7           cycles  
       LINEQ_EXPOR          ILMAXD              5               ***   
       LINEQ_MAXCY          ILMAXC             50               ***   
       LINEQ_TYPE           ILTYPE         DIIS         [  1]   ***   
       LOCK_ORBOCC          ILOCOC             OFF      [  0]   ***   
       MEMORY_SIZE          IMEMSZ         *********           words  
       MEM_UNIT             IMEMU          GB           [  3]   ***   
       MRCC                 IMRCCC         OFF          [  0]   ***   
       MULTIPLICTY          IMULTP              1               ***   
       NEGEVAL              IDIE             ABORT      [  0]   ***   
       NEWNORM              INEWNO         OFF          [  0]   ***   
       NON-HF               INONHF             OFF      [  0]   ***   
       NTOP_TAMP            ITOPT2             15               ***   
       NUC_MODEL            INUCMO         POINT        [  0]   ***   
       OCCUPATION           IOCCU   ESTIMATED BY SCF 
       OPEN-SHELL           IOPEN          SPIN-ORBITAL [  0]   ***   
       ORBITALS             IORBTP           STANDARD   [  0]   ***   
       PARALLEL             IPARAL         ON           [  1]   ***   
       PARA_INT             IPINTS         ON           [  1]   ***   
       PARA_PRINT           IPPRIN              0               ***   
       PERT_ORB             IPTORB         STANDARD     [  0]   ***   
       POINTS               IGRDFD              0               ***   
       PRINT                IPRNT               4               ***   
       PROPS                IPROPS             OFF      [  0]   ***   
       PROP_INTEGR          IINTYP         INTERNAL     [  0]   ***   
       PSI                  IPSI           OFF          [  0]   ***   
       QUARTIC              IQUART         OFF          [  0]   ***   
       RAMAN_INT            IRAMIN         OFF          [  0]   ***   
       RAMAN_ORB            IRAMRE         UNRELAXED    [  0]   ***   
       RDO                  IRDOFM             OFF      [  0]   ***   
       REFERENCE            IREFNC             RHF      [  0]   ***   
       RELATIVIST           IRELAT         OFF          [  0]   ***   
       RELAX_DENS           IRDENS             OFF      [  0]   ***   
       RESET_FLAGS          IRESET             OFF      [  0]   ***   
       RESTART_CC           ICCRES         OFF          [  0]   ***   
       ROT_EVEC             ROTVEC              0               ***   
       SAVE_INTS            ISVINT              ON      [  1]   ***   
       SCALE_ON             ISTCRT              0               ***   
       SCF_CONV             ISCFCV          10D- 13             ***   
       SCF_DAMPING          IDAMP               0             x 10-3  
       SCF_EXPORDE          IRPPOR              6               ***   
       SCF_EXPSTAR          IRPPLS              5               ***   
       SCF_EXTRAPO          IRPP                ON      [  1]   ***   
       SCF_MAXCYC           ISCFCY            ***              cycles 
       SCF_NOSTOP           ISCFST         OFF          [  0]   ***   
       SCF_PRINT            ISCFPR              0               ***   
       SD_FIELD             IFINSD              0             x 10-6  
       SEQUENCE             ISEQUE         OFF          [  0]   ***   
       SOPERT               IPERSO         OFF          [  0]   ***   
       SPHERICAL            IDFGHI             ON       [  1]   ***   
       SPINORBIT            ISOCAL         OFF          [  0]   ***   
       SPINROTATIO          ISRCON         OFF          [  0]   ***   
       SPIN_FLIP            ISPFLP         OFF          [  0]   ***   
       SPIN_ORBIT           ISPORB         OFF          [  0]   ***   
       SPIN_SCAL            ISCSMP         OFF          [  0]   ***   
       SUBGROUP             ISUBGP         DEFAULT      [  0]   ***   
       SUBGRPAXIS           ISBXYZ         X            [  0]   ***   
       SYMMETRY             ISYM             ON         [  0]   ***   
       SYM_CHECK            ISYMCK         OVERRIDE     [  1]   ***   
       T3_EXTRAPOL          IT3EXT         ON           [  1]   ***   
       TAMP_SUM             IEVERY              5               ***   
       TESTSUITE            ITESTS         OFF          [  0]   ***   
       THERMOCH             ITHERM         OFF          [  0]   ***   
       TOL_CHOLESK          ITOLCH          10D-  4             ***   
       TRANGRAD             IRESRM         OFF          [  0]   ***   
       TRANS_INV            ITRAIN         USE          [  0]   ***   
       TREAT_PERT           ITREAT         SIMULTANEOUS [  0]   ***   
       UIJ_THRESHO          IUIJTH              1               ***   
       UNITS                IUNITS         BOHR         [  1]   ***   
       UNOS                 IUNOS          OFF          [  0]   ***   
       UPDATE_HESS          IHUPDT         ON           [  1]   ***   
       VIBPHASE             ISETPH         STANDARD     [  0]   ***   
       VIBRATION            IVIB              NO        [  0]   ***   
       VIB_ALGORIT          IGEALG         STANDARD     [  0]   ***   
       VNATORB              IVNORB         OFF          [  0]   ***   
       VTRAN                IVTRAN         FULL/PARTIAL [  0]   ***   
       XFIELD               IXEFLD              0             x 10-6  
       XFORM_TOL            IXFTOL          10D- 18             ***   
       YFIELD               IYEFLD              0             x 10-6  
       ZFIELD               IZEFLD              0             x 10-6  
    -------------------------------------------------------------------
   2 entries found in Z-matrix 
   Job Title : TITLE                                                                           
 Variable names read by FETCHZ
  1           
  2           
  3           
  4 R         
  5           
  6           
 Atomic symbols read by FETCHZ
  1 N    
  2 N    
 Connectivity matrix read by FETCHZ
  1   0
  2   0
  3   0
  4   1
  5   0
  6   0
   There are  1 unique internal coordinates.
   Of these,  0 will be optimized.
   User supplied Z-matrix: 
--------------------------------------------------------------------------------
       SYMBOL    BOND      LENGTH    ANGLE     ANGLE     DIHED     ANGLE
                  TO      (ANGST)    WRT      (DEG)      WRT      (DEG)
--------------------------------------------------------------------------------
        N    
        N          1         R    
                  *Initial values for internal coordinates* 
                      Name             Value
                        R               2.0743126828
--------------------------------------------------------------------------------
  1  N          7    14.00307
  2  N          7    14.00307
   14.0030740020
   14.0030740020
 After translation to center of mass coordinates 
        0.000000000000    0.000000000000   -1.037156341375
        0.000000000000    0.000000000000    1.037156341375
  Inertia tensor (amu*bohr**2)
   30.12603    0.00000    0.00000
    0.00000   30.12603    0.00000
    0.00000    0.00000    0.00000
    Inertia tensor:
       30.126025107289    0.000000000000    0.000000000000
        0.000000000000   30.126025107289    0.000000000000
        0.000000000000    0.000000000000    0.000000000000
    Principal axis orientation for molecular system: 
       -0.000000000000    0.000000000000    1.037156341375
        0.000000000000    0.000000000000   -1.037156341375
    Diagonalized inertia tensor:
       30.126025107289    0.000000000000    0.000000000000
        0.000000000000   30.126025107289    0.000000000000
        0.000000000000    0.000000000000    0.000000000000
    Eigenvectors of inertia tensor: 
        1.000000000000    0.000000000000    0.000000000000
        0.000000000000    1.000000000000    0.000000000000
        0.000000000000    0.000000000000   -1.000000000000
 factor:   60.1997200000000     
   Rotational constants (in cm-1): 
          1.9982629566             1.9982629566
   Rotational constants (in MHz): 
      59906.4247401608         59906.4247401608
  @SYMMETRY-I, Handedness of inertial frame:-1.00000
  @SYMMETRY-I, Sense of inertial frame y-axis will be changed.
  @SYMMETRY-I, The symmetry group is 2-fold degenerate.
  @SYMMETRY-I, The molecule belongs to a point group with doubly degenerate representations.
  @SYMMETRY-I, The molecule is linear.
   Principal axis orientation for molecule:
       -0.000000000000    0.000000000000    1.037156341375
        0.000000000000    0.000000000000   -1.037156341375
   Reflection in plane  3 is a valid symmetry operation.
   Rotation about  3 is a valid symmetry operation 
   Reflection in plane  2 is a valid symmetry operation.
   Rotation about  2 is a valid symmetry operation 
   Reflection in plane  1 is a valid symmetry operation.
   Rotation about  1 is a valid symmetry operation 
   The molecule possesses an inversion center. 
  Symmetry bits:    7   7   1
********************************************************************************
   The full molecular point group is DXh .
   The largest Abelian subgroup of the full molecular point group is D2h .
   The computational point group is D2h .
********************************************************************************
--------------------------------------------------------------------------------
   Analysis of internal coordinates specified by Z-matrix 
--------------------------------------------------------------------------------
   *The nuclear repulsion energy is   23.622282410691682 a.u.
   *There is   1 degree of freedom within the tot. symm. molecular subspace.
   *Z-matrix requests optimization of   0 coordinates.
   *The optimization is constrained.
   *The following   1 parameters can have non-zero 
    derivatives within the totally symmetric subspace:
             R    [ 1]
   *The following   0 parameters are to be optimized:

   *The following coordinates must be varied in an  unconstrained optimization.
             R    [ 1]
--------------------------------------------------------------------------------
 ----------------------------------------------------------------
 Z-matrix   Atomic            Coordinates (in bohr)
  Symbol    Number           X              Y              Z
 ----------------------------------------------------------------
     N         7        -0.00000000     0.00000000     1.03715634
     N         7         0.00000000     0.00000000    -1.03715634
 ----------------------------------------------------------------
   Interatomic distance matrix (Angstroms) 
 
                 N             N    
                [ 1]        [ 2]
  N    [ 1]     0.00000
  N    [ 2]     1.09768     0.00000
  Inertia tensor (amu*bohr**2)
   30.12603    0.00000    0.00000
    0.00000   30.12603    0.00000
    0.00000    0.00000    0.00000
   Rotational constants (in cm-1): 
          1.9982629566             0.0000000000
   Rotational constants (in MHz): 
      59906.4247401608             0.0000000000
  @GTFLGS-W, Keyword #GEOM not known and is ignored.
  @GTFLGS-W, Keyword #COORD not known and is ignored.
  @GTFLGS-W, Keyword #CC_PROG not known and is ignored.
  @GTFLGS-W, Keyword #DROPMO not known and is ignored.
  @GTFLGS-W, Keyword #CONTRACTION not known and is ignored.
  @GTFLGS-W, Keyword #EXCITE not known and is ignored.
  @GTFLGS-W, Keyword #ESTATE_CONV not known and is ignored.
  @GTFLGS-W, Keyword #ESTATE_SYM not known and is ignored.
  @GTFLGS-W, Keyword #SCF_DAMPING not known and is ignored.
  @GTFLGS-W, Keyword #OCCUPATION not known and is ignored.
  There are   2 frozen-core orbitals.
  There are   62 basis functions.
 @GEOPT-W, Archive file not created for single-point calculation.
  @CHECKOUT-I, Total execution time (CPU/WALL):        0.40/       0.76 seconds.
--executable xjoda finished with status     0 in        1.99 seconds (walltime).
 --invoking executable--
/home/nike/cfour_v2.00beta/cfour_v2.00beta/bin/xvmol
 Serial version of molecule started
********************************************************************************
                    Input from MOL file
********************************************************************************
INTGRL        1    0    1    0    0    0    0    0    0                         
         *** CFOUR Program System (Release V0.1) ***                            
TITLE                                                                           
    1    3 X  Y   Z   0.10E-08              0    0                              
   9999.00      3.00                                                            
          7.00000000    1    4    1    1    1    1                              
N #1  -0.000000000000000   0.000000000000000   1.037156341375000                
   11    5                                                                      
   19730.8006470000       2.188798499100000E-004  0.000000000000000E+000        
  0.000000000000000E+000  0.000000000000000E+000  0.000000000000000E+000        
   2957.89587450000       1.696070880300000E-003  0.000000000000000E+000        
  0.000000000000000E+000  0.000000000000000E+000  0.000000000000000E+000        
   673.221335950000       8.795460353799999E-003  0.000000000000000E+000        
  0.000000000000000E+000  0.000000000000000E+000  0.000000000000000E+000        
   190.682494940000       3.535938260500000E-002  0.000000000000000E+000        
  0.000000000000000E+000  0.000000000000000E+000  0.000000000000000E+000        
   62.2954418980000       0.110957892170000       0.000000000000000E+000        
  0.000000000000000E+000  0.000000000000000E+000  0.000000000000000E+000        
   22.6541611820000       0.249829725520000       0.000000000000000E+000        
  0.000000000000000E+000  0.000000000000000E+000  0.000000000000000E+000        
   8.97914774280000       0.000000000000000E+000  0.406238961480000             
  0.000000000000000E+000  0.000000000000000E+000  0.000000000000000E+000        
   3.68630023700000       0.000000000000000E+000  0.243382171760000             
  0.000000000000000E+000  0.000000000000000E+000  0.000000000000000E+000        
  0.846600768050000       0.000000000000000E+000  0.000000000000000E+000        
   1.00000000000000       0.000000000000000E+000  0.000000000000000E+000        
  0.336471337710000       0.000000000000000E+000  0.000000000000000E+000        
  0.000000000000000E+000   1.00000000000000       0.000000000000000E+000        
  0.136476536750000       0.000000000000000E+000  0.000000000000000E+000        
  0.000000000000000E+000  0.000000000000000E+000   1.00000000000000             
    6    3                                                                      
   49.2003805100000       5.555241675100000E-003  0.000000000000000E+000        
  0.000000000000000E+000                                                        
   11.3467905370000       3.805237972300000E-002  0.000000000000000E+000        
  0.000000000000000E+000                                                        
   3.42739724110000       0.149536710290000       0.000000000000000E+000        
  0.000000000000000E+000                                                        
   1.17855251340000       0.349493052300000       0.000000000000000E+000        
  0.000000000000000E+000                                                        
  0.416422049720000       0.000000000000000E+000  0.458431536970000             
  0.000000000000000E+000                                                        
  0.142608260110000       0.000000000000000E+000  0.000000000000000E+000        
  0.244287716720000                                                             
    2    2                                                                      
   1.65400000000000        1.00000000000000       0.000000000000000E+000        
  0.469000000000000       0.000000000000000E+000   1.00000000000000             
    1    1                                                                      
   1.09300000000000        1.00000000000000                                     
FINISH                                                                          
 
********************************************************************************
 One- and two-electron integrals over symmetry-adapted AOs are calculated.

  Spherical harmonics are used.
  
   1 types of atoms
   3 symmetry operations

   Reflection in the YZ-plane
   Reflection in the XZ-plane
   Reflection in the XY-plane
  
  Integrals less than  0.10E-13 are neglected.

  Atomic type number  1 :
  -----------------------

    Nuclear charge:                        7
    number of symmetry independent atoms:  1
    highest orbital type:                  f

      1 groups of CGTOs of s type
      1 groups of CGTOs of p type
      1 groups of CGTOs of d type
      1 groups of CGTOs of f type

    nuclear coordinates (in a.u.) are :

    N #1        0.000000000000000        0.000000000000000        1.037156341375000
  
   Basis function not normalized: 
   Center (as ordered in MOL file):   1
   Angular Momentum type          : s
   Offset within angular momentum :  1
   <chi|chi>                      :    2.6784741790
   Basis function not normalized: 
   Center (as ordered in MOL file):   1
   Angular Momentum type          : s
   Offset within angular momentum :  2
   <chi|chi>                      :    1.5901154186
   Basis function not normalized: 
   Center (as ordered in MOL file):   1
   Angular Momentum type          : p
   Offset within angular momentum :  1
   <chi|chi>                      :    2.0609049563
   Basis function not normalized: 
   Center (as ordered in MOL file):   1
   Angular Momentum type          : p
   Offset within angular momentum :  2
   <chi|chi>                      :    2.1813508002
   Basis function not normalized: 
   Center (as ordered in MOL file):   1
   Angular Momentum type          : p
   Offset within angular momentum :  3
   <chi|chi>                      :    4.0935336964
   Internuclear distances (A) :

     for atom N #1 (coordinates :   0.00000   0.00000   1.03716)

     N #1   5     distance is  1.098

   Group multiplication table :

         1   2   3   4   5   6   7   8
         2   1   4   3   6   5   8   7
         3   4   1   2   7   8   5   6
         4   3   2   1   8   7   6   5
         5   6   7   8   1   2   3   4
         6   5   8   7   2   1   4   3
         7   8   5   6   3   4   1   2
         8   7   6   5   4   3   2   1

   Gaussian basis information :

   atom                 exponent      coefficients

 N #1  1    S   
+                 1   19730.800647   0.0002189   0.0000000   0.0000000   0.0000000   0.0000000
                  2    2957.895874   0.0016961   0.0000000   0.0000000   0.0000000   0.0000000
                  3     673.221336   0.0087955   0.0000000   0.0000000   0.0000000   0.0000000
                  4     190.682495   0.0353594   0.0000000   0.0000000   0.0000000   0.0000000
                  5      62.295442   0.1109579   0.0000000   0.0000000   0.0000000   0.0000000
                  6      22.654161   0.2498297   0.0000000   0.0000000   0.0000000   0.0000000
                  7       8.979148   0.0000000   0.4062390   0.0000000   0.0000000   0.0000000
                  8       3.686300   0.0000000   0.2433822   0.0000000   0.0000000   0.0000000
                  9       0.846601   0.0000000   0.0000000   1.0000000   0.0000000   0.0000000
                 10       0.336471   0.0000000   0.0000000   0.0000000   1.0000000   0.0000000
                 11       0.136477   0.0000000   0.0000000   0.0000000   0.0000000   1.0000000

 N #1  5    S   
+                12   19730.800647   0.0002189   0.0000000   0.0000000   0.0000000   0.0000000
                 13    2957.895874   0.0016961   0.0000000   0.0000000   0.0000000   0.0000000
                 14     673.221336   0.0087955   0.0000000   0.0000000   0.0000000   0.0000000
                 15     190.682495   0.0353594   0.0000000   0.0000000   0.0000000   0.0000000
                 16      62.295442   0.1109579   0.0000000   0.0000000   0.0000000   0.0000000
                 17      22.654161   0.2498297   0.0000000   0.0000000   0.0000000   0.0000000
                 18       8.979148   0.0000000   0.4062390   0.0000000   0.0000000   0.0000000
                 19       3.686300   0.0000000   0.2433822   0.0000000   0.0000000   0.0000000
                 20       0.846601   0.0000000   0.0000000   1.0000000   0.0000000   0.0000000
                 21       0.336471   0.0000000   0.0000000   0.0000000   1.0000000   0.0000000
                 22       0.136477   0.0000000   0.0000000   0.0000000   0.0000000   1.0000000

 N #1  1    X   
+                23      49.200381   0.0055552   0.0000000   0.0000000
                 24      11.346791   0.0380524   0.0000000   0.0000000
                 25       3.427397   0.1495367   0.0000000   0.0000000
                 26       1.178553   0.3494931   0.0000000   0.0000000
                 27       0.416422   0.0000000   0.4584315   0.0000000
                 28       0.142608   0.0000000   0.0000000   0.2442877

 N #1  5    X   
+                29      49.200381   0.0055552   0.0000000   0.0000000
                 30      11.346791   0.0380524   0.0000000   0.0000000
                 31       3.427397   0.1495367   0.0000000   0.0000000
                 32       1.178553   0.3494931   0.0000000   0.0000000
                 33       0.416422   0.0000000   0.4584315   0.0000000
                 34       0.142608   0.0000000   0.0000000   0.2442877

 N #1  1    Y   
+                35      49.200381   0.0055552   0.0000000   0.0000000
                 36      11.346791   0.0380524   0.0000000   0.0000000
                 37       3.427397   0.1495367   0.0000000   0.0000000
                 38       1.178553   0.3494931   0.0000000   0.0000000
                 39       0.416422   0.0000000   0.4584315   0.0000000
                 40       0.142608   0.0000000   0.0000000   0.2442877

 N #1  5    Y   
+                41      49.200381   0.0055552   0.0000000   0.0000000
                 42      11.346791   0.0380524   0.0000000   0.0000000
                 43       3.427397   0.1495367   0.0000000   0.0000000
                 44       1.178553   0.3494931   0.0000000   0.0000000
                 45       0.416422   0.0000000   0.4584315   0.0000000
                 46       0.142608   0.0000000   0.0000000   0.2442877

 N #1  1    Z   
+                47      49.200381   0.0055552   0.0000000   0.0000000
                 48      11.346791   0.0380524   0.0000000   0.0000000
                 49       3.427397   0.1495367   0.0000000   0.0000000
                 50       1.178553   0.3494931   0.0000000   0.0000000
                 51       0.416422   0.0000000   0.4584315   0.0000000
                 52       0.142608   0.0000000   0.0000000   0.2442877

 N #1  5    Z   
+                53      49.200381   0.0055552   0.0000000   0.0000000
                 54      11.346791   0.0380524   0.0000000   0.0000000
                 55       3.427397   0.1495367   0.0000000   0.0000000
                 56       1.178553   0.3494931   0.0000000   0.0000000
                 57       0.416422   0.0000000   0.4584315   0.0000000
                 58       0.142608   0.0000000   0.0000000   0.2442877

 N #1  1    XX  
+                59       1.654000   1.0000000   0.0000000
                 60       0.469000   0.0000000   1.0000000

 N #1  5    XX  
+                61       1.654000   1.0000000   0.0000000
                 62       0.469000   0.0000000   1.0000000

 N #1  1    XY  
+                63       1.654000   1.0000000   0.0000000
                 64       0.469000   0.0000000   1.0000000

 N #1  5    XY  
+                65       1.654000   1.0000000   0.0000000
                 66       0.469000   0.0000000   1.0000000

 N #1  1    XZ  
+                67       1.654000   1.0000000   0.0000000
                 68       0.469000   0.0000000   1.0000000

 N #1  5    XZ  
+                69       1.654000   1.0000000   0.0000000
                 70       0.469000   0.0000000   1.0000000

 N #1  1    YY  
+                71       1.654000   1.0000000   0.0000000
                 72       0.469000   0.0000000   1.0000000

 N #1  5    YY  
+                73       1.654000   1.0000000   0.0000000
                 74       0.469000   0.0000000   1.0000000

 N #1  1    YZ  
+                75       1.654000   1.0000000   0.0000000
                 76       0.469000   0.0000000   1.0000000

 N #1  5    YZ  
+                77       1.654000   1.0000000   0.0000000
                 78       0.469000   0.0000000   1.0000000

 N #1  1    ZZ  
+                79       1.654000   1.0000000   0.0000000
                 80       0.469000   0.0000000   1.0000000

 N #1  5    ZZ  
+                81       1.654000   1.0000000   0.0000000
                 82       0.469000   0.0000000   1.0000000

 N #1  1    F300
+                83       1.093000   1.0000000

 N #1  5    F300
+                84       1.093000   1.0000000

 N #1  1    F210
+                85       1.093000   1.0000000

 N #1  5    F210
+                86       1.093000   1.0000000

 N #1  1    F201
+                87       1.093000   1.0000000

 N #1  5    F201
+                88       1.093000   1.0000000

 N #1  1    F120
+                89       1.093000   1.0000000

 N #1  5    F120
+                90       1.093000   1.0000000

 N #1  1    F111
+                91       1.093000   1.0000000

 N #1  5    F111
+                92       1.093000   1.0000000

 N #1  1    F102
+                93       1.093000   1.0000000

 N #1  5    F102
+                94       1.093000   1.0000000

 N #1  1    F030
+                95       1.093000   1.0000000

 N #1  5    F030
+                96       1.093000   1.0000000

 N #1  1    F021
+                97       1.093000   1.0000000

 N #1  5    F021
+                98       1.093000   1.0000000

 N #1  1    F012
+                99       1.093000   1.0000000

 N #1  5    F012
+               100       1.093000   1.0000000

 N #1  1    F003
+               101       1.093000   1.0000000

 N #1  5    F003
+               102       1.093000   1.0000000
 72 62
  1  2  3  4  5  6  7  8  9 10 11 12****** 13 14*** 15 16 17 18 19 20 21***
 22 23 24 25 26 27 28*** 29 30 31 32 33 34 35 36 37 38 39 40 41 42 43******
 44 45*** 46 47 48 49 50 51 52*** 53 54 55 56 57 58 59*** 60 61 62
1

             SYMMETRY TRANSFORMATION INFO
             62 SYMMETRY ADAPTED BASIS FUNCTIONS 


          irreducible representation number 1

    1    1  N #1     1s     2   1   1.0   2   1.0
    2    2  N #1     1s     2   3   1.0   4   1.0
    3    3  N #1     1s     2   5   1.0   6   1.0
    4    4  N #1     1s     2   7   1.0   8   1.0
    5    5  N #1     1s     2   9   1.0  10   1.0
    6    6  N #1     2pz    2  23   1.0  24  -1.0
    7    7  N #1     2pz    2  25   1.0  26  -1.0
    8    8  N #1     2pz    2  27   1.0  28  -1.0
    9    9  N #1     3d2-   6  29  -1.0  41  -1.0  49   2.0  30  -1.0  42  -1.0  50   2.0
   10   10  N #1     3d2-   6  31  -1.0  43  -1.0  51   2.0  32  -1.0  44  -1.0  52   2.0
   11   11  N #1     3d1+   4  29   1.0  41  -1.0  30   1.0  42  -1.0
   12   12  N #1     3d1+   4  31   1.0  43  -1.0  32   1.0  44  -1.0
   13   13  N #1     4f1-   6  57  -3.0  67  -3.0  71   2.0  58   3.0  68   3.0  72  -2.0
   14   14  N #1     4f3+   4  57   1.0  67  -1.0  58  -1.0  68   1.0


          irreducible representation number 2

   15    1  N #1     2px    2  11   1.0  12   1.0
   16    2  N #1     2px    2  13   1.0  14   1.0
   17    3  N #1     2px    2  15   1.0  16   1.0
   18    4  N #1     3d0    2  37   1.0  38  -1.0
   19    5  N #1     3d0    2  39   1.0  40  -1.0
   20    6  N #1     4f3-   6  53  -1.0  59  -1.0  63   4.0  54  -1.0  60  -1.0  64   4.0
   21    7  N #1     4f0    4  53   1.0  59  -3.0  54   1.0  60  -3.0


          irreducible representation number 3

   22    1  N #1     2py    2  17   1.0  18   1.0
   23    2  N #1     2py    2  19   1.0  20   1.0
   24    3  N #1     2py    2  21   1.0  22   1.0
   25    4  N #1     3d2+   2  45   1.0  46  -1.0
   26    5  N #1     3d2+   2  47   1.0  48  -1.0
   27    6  N #1     4f2-   6  55  -1.0  65  -1.0  69   4.0  56  -1.0  66  -1.0  70   4.0
   28    7  N #1     4f2+   4  55   3.0  65  -1.0  56   3.0  66  -1.0


          irreducible representation number 4

   29    1  N #1     3d1-   2  33   1.0  34   1.0
   30    2  N #1     3d1-   2  35   1.0  36   1.0
   31    3  N #1     4f1+   2  61   1.0  62  -1.0


          irreducible representation number 5

   32    1  N #1     1s     2   1   1.0   2  -1.0
   33    2  N #1     1s     2   3   1.0   4  -1.0
   34    3  N #1     1s     2   5   1.0   6  -1.0
   35    4  N #1     1s     2   7   1.0   8  -1.0
   36    5  N #1     1s     2   9   1.0  10  -1.0
   37    6  N #1     2pz    2  23   1.0  24   1.0
   38    7  N #1     2pz    2  25   1.0  26   1.0
   39    8  N #1     2pz    2  27   1.0  28   1.0
   40    9  N #1     3d2-   6  29  -1.0  41  -1.0  49   2.0  30   1.0  42   1.0  50  -2.0
   41   10  N #1     3d2-   6  31  -1.0  43  -1.0  51   2.0  32   1.0  44   1.0  52  -2.0
   42   11  N #1     3d1+   4  29   1.0  41  -1.0  30  -1.0  42   1.0
   43   12  N #1     3d1+   4  31   1.0  43  -1.0  32  -1.0  44   1.0
   44   13  N #1     4f1-   6  57  -3.0  67  -3.0  71   2.0  58  -3.0  68  -3.0  72   2.0
   45   14  N #1     4f3+   4  57   1.0  67  -1.0  58   1.0  68  -1.0


          irreducible representation number 6

   46    1  N #1     2px    2  11   1.0  12  -1.0
   47    2  N #1     2px    2  13   1.0  14  -1.0
   48    3  N #1     2px    2  15   1.0  16  -1.0
   49    4  N #1     3d0    2  37   1.0  38   1.0
   50    5  N #1     3d0    2  39   1.0  40   1.0
   51    6  N #1     4f3-   6  53  -1.0  59  -1.0  63   4.0  54   1.0  60   1.0  64  -4.0
   52    7  N #1     4f0    4  53   1.0  59  -3.0  54  -1.0  60   3.0


          irreducible representation number 7

   53    1  N #1     2py    2  17   1.0  18  -1.0
   54    2  N #1     2py    2  19   1.0  20  -1.0
   55    3  N #1     2py    2  21   1.0  22  -1.0
   56    4  N #1     3d2+   2  45   1.0  46   1.0
   57    5  N #1     3d2+   2  47   1.0  48   1.0
   58    6  N #1     4f2-   6  55  -1.0  65  -1.0  69   4.0  56   1.0  66   1.0  70  -4.0
   59    7  N #1     4f2+   4  55   3.0  65  -1.0  56  -3.0  66   1.0


          irreducible representation number 8

   60    1  N #1     3d1-   2  33   1.0  34  -1.0
   61    2  N #1     3d1-   2  35   1.0  36  -1.0
   62    3  N #1     4f1+   2  61   1.0  62   1.0
  Nuclear repulsion energy :   23.6222824107 a.u.
  required memory for a1 array                5112368  words 
  required memory for a2 array                2103164  words 
 @GETMEM-I,  Allocated      70 MB of main memory.
  @MOLECU-I, One electron integrals (CPU/WALL):        0.02/       0.02 seconds.
  @TWOEL-I,       8099 integrals of symmetry type  I I I I
  @TWOEL-I,      55130 integrals of symmetry type  I J I J
  @TWOEL-I,      34594 integrals of symmetry type  I I J J
  @TWOEL-I,     108034 integrals of symmetry type  I J K L
  @TWOEL-I, Total number of 2-e integrals     205857.
  @MOLECU-I, Two electron integrals (CPU/WALL):        1.29/       0.25 seconds.
  @CHECKOUT-I, Total execution time (CPU/WALL):        1.56/       0.65 seconds.
--executable xvmol finished with status     0 in        0.70 seconds (walltime).
 --invoking executable--
/home/nike/cfour_v2.00beta/cfour_v2.00beta/bin/xvmol2ja
 @GETMEM-I,  Allocated   11444 MB of main memory.
  @CHECKOUT-I, Total execution time (CPU/WALL):        0.05/       0.02 seconds.
--executable xvmol2ja finished with status     0 in        0.06 seconds (walltime).
 --invoking executable--
/home/nike/cfour_v2.00beta/cfour_v2.00beta/bin/xvscf
  There are   62 functions in the AO basis.

  There are 8 irreducible representations.

       Irrep        # of functions
         1                 14
         2                  7
         3                  7
         4                  3
         5                 14
         6                  7
         7                  7
         8                  3


  Parameters for SCF calculation: 
        SCF reference function:  RHF  
  Maximum number of iterations: 9999
     Full symmetry point group: DXh 
     Computational point group: D2h 
        Initial density matrix: MOREAD                 
     SCF convergence tolerance: 10**(-13)
  DIIS convergence acceleration:  ON
          Latest start for DIIS:   5
                     DIIS order:   6

  Memory information:     204352 words required.
  Fock matrices are constructed from AO integral file.
 @GETMEM-I,  Allocated       1 MB of main memory.
  Initialization and symmetry analysis required      0.019 seconds.

  @INITGES-I, Occupancies from core Hamiltonian:

          Alpha population by irrep:   2    1    1    0    2    0    1    0
           Beta population by irrep:   2    1    1    0    2    0    1    0


 total no. of electrons in initial guess :  0.000000000000000E+000
  --------------------------------------------------------------------
  Iteration         Total Energy            Largest Density Difference
  --------------------------------------------------------------------
       0            23.622282410691682              0.0000000000D+00
   current occupation vector 
     2  1  1  0  2  0  1  0
     2  1  1  0  2  0  1  0
  processed                   8099  ao basis integrals from 
                    14  buffers.
  processed                  34594  ao basis integrals from 
                    58  buffers.
  processed                  55130  ao basis integrals from 
                    92  buffers.
       1           -95.457027576871411              0.1563759135D+01
   current occupation vector 
     2  1  1  0  2  0  1  0
     2  1  1  0  2  0  1  0
  processed                   8099  ao basis integrals from 
                    14  buffers.
  processed                  34594  ao basis integrals from 
                    58  buffers.
  processed                  55130  ao basis integrals from 
                    92  buffers.
       2          -100.893517586903513              0.4428596115D+01
   current occupation vector 
     3  1  1  0  2  0  0  0
     3  1  1  0  2  0  0  0
  processed                   8099  ao basis integrals from 
                    14  buffers.
  processed                  34594  ao basis integrals from 
                    58  buffers.
  processed                  55130  ao basis integrals from 
                    92  buffers.
       3          -107.576577513933287              0.4857287479D+01
   current occupation vector 
     3  1  1  0  2  0  0  0
     3  1  1  0  2  0  0  0
  processed                   8099  ao basis integrals from 
                    14  buffers.
  processed                  34594  ao basis integrals from 
                    58  buffers.
  processed                  55130  ao basis integrals from 
                    92  buffers.
       4          -108.830610977980442              0.4790691959D+00
   current occupation vector 
     3  1  1  0  2  0  0  0
     3  1  1  0  2  0  0  0
 
 sum over diagonal and offdiagdiagonal of C(T)*S*C for irrep
                     1
 -1.976196983832779E-014  1.581264323356995E-015
 reorthoganalization of MOs is carried out
 sum over diagonal and offdiagdiagonal of C(T)*S*C for irrep
                     1
 -1.887379141862766E-015  1.848134062309748E-015
 
 sum over diagonal and offdiagdiagonal of C(T)*S*C for irrep
                     2
  1.076916333886402E-014  3.177976337855195E-015
 reorthoganalization of MOs is carried out
 sum over diagonal and offdiagdiagonal of C(T)*S*C for irrep
                     2
 -8.881784197001252E-016  4.097947263582973E-016
 
 sum over diagonal and offdiagdiagonal of C(T)*S*C for irrep
                     3
  0.000000000000000E+000  6.990441256315358E-015
 reorthoganalization of MOs is carried out
 sum over diagonal and offdiagdiagonal of C(T)*S*C for irrep
                     3
 -1.332267629550188E-015  1.077155130011690E-015
 
 sum over diagonal and offdiagdiagonal of C(T)*S*C for irrep
                     4
 -2.997602166487923E-015  1.629317333701002E-015
 reorthoganalization of MOs is carried out
 sum over diagonal and offdiagdiagonal of C(T)*S*C for irrep
                     4
  6.661338147750939E-016  3.540604484317483E-016
 
 sum over diagonal and offdiagdiagonal of C(T)*S*C for irrep
                     5
 -3.805844528415037E-013  4.203465650937941E-013
 reorthoganalization of MOs is carried out
 sum over diagonal and offdiagdiagonal of C(T)*S*C for irrep
                     5
 -1.434408147815702E-013  5.317478093902992E-014
 
 sum over diagonal and offdiagdiagonal of C(T)*S*C for irrep
                     6
  5.440092820663267E-015  1.391823656056565E-015
 reorthoganalization of MOs is carried out
 sum over diagonal and offdiagdiagonal of C(T)*S*C for irrep
                     6
  5.551115123125783E-016 -2.481873487607429E-015
 
 sum over diagonal and offdiagdiagonal of C(T)*S*C for irrep
                     7
 -1.110223024625157E-014 -8.820001549110427E-015
 reorthoganalization of MOs is carried out
 sum over diagonal and offdiagdiagonal of C(T)*S*C for irrep
                     7
  0.000000000000000E+000  1.266884021247134E-015
 
 sum over diagonal and offdiagdiagonal of C(T)*S*C for irrep
                     8
 -5.995204332975845E-015 -1.375426575811036E-015
 reorthoganalization of MOs is carried out
 sum over diagonal and offdiagdiagonal of C(T)*S*C for irrep
                     8
 -2.220446049250313E-016  2.620973961101793E-016
  processed                   8099  ao basis integrals from 
                    14  buffers.
  processed                  34594  ao basis integrals from 
                    58  buffers.
  processed                  55130  ao basis integrals from 
                    92  buffers.
       5          -108.975165651930453              0.7978506328D-01
   current occupation vector 
     3  1  1  0  2  0  0  0
     3  1  1  0  2  0  0  0
  processed                   8099  ao basis integrals from 
                    14  buffers.
  processed                  34594  ao basis integrals from 
                    58  buffers.
  processed                  55130  ao basis integrals from 
                    92  buffers.
       6          -108.988089642510616              0.2691708762D-01
   current occupation vector 
     3  1  1  0  2  0  0  0
     3  1  1  0  2  0  0  0
  processed                   8099  ao basis integrals from 
                    14  buffers.
  processed                  34594  ao basis integrals from 
                    58  buffers.
  processed                  55130  ao basis integrals from 
                    92  buffers.
       7          -108.988120253879103              0.2376626460D-02
   current occupation vector 
     3  1  1  0  2  0  0  0
     3  1  1  0  2  0  0  0
  processed                   8099  ao basis integrals from 
                    14  buffers.
  processed                  34594  ao basis integrals from 
                    58  buffers.
  processed                  55130  ao basis integrals from 
                    92  buffers.
       8          -108.988120814396311              0.3003820743D-03
   current occupation vector 
     3  1  1  0  2  0  0  0
     3  1  1  0  2  0  0  0
  processed                   8099  ao basis integrals from 
                    14  buffers.
  processed                  34594  ao basis integrals from 
                    58  buffers.
  processed                  55130  ao basis integrals from 
                    92  buffers.
       9          -108.988120822706080              0.5498953166D-04
   current occupation vector 
     3  1  1  0  2  0  0  0
     3  1  1  0  2  0  0  0
 
 sum over diagonal and offdiagdiagonal of C(T)*S*C for irrep
                     1
 -1.543210004228968E-014 -3.850939235192288E-015
 reorthoganalization of MOs is carried out
 sum over diagonal and offdiagdiagonal of C(T)*S*C for irrep
                     1
  2.220446049250313E-015  3.895751657294167E-015
 
 sum over diagonal and offdiagdiagonal of C(T)*S*C for irrep
                     2
  4.884981308350689E-015  2.409453256289968E-015
 reorthoganalization of MOs is carried out
 sum over diagonal and offdiagdiagonal of C(T)*S*C for irrep
                     2
  3.330669073875470E-016 -4.206907832487630E-016
 
 sum over diagonal and offdiagdiagonal of C(T)*S*C for irrep
                     3
  3.330669073875470E-015  5.943211257454002E-015
 reorthoganalization of MOs is carried out
 sum over diagonal and offdiagdiagonal of C(T)*S*C for irrep
                     3
  3.330669073875470E-016 -1.780790914928492E-016
 
 sum over diagonal and offdiagdiagonal of C(T)*S*C for irrep
                     4
 -5.995204332975845E-015 -2.131625347976875E-015
 reorthoganalization of MOs is carried out
 sum over diagonal and offdiagdiagonal of C(T)*S*C for irrep
                     4
  2.220446049250313E-016 -1.704755263449761E-016
 
 sum over diagonal and offdiagdiagonal of C(T)*S*C for irrep
                     5
 -4.465317005042380E-013  4.747651743588861E-013
 reorthoganalization of MOs is carried out
 sum over diagonal and offdiagdiagonal of C(T)*S*C for irrep
                     5
 -7.593925488436071E-014  1.466286351994862E-014
 
 sum over diagonal and offdiagdiagonal of C(T)*S*C for irrep
                     6
 -8.881784197001252E-016 -2.027239761455158E-015
 reorthoganalization of MOs is carried out
 sum over diagonal and offdiagdiagonal of C(T)*S*C for irrep
                     6
 -5.551115123125783E-016  7.934220550774476E-016
 
 sum over diagonal and offdiagdiagonal of C(T)*S*C for irrep
                     7
 -1.099120794378905E-014 -1.214093173568909E-014
 reorthoganalization of MOs is carried out
 sum over diagonal and offdiagdiagonal of C(T)*S*C for irrep
                     7
 -9.992007221626409E-016  4.504478479154034E-016
 
 sum over diagonal and offdiagdiagonal of C(T)*S*C for irrep
                     8
 -5.884182030513330E-015 -1.347626194288988E-015
 reorthoganalization of MOs is carried out
 sum over diagonal and offdiagdiagonal of C(T)*S*C for irrep
                     8
 -2.220446049250313E-016  2.279326851601493E-016
  processed                   8099  ao basis integrals from 
                    14  buffers.
  processed                  34594  ao basis integrals from 
                    58  buffers.
  processed                  55130  ao basis integrals from 
                    92  buffers.
      10          -108.988120822781795              0.6638844703D-05
   current occupation vector 
     3  1  1  0  2  0  0  0
     3  1  1  0  2  0  0  0
  processed                   8099  ao basis integrals from 
                    14  buffers.
  processed                  34594  ao basis integrals from 
                    58  buffers.
  processed                  55130  ao basis integrals from 
                    92  buffers.
      11          -108.988120822785802              0.8716634979D-06
   current occupation vector 
     3  1  1  0  2  0  0  0
     3  1  1  0  2  0  0  0
  processed                   8099  ao basis integrals from 
                    14  buffers.
  processed                  34594  ao basis integrals from 
                    58  buffers.
  processed                  55130  ao basis integrals from 
                    92  buffers.
      12          -108.988120822785916              0.1539968330D-06
   current occupation vector 
     3  1  1  0  2  0  0  0
     3  1  1  0  2  0  0  0
  processed                   8099  ao basis integrals from 
                    14  buffers.
  processed                  34594  ao basis integrals from 
                    58  buffers.
  processed                  55130  ao basis integrals from 
                    92  buffers.
      13          -108.988120822785604              0.2531588447D-07
   current occupation vector 
     3  1  1  0  2  0  0  0
     3  1  1  0  2  0  0  0
  processed                   8099  ao basis integrals from 
                    14  buffers.
  processed                  34594  ao basis integrals from 
                    58  buffers.
  processed                  55130  ao basis integrals from 
                    92  buffers.
      14          -108.988120822785746              0.4422448213D-08
   current occupation vector 
     3  1  1  0  2  0  0  0
     3  1  1  0  2  0  0  0
 
 sum over diagonal and offdiagdiagonal of C(T)*S*C for irrep
                     1
 -5.218048215738236E-015  5.253298231907006E-015
 reorthoganalization of MOs is carried out
 sum over diagonal and offdiagdiagonal of C(T)*S*C for irrep
                     1
  4.107825191113079E-015  3.092574016461908E-015
 
 sum over diagonal and offdiagdiagonal of C(T)*S*C for irrep
                     2
  7.327471962526033E-015  4.137740031540799E-015
 reorthoganalization of MOs is carried out
 sum over diagonal and offdiagdiagonal of C(T)*S*C for irrep
                     2
 -5.551115123125783E-016  1.321786192203757E-016
 
 sum over diagonal and offdiagdiagonal of C(T)*S*C for irrep
                     3
  2.109423746787797E-015  7.445007427095124E-015
 reorthoganalization of MOs is carried out
 sum over diagonal and offdiagdiagonal of C(T)*S*C for irrep
                     3
  6.661338147750939E-016  2.832898564507010E-017
 
 sum over diagonal and offdiagdiagonal of C(T)*S*C for irrep
                     4
 -5.884182030513330E-015 -2.013492683973440E-015
 reorthoganalization of MOs is carried out
 sum over diagonal and offdiagdiagonal of C(T)*S*C for irrep
                     4
 -2.220446049250313E-016  1.003588149115216E-016
 
 sum over diagonal and offdiagdiagonal of C(T)*S*C for irrep
                     5
 -4.419797861032748E-013  3.643646800263183E-013
 reorthoganalization of MOs is carried out
 sum over diagonal and offdiagdiagonal of C(T)*S*C for irrep
                     5
 -8.559819519859957E-014  2.299025232277328E-013
 
 sum over diagonal and offdiagdiagonal of C(T)*S*C for irrep
                     6
  1.076916333886402E-014 -1.282444491472928E-015
 reorthoganalization of MOs is carried out
 sum over diagonal and offdiagdiagonal of C(T)*S*C for irrep
                     6
 -1.110223024625157E-015  4.095890112277361E-015
 
 sum over diagonal and offdiagdiagonal of C(T)*S*C for irrep
                     7
 -3.330669073875470E-016  9.476899828490479E-016
 reorthoganalization of MOs is carried out
 sum over diagonal and offdiagdiagonal of C(T)*S*C for irrep
                     7
  7.771561172376096E-016  1.888992794664791E-016
 
 sum over diagonal and offdiagdiagonal of C(T)*S*C for irrep
                     8
 -6.661338147750939E-015 -9.505112128695006E-016
 reorthoganalization of MOs is carried out
 sum over diagonal and offdiagdiagonal of C(T)*S*C for irrep
                     8
  0.000000000000000E+000 -4.496661537210449E-017
  processed                   8099  ao basis integrals from 
                    14  buffers.
  processed                  34594  ao basis integrals from 
                    58  buffers.
  processed                  55130  ao basis integrals from 
                    92  buffers.
      15          -108.988120822785717              0.1738602040D-09
   current occupation vector 
     3  1  1  0  2  0  0  0
     3  1  1  0  2  0  0  0
  processed                   8099  ao basis integrals from 
                    14  buffers.
  processed                  34594  ao basis integrals from 
                    58  buffers.
  processed                  55130  ao basis integrals from 
                    92  buffers.
      16          -108.988120822785660              0.3758476863D-10
   current occupation vector 
     3  1  1  0  2  0  0  0
     3  1  1  0  2  0  0  0
  processed                   8099  ao basis integrals from 
                    14  buffers.
  processed                  34594  ao basis integrals from 
                    58  buffers.
  processed                  55130  ao basis integrals from 
                    92  buffers.
      17          -108.988120822785945              0.8284539721D-11
   current occupation vector 
     3  1  1  0  2  0  0  0
     3  1  1  0  2  0  0  0
  processed                   8099  ao basis integrals from 
                    14  buffers.
  processed                  34594  ao basis integrals from 
                    58  buffers.
  processed                  55130  ao basis integrals from 
                    92  buffers.
      18          -108.988120822785604              0.1431077479D-11
   current occupation vector 
     3  1  1  0  2  0  0  0
     3  1  1  0  2  0  0  0
  processed                   8099  ao basis integrals from 
                    14  buffers.
  processed                  34594  ao basis integrals from 
                    58  buffers.
  processed                  55130  ao basis integrals from 
                    92  buffers.
      19          -108.988120822786001              0.6628031457D-12
   current occupation vector 
     3  1  1  0  2  0  0  0
     3  1  1  0  2  0  0  0
 
 sum over diagonal and offdiagdiagonal of C(T)*S*C for irrep
                     1
 -8.104628079763643E-015  5.660056860671278E-015
 reorthoganalization of MOs is carried out
 sum over diagonal and offdiagdiagonal of C(T)*S*C for irrep
                     1
  6.661338147750939E-016  4.244991363235504E-015
 
 sum over diagonal and offdiagdiagonal of C(T)*S*C for irrep
                     2
 -9.547918011776346E-015  3.701628440630537E-015
 reorthoganalization of MOs is carried out
 sum over diagonal and offdiagdiagonal of C(T)*S*C for irrep
                     2
  2.220446049250313E-016 -2.898839283610017E-016
 
 sum over diagonal and offdiagdiagonal of C(T)*S*C for irrep
                     3
  2.220446049250313E-016  9.878121995896608E-015
 reorthoganalization of MOs is carried out
 sum over diagonal and offdiagdiagonal of C(T)*S*C for irrep
                     3
 -6.661338147750939E-016 -2.809580021007274E-016
 
 sum over diagonal and offdiagdiagonal of C(T)*S*C for irrep
                     4
 -1.776356839400250E-015 -1.240341662669431E-015
 reorthoganalization of MOs is carried out
 sum over diagonal and offdiagdiagonal of C(T)*S*C for irrep
                     4
 -1.110223024625157E-016 -7.804286994087967E-017
 
 sum over diagonal and offdiagdiagonal of C(T)*S*C for irrep
                     5
 -4.487521465534883E-013  3.980945377042874E-013
 reorthoganalization of MOs is carried out
 sum over diagonal and offdiagdiagonal of C(T)*S*C for irrep
                     5
  6.616929226765933E-014 -6.726574758924027E-014
 
 sum over diagonal and offdiagdiagonal of C(T)*S*C for irrep
                     6
 -4.329869796038111E-015  5.992603737514338E-015
 reorthoganalization of MOs is carried out
 sum over diagonal and offdiagdiagonal of C(T)*S*C for irrep
                     6
 -4.440892098500626E-016  8.327468331929705E-016
 
 sum over diagonal and offdiagdiagonal of C(T)*S*C for irrep
                     7
 -9.658940314238862E-015 -1.233988401196033E-014
 reorthoganalization of MOs is carried out
 sum over diagonal and offdiagdiagonal of C(T)*S*C for irrep
                     7
  0.000000000000000E+000  6.584168142866346E-016
 
 sum over diagonal and offdiagdiagonal of C(T)*S*C for irrep
                     8
 -4.107825191113079E-015 -9.517814834427130E-016
 reorthoganalization of MOs is carried out
 sum over diagonal and offdiagdiagonal of C(T)*S*C for irrep
                     8
  2.220446049250313E-016  2.923219459319872E-016
  processed                   8099  ao basis integrals from 
                    14  buffers.
  processed                  34594  ao basis integrals from 
                    58  buffers.
  processed                  55130  ao basis integrals from 
                    92  buffers.
      20          -108.988120822785689              0.1148081630D-11
   current occupation vector 
     3  1  1  0  2  0  0  0
     3  1  1  0  2  0  0  0
  processed                   8099  ao basis integrals from 
                    14  buffers.
  processed                  34594  ao basis integrals from 
                    58  buffers.
  processed                  55130  ao basis integrals from 
                    92  buffers.
      21          -108.988120822785660              0.1142974604D-11
   current occupation vector 
     3  1  1  0  2  0  0  0
     3  1  1  0  2  0  0  0
  processed                   8099  ao basis integrals from 
                    14  buffers.
  processed                  34594  ao basis integrals from 
                    58  buffers.
  processed                  55130  ao basis integrals from 
                    92  buffers.
      22          -108.988120822785802              0.2171690605D-10
   current occupation vector 
     3  1  1  0  2  0  0  0
     3  1  1  0  2  0  0  0
  processed                   8099  ao basis integrals from 
                    14  buffers.
  processed                  34594  ao basis integrals from 
                    58  buffers.
  processed                  55130  ao basis integrals from 
                    92  buffers.
      23          -108.988120822785717              0.2159000756D-10
   current occupation vector 
     3  1  1  0  2  0  0  0
     3  1  1  0  2  0  0  0
  processed                   8099  ao basis integrals from 
                    14  buffers.
  processed                  34594  ao basis integrals from 
                    58  buffers.
  processed                  55130  ao basis integrals from 
                    92  buffers.
      24          -108.988120822785604              0.1594613330D-11
   current occupation vector 
     3  1  1  0  2  0  0  0
     3  1  1  0  2  0  0  0
 
 sum over diagonal and offdiagdiagonal of C(T)*S*C for irrep
                     1
 -3.619327060278010E-014 -1.168483168372092E-014
 reorthoganalization of MOs is carried out
 sum over diagonal and offdiagdiagonal of C(T)*S*C for irrep
                     1
  2.220446049250313E-016  2.165138892629050E-015
 
 sum over diagonal and offdiagdiagonal of C(T)*S*C for irrep
                     2
 -2.886579864025407E-015 -3.303038498399599E-015
 reorthoganalization of MOs is carried out
 sum over diagonal and offdiagdiagonal of C(T)*S*C for irrep
                     2
 -4.440892098500626E-016  8.306486991731392E-016
 
 sum over diagonal and offdiagdiagonal of C(T)*S*C for irrep
                     3
  5.773159728050814E-015  6.046222789167335E-015
 reorthoganalization of MOs is carried out
 sum over diagonal and offdiagdiagonal of C(T)*S*C for irrep
                     3
  2.220446049250313E-016 -7.222912975966283E-016
 
 sum over diagonal and offdiagdiagonal of C(T)*S*C for irrep
                     4
 -3.441691376337985E-015 -2.371965407539181E-015
 reorthoganalization of MOs is carried out
 sum over diagonal and offdiagdiagonal of C(T)*S*C for irrep
                     4
  0.000000000000000E+000  1.308214148107569E-016
 
 sum over diagonal and offdiagdiagonal of C(T)*S*C for irrep
                     5
 -5.802025526691068E-013  5.064699578653298E-013
 reorthoganalization of MOs is carried out
 sum over diagonal and offdiagdiagonal of C(T)*S*C for irrep
                     5
  1.286748485540556E-013 -1.689734586963567E-014
 
 sum over diagonal and offdiagdiagonal of C(T)*S*C for irrep
                     6
  4.440892098500626E-015 -2.618181180988184E-015
 reorthoganalization of MOs is carried out
 sum over diagonal and offdiagdiagonal of C(T)*S*C for irrep
                     6
  1.665334536937735E-015 -1.562569332186077E-016
 
 sum over diagonal and offdiagdiagonal of C(T)*S*C for irrep
                     7
 -1.021405182655144E-014 -1.287893378771184E-014
 reorthoganalization of MOs is carried out
 sum over diagonal and offdiagdiagonal of C(T)*S*C for irrep
                     7
 -1.443289932012704E-015  4.372856886835043E-016
 
 sum over diagonal and offdiagdiagonal of C(T)*S*C for irrep
                     8
 -5.884182030513330E-015 -7.866366136561511E-016
 reorthoganalization of MOs is carried out
 sum over diagonal and offdiagdiagonal of C(T)*S*C for irrep
                     8
  0.000000000000000E+000  7.303259127368869E-017
  processed                   8099  ao basis integrals from 
                    14  buffers.
  processed                  34594  ao basis integrals from 
                    58  buffers.
  processed                  55130  ao basis integrals from 
                    92  buffers.
      25          -108.988120822785660              0.2374211938D-11
   current occupation vector 
     3  1  1  0  2  0  0  0
     3  1  1  0  2  0  0  0
  processed                   8099  ao basis integrals from 
                    14  buffers.
  processed                  34594  ao basis integrals from 
                    58  buffers.
  processed                  55130  ao basis integrals from 
                    92  buffers.
      26          -108.988120822785604              0.2021105505D-11
   current occupation vector 
     3  1  1  0  2  0  0  0
     3  1  1  0  2  0  0  0
  processed                   8099  ao basis integrals from 
                    14  buffers.
  processed                  34594  ao basis integrals from 
                    58  buffers.
  processed                  55130  ao basis integrals from 
                    92  buffers.
      27          -108.988120822785746              0.6859512958D-12
   current occupation vector 
     3  1  1  0  2  0  0  0
     3  1  1  0  2  0  0  0
  processed                   8099  ao basis integrals from 
                    14  buffers.
  processed                  34594  ao basis integrals from 
                    58  buffers.
  processed                  55130  ao basis integrals from 
                    92  buffers.
      28          -108.988120822785717              0.9199307982D-12
   current occupation vector 
     3  1  1  0  2  0  0  0
     3  1  1  0  2  0  0  0
  processed                   8099  ao basis integrals from 
                    14  buffers.
  processed                  34594  ao basis integrals from 
                    58  buffers.
  processed                  55130  ao basis integrals from 
                    92  buffers.
      29          -108.988120822785660              0.2334410443D-11
   current occupation vector 
     3  1  1  0  2  0  0  0
     3  1  1  0  2  0  0  0
 
 sum over diagonal and offdiagdiagonal of C(T)*S*C for irrep
                     1
 -1.321165399303936E-014  2.903823574224902E-015
 reorthoganalization of MOs is carried out
 sum over diagonal and offdiagdiagonal of C(T)*S*C for irrep
                     1
 -7.771561172376096E-016  2.198583100268128E-015
 
 sum over diagonal and offdiagdiagonal of C(T)*S*C for irrep
                     2
 -3.330669073875470E-016 -5.411487597880758E-016
 reorthoganalization of MOs is carried out
 sum over diagonal and offdiagdiagonal of C(T)*S*C for irrep
                     2
 -8.881784197001252E-016  1.408303892909447E-016
 
 sum over diagonal and offdiagdiagonal of C(T)*S*C for irrep
                     3
 -8.881784197001252E-015  3.876009802802697E-015
 reorthoganalization of MOs is carried out
 sum over diagonal and offdiagdiagonal of C(T)*S*C for irrep
                     3
 -2.220446049250313E-016  6.858247034238608E-016
 
 sum over diagonal and offdiagdiagonal of C(T)*S*C for irrep
                     4
 -9.992007221626409E-016 -1.929434891539859E-015
 reorthoganalization of MOs is carried out
 sum over diagonal and offdiagdiagonal of C(T)*S*C for irrep
                     4
  1.110223024625157E-016 -3.152746054229521E-016
 
 sum over diagonal and offdiagdiagonal of C(T)*S*C for irrep
                     5
 -4.000133557724439E-013  4.935101183403404E-013
 reorthoganalization of MOs is carried out
 sum over diagonal and offdiagdiagonal of C(T)*S*C for irrep
                     5
 -2.409183963436590E-014 -1.867259133575376E-015
 
 sum over diagonal and offdiagdiagonal of C(T)*S*C for irrep
                     6
  5.218048215738236E-015  3.262410379997471E-015
 reorthoganalization of MOs is carried out
 sum over diagonal and offdiagdiagonal of C(T)*S*C for irrep
                     6
 -6.661338147750939E-016 -1.352486431058616E-015
 
 sum over diagonal and offdiagdiagonal of C(T)*S*C for irrep
                     7
 -9.658940314238862E-015 -1.185781082955625E-014
 reorthoganalization of MOs is carried out
 sum over diagonal and offdiagdiagonal of C(T)*S*C for irrep
                     7
 -7.771561172376096E-016 -2.702929493796494E-016
 
 sum over diagonal and offdiagdiagonal of C(T)*S*C for irrep
                     8
 -5.773159728050814E-015 -1.284645004299731E-015
 reorthoganalization of MOs is carried out
 sum over diagonal and offdiagdiagonal of C(T)*S*C for irrep
                     8
  0.000000000000000E+000  3.201105353617048E-016
  processed                   8099  ao basis integrals from 
                    14  buffers.
  processed                  34594  ao basis integrals from 
                    58  buffers.
  processed                  55130  ao basis integrals from 
                    92  buffers.
      30          -108.988120822785689              0.2978228775D-11
   current occupation vector 
     3  1  1  0  2  0  0  0
     3  1  1  0  2  0  0  0
  processed                   8099  ao basis integrals from 
                    14  buffers.
  processed                  34594  ao basis integrals from 
                    58  buffers.
  processed                  55130  ao basis integrals from 
                    92  buffers.
      31          -108.988120822785746              0.1876998557D-11
   current occupation vector 
     3  1  1  0  2  0  0  0
     3  1  1  0  2  0  0  0
  processed                   8099  ao basis integrals from 
                    14  buffers.
  processed                  34594  ao basis integrals from 
                    58  buffers.
  processed                  55130  ao basis integrals from 
                    92  buffers.
      32          -108.988120822785774              0.2278899291D-11
   current occupation vector 
     3  1  1  0  2  0  0  0
     3  1  1  0  2  0  0  0
  processed                   8099  ao basis integrals from 
                    14  buffers.
  processed                  34594  ao basis integrals from 
                    58  buffers.
  processed                  55130  ao basis integrals from 
                    92  buffers.
      33          -108.988120822785774              0.3582689700D-12
   current occupation vector 
     3  1  1  0  2  0  0  0
     3  1  1  0  2  0  0  0
  processed                   8099  ao basis integrals from 
                    14  buffers.
  processed                  34594  ao basis integrals from 
                    58  buffers.
  processed                  55130  ao basis integrals from 
                    92  buffers.
      34          -108.988120822785604              0.1581068609D-11
   current occupation vector 
     3  1  1  0  2  0  0  0
     3  1  1  0  2  0  0  0
 
 sum over diagonal and offdiagdiagonal of C(T)*S*C for irrep
                     1
 -7.216449660063518E-015  7.722834199546298E-015
 reorthoganalization of MOs is carried out
 sum over diagonal and offdiagdiagonal of C(T)*S*C for irrep
                     1
  3.330669073875470E-016  1.600565098950179E-015
 
 sum over diagonal and offdiagdiagonal of C(T)*S*C for irrep
                     2
  7.105427357601002E-015  1.134701301784054E-015
 reorthoganalization of MOs is carried out
 sum over diagonal and offdiagdiagonal of C(T)*S*C for irrep
                     2
  1.110223024625157E-016 -6.464482863577471E-016
 
 sum over diagonal and offdiagdiagonal of C(T)*S*C for irrep
                     3
 -5.773159728050814E-015  5.908240919396920E-015
 reorthoganalization of MOs is carried out
 sum over diagonal and offdiagdiagonal of C(T)*S*C for irrep
                     3
 -2.220446049250313E-016 -5.156771117368043E-016
 
 sum over diagonal and offdiagdiagonal of C(T)*S*C for irrep
                     4
 -5.329070518200751E-015 -1.174456501001479E-015
 reorthoganalization of MOs is carried out
 sum over diagonal and offdiagdiagonal of C(T)*S*C for irrep
                     4
 -2.220446049250313E-016  2.664051886990979E-016
 
 sum over diagonal and offdiagdiagonal of C(T)*S*C for irrep
                     5
 -5.047073869945962E-013  4.069356168805540E-013
 reorthoganalization of MOs is carried out
 sum over diagonal and offdiagdiagonal of C(T)*S*C for irrep
                     5
  7.416289804496046E-014  4.567873967540648E-014
 
 sum over diagonal and offdiagdiagonal of C(T)*S*C for irrep
                     6
 -9.436895709313831E-015 -2.201251212917956E-015
 reorthoganalization of MOs is carried out
 sum over diagonal and offdiagdiagonal of C(T)*S*C for irrep
                     6
  1.998401444325282E-015 -1.543177023532829E-016
 
 sum over diagonal and offdiagdiagonal of C(T)*S*C for irrep
                     7
 -9.325873406851315E-015 -9.060994832379214E-015
 reorthoganalization of MOs is carried out
 sum over diagonal and offdiagdiagonal of C(T)*S*C for irrep
                     7
 -4.440892098500626E-016 -5.258212911264520E-015
 
 sum over diagonal and offdiagdiagonal of C(T)*S*C for irrep
                     8
 -4.884981308350689E-015 -1.187303192526242E-015
 reorthoganalization of MOs is carried out
 sum over diagonal and offdiagdiagonal of C(T)*S*C for irrep
                     8
  3.330669073875470E-016  8.816669530216400E-017
  processed                   8099  ao basis integrals from 
                    14  buffers.
  processed                  34594  ao basis integrals from 
                    58  buffers.
  processed                  55130  ao basis integrals from 
                    92  buffers.
      35          -108.988120822785660              0.1179112363D-11
   current occupation vector 
     3  1  1  0  2  0  0  0
     3  1  1  0  2  0  0  0
  processed                   8099  ao basis integrals from 
                    14  buffers.
  processed                  34594  ao basis integrals from 
                    58  buffers.
  processed                  55130  ao basis integrals from 
                    92  buffers.
      36          -108.988120822785945              0.2439159985D-12
   current occupation vector 
     3  1  1  0  2  0  0  0
     3  1  1  0  2  0  0  0
  processed                   8099  ao basis integrals from 
                    14  buffers.
[...]
        T2        AA    0.0000000041 0.0000052002    4    3   51   44
        T2        AB    0.0000000032-0.0000107193    3    4   51   44
    -------------------------------------------------------------------
   The AA contribution to the correlation energy is:   -0.0394685 a.u.
   The AB contribution to the correlation energy is:   -0.2919444 a.u.
   The total correlation energy is -0.370881480752 a.u.
   The total correlation energy is -0.370881480752 a.u.
  Current DIIS expansion coefficients : 
 [   1]-0.1990919190 [   2] 1.2466221549 [   3]-0.0019260890 [   4] 0.0138756288
 [   5]-0.0594797757
  Convergence information after     7 iterations: 
  Largest element of residual vector : -0.10719303E-04.
  Largest element of DIIS residual   : -0.40888793E-05.
  W(mnij) AB contribution =  0.0636263850 a.u.
  W(abef) AB contribution =  0.0859668886 a.u.
  W(mbej) AB contribution = -0.1968021642 a.u.
   After   8 iterations, amplitude changes are:
    -------------------------------------------------------------------
                 Spin      RMS          Max.      Max. change for
     Amplitude   Case     Change       Change       i    j    a    b
    -------------------------------------------------------------------
        T1        AA    0.0000000589 0.0000021182    2         6
        T2        AA    0.0000000008 0.0000005970    4    3   51   44
        T2        AB    0.0000000007 0.0000017038    4    4   51   51
    -------------------------------------------------------------------
   The AA contribution to the correlation energy is:   -0.0394673 a.u.
   The AB contribution to the correlation energy is:   -0.2919471 a.u.
   The total correlation energy is -0.370881637130 a.u.
   The total correlation energy is -0.370881637130 a.u.
  Current DIIS expansion coefficients : 
 [   1]-0.0273268034 [   2]-0.1489208460 [   3] 1.1608576478 [   4] 0.0006959797
 [   5] 0.0146940219
  Convergence information after     8 iterations: 
  Largest element of residual vector :  0.21181715E-05.
  Largest element of DIIS residual   :  0.11481610E-05.
  W(mnij) AB contribution =  0.0636251172 a.u.
  W(abef) AB contribution =  0.0859650309 a.u.
  W(mbej) AB contribution = -0.1967978119 a.u.
   After   9 iterations, amplitude changes are:
    -------------------------------------------------------------------
                 Spin      RMS          Max.      Max. change for
     Amplitude   Case     Change       Change       i    j    a    b
    -------------------------------------------------------------------
        T1        AA    0.0000000145 0.0000002411    2         6
        T2        AA    0.0000000003 0.0000002265    4    3   51   44
        T2        AB    0.0000000002-0.0000006682    3    3   44   44
    -------------------------------------------------------------------
   The AA contribution to the correlation energy is:   -0.0394675 a.u.
   The AB contribution to the correlation energy is:   -0.2919470 a.u.
   The total correlation energy is -0.370882039824 a.u.
   The total correlation energy is -0.370882039824 a.u.
  Current DIIS expansion coefficients : 
 [   1] 0.0046576231 [   2]-0.0463040612 [   3] 0.0845570174 [   4] 0.9574594938
 [   5]-0.0003700731
  Convergence information after     9 iterations: 
  Largest element of residual vector : -0.66819608E-06.
  Largest element of DIIS residual   :  0.30049128E-06.
  W(mnij) AB contribution =  0.0636256109 a.u.
  W(abef) AB contribution =  0.0859656413 a.u.
  W(mbej) AB contribution = -0.1967995595 a.u.
   After  10 iterations, amplitude changes are:
    -------------------------------------------------------------------
                 Spin      RMS          Max.      Max. change for
     Amplitude   Case     Change       Change       i    j    a    b
    -------------------------------------------------------------------
        T1        AA    0.0000000055 0.0000002028    2         6
        T2        AA    0.0000000001 0.0000000974    4    3   51   44
        T2        AB    0.0000000000-0.0000000870    5    5   51   51
    -------------------------------------------------------------------
   The AA contribution to the correlation energy is:   -0.0394674 a.u.
   The AB contribution to the correlation energy is:   -0.2919471 a.u.
   The total correlation energy is -0.370881938545 a.u.
   The total correlation energy is -0.370881938545 a.u.
  Current DIIS expansion coefficients : 
 [   1] 0.0029325358 [   2]-0.0044714743 [   3]-0.0385193792 [   4]-0.1562178308
 [   5] 1.1962761485
  Convergence information after    10 iterations: 
  Largest element of residual vector :  0.20284829E-06.
  Largest element of DIIS residual   :  0.13328299E-06.
   Largest T1 amplitudes for spin case AA:
   i       a                 i       a                 i       a    
-----------------------------------------------------------------------------
[  4      23    ] 0.01936 [  3      17    ] 0.01936 [  4      25    ] 0.01300
[  3      19    ] 0.01300 [  4      24    ] 0.01153 [  3      18    ] 0.01153
[  5      34    ] 0.01114 [  2       6    ]-0.01100 [  5      33    ]-0.00577
[  4      27    ] 0.00437 [  3      21    ] 0.00437 [  2      11    ]-0.00297
[  1       6    ]-0.00286 [  1      11    ] 0.00276 [  5      37    ] 0.00268
-----------------------------------------------------------------------------
   Norm of T1AA vector (       46 symmetry allowed elements):  0.0415551159.
-----------------------------------------------------------------------------
   Largest T2 amplitudes for spin case AB:
       _       _                 _       _                 _       _
   i   j   a   b             i   j   a   b             i   j   a   b
-----------------------------------------------------------------------------
[  4   4  51  51]-0.08991 [  3   3  44  44]-0.08991 [  4   3  51  44]-0.05641
[  3   4  44  51]-0.05641 [  4   4  52  51]-0.04312 [  4   4  51  52]-0.04312
[  3   3  45  44]-0.04312 [  3   3  44  45]-0.04312 [  5   5  44  44]-0.04142
[  5   5  51  51]-0.04142 [  4   3  52  44]-0.02714 [  3   4  44  52]-0.02714
[  4   3  51  45]-0.02714 [  3   4  45  51]-0.02714 [  2   2  51  51]-0.02604
-----------------------------------------------------------------------------
   Norm of T2AB vector (    10115 symmetry allowed elements):  0.3184679081.
-----------------------------------------------------------------------------
  W(mnij) AB contribution =  0.0636256564 a.u.
  W(abef) AB contribution =  0.0859656635 a.u.
  W(mbej) AB contribution = -0.1967997390 a.u.
   After  11 iterations, amplitude changes are:
    -------------------------------------------------------------------
                 Spin      RMS          Max.      Max. change for
     Amplitude   Case     Change       Change       i    j    a    b
    -------------------------------------------------------------------
        T1        AA    0.0000000015 0.0000000454    2         6
        T2        AA    0.0000000000 0.0000000257    4    3   51   44
        T2        AB    0.0000000000-0.0000000604    3    3   44   44
    -------------------------------------------------------------------
   The AA contribution to the correlation energy is:   -0.0394674 a.u.
   The AB contribution to the correlation energy is:   -0.2919471 a.u.
   The total correlation energy is -0.370881979368 a.u.
   The total correlation energy is -0.370881979368 a.u.
  Current DIIS expansion coefficients : 
 [   1] 1.1265895680 [   2] 0.0004436879 [   3] 0.0100938515 [   4]-0.0689473826
 [   5]-0.0681797248
  Convergence information after    11 iterations: 
  Largest element of residual vector : -0.60353924E-07.
  Largest element of DIIS residual   :  0.43566642E-07.
  W(mnij) AB contribution =  0.0636256978 a.u.
  W(abef) AB contribution =  0.0859657164 a.u.
  W(mbej) AB contribution = -0.1967998959 a.u.
   After  12 iterations, amplitude changes are:
    -------------------------------------------------------------------
                 Spin      RMS          Max.      Max. change for
     Amplitude   Case     Change       Change       i    j    a    b
    -------------------------------------------------------------------
        T1        AA    0.0000000004 0.0000000195    2         6
        T2        AA    0.0000000000 0.0000000031    4    3   51   44
        T2        AB    0.0000000000-0.0000000074    3    3   44   44
    -------------------------------------------------------------------
   The AA contribution to the correlation energy is:   -0.0394674 a.u.
   The AB contribution to the correlation energy is:   -0.2919471 a.u.
   The total correlation energy is -0.370881978152 a.u.
   The total correlation energy is -0.370881978152 a.u.
  Current DIIS expansion coefficients : 
 [   1]-0.3223340740 [   2] 1.3141158307 [   3]-0.0014954850 [   4] 0.0145944307
 [   5]-0.0048807023
  Convergence information after    12 iterations: 
  Largest element of residual vector :  0.19514689E-07.
  Largest element of DIIS residual   :  0.10381452E-07.
  W(mnij) AB contribution =  0.0636257022 a.u.
  W(abef) AB contribution =  0.0859657222 a.u.
  W(mbej) AB contribution = -0.1967999127 a.u.
   After  13 iterations, amplitude changes are:
    -------------------------------------------------------------------
                 Spin      RMS          Max.      Max. change for
     Amplitude   Case     Change       Change       i    j    a    b
    -------------------------------------------------------------------
        T1        AA    0.0000000001 0.0000000058    2         6
        T2        AA    0.0000000000-0.0000000004    5    3   44    8
        T2        AB    0.0000000000 0.0000000019    5    5   44   44
    -------------------------------------------------------------------
   The AA contribution to the correlation energy is:   -0.0394674 a.u.
   The AB contribution to the correlation energy is:   -0.2919471 a.u.
   The total correlation energy is -0.370881977873 a.u.
   The total correlation energy is -0.370881977873 a.u.
  Current DIIS expansion coefficients : 
 [   1] 0.0366271944 [   2]-0.3123364149 [   3] 1.2744612952 [   4] 0.0001814333
 [   5] 0.0010664919
  Convergence information after    13 iterations: 
  Largest element of residual vector :  0.57903412E-08.
  Largest element of DIIS residual   :  0.32061753E-08.
  Amplitude equations converged in    13iterations.
   The AA contribution to the correlation energy is:   -0.0394674 a.u.
   The AB contribution to the correlation energy is:   -0.2919471 a.u.
   The total correlation energy is -0.370881977811 a.u.
   The total correlation energy is -0.370881977811 a.u.
   The CC iterations have converged.

   Largest T1 amplitudes for spin case AA:
   i       a                 i       a                 i       a    
-----------------------------------------------------------------------------
[  4      23    ] 0.01936 [  3      17    ] 0.01936 [  4      25    ] 0.01300
[  3      19    ] 0.01300 [  4      24    ] 0.01153 [  3      18    ] 0.01153
[  5      34    ] 0.01114 [  2       6    ]-0.01100 [  5      33    ]-0.00577
[  4      27    ] 0.00437 [  3      21    ] 0.00437 [  2      11    ]-0.00297
[  1       6    ]-0.00286 [  1      11    ] 0.00276 [  5      37    ] 0.00268
-----------------------------------------------------------------------------
   Norm of T1AA vector (       46 symmetry allowed elements):  0.0415550737.
-----------------------------------------------------------------------------
   Largest T2 amplitudes for spin case AB:
       _       _                 _       _                 _       _
   i   j   a   b             i   j   a   b             i   j   a   b
-----------------------------------------------------------------------------
[  4   4  51  51]-0.08991 [  3   3  44  44]-0.08991 [  4   3  51  44]-0.05641
[  3   4  44  51]-0.05641 [  4   4  52  51]-0.04312 [  4   4  51  52]-0.04312
[  3   3  45  44]-0.04312 [  3   3  44  45]-0.04312 [  5   5  44  44]-0.04142
[  5   5  51  51]-0.04142 [  4   3  52  44]-0.02714 [  3   4  44  52]-0.02714
[  4   3  51  45]-0.02714 [  3   4  45  51]-0.02714 [  2   2  51  51]-0.02604
-----------------------------------------------------------------------------
   Norm of T2AB vector (    10115 symmetry allowed elements):  0.3184680351.
-----------------------------------------------------------------------------
       Summary of iterative solution of CC equations 
      -----------------------------------------------------------
                       Correlation           Total
       Iteration         Energy              Energy
      -----------------------------------------------------------
            0        -0.372516769757    -109.360637592543  DIIS 
            1        -0.355068132931    -109.343188955717  DIIS 
            2        -0.370531908048    -109.358652730833  DIIS 
            3        -0.369323105599    -109.357443928384  DIIS 
            4        -0.370812155932    -109.358932978718  DIIS 
            5        -0.370870333727    -109.358991156512  DIIS 
            6        -0.370881610779    -109.359002433565  DIIS 
            7        -0.370881480752    -109.359002303538  DIIS 
            8        -0.370881637130    -109.359002459916  DIIS 
            9        -0.370882039824    -109.359002862609  DIIS 
           10        -0.370881938545    -109.359002761331  DIIS 
           11        -0.370881979368    -109.359002802154  DIIS 
           12        -0.370881978152    -109.359002800937  DIIS 
           13        -0.370881977811    -109.359002800596  DIIS 
      -----------------------------------------------------------
      A miracle has come to pass. The CC iterations have converged.
 @DIMT3-I, Dimensions of T3 amplitudes : 
               # abc          # ijk       Symmetry    Spin 
                     3372              0     1          1
                     3302              1     2          1
                     3302              1     3          1
                     3180              2     4          1
                     3346              1     5          1
                     3276              2     6          1
                     3276              2     7          1
                     3181              1     8          1
                    10710              8     1          2
                    10230              7     2          2
                    10230              7     3          2
                     9702              6     4          2
                    10686              7     5          2
                    10206              6     6          2
                    10206              6     7          2
                     9705              3     8          2
                    10710              8     1          3
                    10230              7     2          3
                    10230              7     3          3
                     9702              6     4          3
                    10686              7     5          3
                    10206              6     6          3
                    10206              6     7          3
                     9705              3     8          3
                     3372              0     1          4
                     3302              1     2          4
                     3302              1     3          4
                     3180              2     4          4
                     3346              1     5          4
                     3276              2     6          4
                     3276              2     7          4
                     3181              1     8          4
 @DIMT3-I, Dimensions of T3 amplitudes : 
               # abc          # ijk       Symmetry    Spin 
                     3372              0     1          1
                     3302              1     2          1
                     3302              1     3          1
                     3180              2     4          1
                     3346              1     5          1
                     3276              2     6          1
                     3276              2     7          1
                     3181              1     8          1
                    10710              8     1          2
                    10230              7     2          2
                    10230              7     3          2
                     9702              6     4          2
                    10686              7     5          2
                    10206              6     6          2
                    10206              6     7          2
                     9705              3     8          2
                    10710              8     1          3
                    10230              7     2          3
                    10230              7     3          3
                     9702              6     4          3
                    10686              7     5          3
                    10206              6     6          3
                    10206              6     7          3
                     9705              3     8          3
                     3372              0     1          4
                     3302              1     2          4
                     3302              1     3          4
                     3180              2     4          4
                     3346              1     5          4
                     3276              2     6          4
                     3276              2     7          4
                     3181              1     8          4
 @TRPS-I, Welcome to TRPS. Watch your RUs ! 
 @TRPS-I, Method is CCSD(T) 
 @TRPS-I, Calculation type is energy 
 @TRPS-I, Reference function information : 
          Reference function is Hartree-Fock 
          Reference function is RHF Hartree-Fock 
 @TRPS-I, INT1 is true 
 @TRPS-I, INT2 is false 
 @TRPS-I, Lengths of ijka integrals. #1        367
                                     #2        367
                                     #3        964
                                     #4        964
                                    Max        964
 @INITRP-I, Initializing W intermediate lists. 
 @SETOOOV-I, Some OOOV lists are being transposed. 
 @TRPS-I, Available memory in integer words   1499959040
          Number of pre-allocated words for TRPS2        11012
          Number of free words for TRPS2   1499948028
 @TRPS2-I, Spin case AAB 
 @TRPS2-I, Number of free integer words 1499948028
           Number of free double  words 1499948028
           Ratio                                 1
 @TRPS2-I, E4TBAA      -0.009192714621
  @TRPS2-I, E4TAAA  -4.031686423837668E-004
 @TRPS2-I, E5ST A    0.000251627428135
 @TRPS2-I, E5ST B    0.000171166728332
 @SETOOOV-I, Some OOOV lists are being transposed. 
 @CCENRG-I, CCSD/QCISD energy will now be evaluated. 
 @CCENRG-I, Correlation energies. ECCAA       -0.039467423998
                                  ECCBB        0.000000000000
                                  ECCAB       -0.291947129814
                                  Total       -0.370881977811
 @CCENRG-I, Reference   energy    -108.988120822786
            CCSD/QCISD energy     -109.359002800596
          E4T (T(CCSD)) = -0.019191766527
          E5ST          =  0.000845588313
          E4ST          =  0.000000000000
          In other words  
          <T3[2](Dagger) D3  T3[2]> = -0.019191766527
          <T1   (Dagger) Q1 WT3[2]> =  0.000845588313
          <T2   (Dagger) Q2 FT3[2]> =  0.000000000000
        E(CCSD)           =    -109.359002800596
        E(CCSD + T(CCSD)) =    -109.378194567123
        E(CCSD(T))        =    -109.377348978810
  @CHECKOUT-I, Total execution time (CPU/WALL):        5.15/       0.69 seconds.
--executable xvcc finished with status     0 in        0.73 seconds (walltime).
  The final electronic energy is      -109.377348978810460 a.u. 
  This computation required                            6.07 seconds (walltime).
