 --invoking executable--
/home/nike/cfour_v2.00beta/cfour_v2.00beta/bin/xjoda


   *************************************************************************
         <<<     CCCCCC     CCCCCC   |||     CCCCCC     CCCCCC   >>>
       <<<      CCC        CCC       |||    CCC        CCC         >>>
      <<<      CCC        CCC        |||   CCC        CCC            >>>
    <<<        CCC        CCC        |||   CCC        CCC              >>>
      <<<      CCC        CCC        |||   CCC        CCC            >>>
       <<<      CCC        CCC       |||    CCC        CCC         >>>
         <<<     CCCCCC     CCCCCC   |||     CCCCCC     CCCCCC   >>>
   *************************************************************************

     ****************************************************************
     * CFOUR Coupled-Cluster techniques for Computational Chemistry *
     ****************************************************************
 

   Department of Chemistry                Institut fuer Physikalische Chemie
   University of Texas at Austin          Universitaet Mainz
   Austin, TX  78712, USA                 D-55099 Mainz, Germany
 
                       Version 2.00beta
 
                     blg9322.int.ets1.calculquebec.ca                  
                     Mi 26. Feb 00:03:11 EST 2020                      
                     integer*8 version is running
 
********************************************************************************
*                          Input from ZMAT file                                *
********************************************************************************
TITLE                                                                           
C   1                                                                           
C   1 RCC                                                                       
C   2 RCC  1 120                                                                
C   3 RCC  2 120  1   0                                                         
C   4 RCC  3 120  2   0                                                         
C   1 RCC  2 120  3   0                                                         
F   1 RCF  2 120  3 180                                                         
F   2 RCF  1 120  3 180                                                         
F   3 RCF  2 120  1 180                                                         
F   4 RCF  3 120  2 180                                                         
F   5 RCF  4 120  3 180                                                         
F   6 RCF  1 120  2 180                                                         
                                                                                
RCC=2.6475063006                                                                
RCF=2.50388711513                                                               
                                                                                
*ACES2(CALC=CCSD(T)                                                             
UNITS=BOHR                                                                      
#GEOM=1.401*10/5.29177210903_1.325*10/5.29177210903                             
#COORD=CARTESIAN                                                                
COORD=INTERNAL                                                                  
PRINT=4                                                                         
JODA_PRINT=4                                                                    
INPUT_MRCC=OFF                                                                  
#CC_PROG=MRCC                                                                   
#FROZEN_CORE=ON                                                                 
DROPMO=1>12                                                                     
CONTRACTION=GENERAL                                                             
#CONTRACTION=SEGMENTED                                                          
RELATIVISTIC=OFF                                                                
#EXCITE=EOMEE                                                                   
#ESTATE_CONV=5                                                                  
#ESTATE_SYM=2/2/2/2/2/2/2/2                                                     
XFORM_TOL=18                                                                    
SAVE_INTS=ON                                                                    
SCF_EXPORDER=6                                                                  
SCF_EXPSTART=5                                                                  
#SCF_DAMPING=1000                                                               
SCF_EXTRAPOLATION=ON                                                            
SCF_CONV=13                                                                     
SCF_MAXCYC=99999                                                                
CC_CONV=9                                                                       
CC_MAXCYC=999                                                                   
T3_EXTRAPOL=ON                                                                  
REFERENCE=RHF                                                                   
#SYMMETRY=OFF                                                                   
#HFSTABILITY=FOLLOW                                                             
CHARGE=+0                                                                       
MULT=1                                                                          
ABCDTYPE=STANDARD                                                               
#OCCUPATION=3-2-2-0-1-0-0-0/3-1-1-0-1-0-0-0                                     
MEM=12                                                                          
MEM_UNIT=GB                                                                     
BASIS=SPECIAL)                                                                  
                                                                                
C:def2-TZVPP                                                                    
C:def2-TZVPP                                                                    
C:def2-TZVPP                                                                    
C:def2-TZVPP                                                                    
C:def2-TZVPP                                                                    
C:def2-TZVPP                                                                    
F:def2-TZVPP                                                                    
F:def2-TZVPP                                                                    
F:def2-TZVPP                                                                    
F:def2-TZVPP                                                                    
F:def2-TZVPP                                                                    
F:def2-TZVPP                                                                    
                                                                                
********************************************************************************
  @GTFLGS-W, Keyword #GEOM not known and is ignored.
  @GTFLGS-W, Keyword #COORD not known and is ignored.
  @GTFLGS-W, Keyword #CC_PROG not known and is ignored.
  @GTFLGS-W, Keyword #FROZEN_CORE not known and is ignored.
  @GTFLGS-W, Keyword #CONTRACTION not known and is ignored.
  @GTFLGS-W, Keyword #EXCITE not known and is ignored.
  @GTFLGS-W, Keyword #ESTATE_CONV not known and is ignored.
  @GTFLGS-W, Keyword #ESTATE_SYM not known and is ignored.
  @GTFLGS-W, Keyword #SCF_DAMPING not known and is ignored.
  @GTFLGS-W, Keyword #SYMMETRY not known and is ignored.
  @GTFLGS-W, Keyword #HFSTABILITY not known and is ignored.
  @GTFLGS-W, Keyword #OCCUPATION not known and is ignored.
    -------------------------------------------------------------------
                    CFOUR Control Parameters 
    -------------------------------------------------------------------
        External           Internal           Value            Units
          Name               Name
    -------------------------------------------------------------------
       ABCDTYPE             IABCDT         STANDARD     [  0]   ***   
       ANHARMONIC           IANHAR         OFF          [  0]   ***   
       ANH_ALGORIT          IANALG         STANDARD     [  0]   ***   
       ANH_DERIVAT          IANDER         SECOND       [  1]   ***   
       ANH_STEPSIZ          ICUBST             50000          x 10-6  
       ANH_SYMMETR          IANHSM         ABELIAN      [  0]   ***   
       AO_LADDERS           IAOLAD         SINGLEPASS   [  1]   ***   
       BASIS                IBASIS         SPECIAL      [  0]   ***   
       BREIT                IBREIT         OFF          [  0]   ***   
       BRUCK_CONV           IBRTOL          10D-  4             ***   
       BRUECKNER            IBRKNR             OFF      [  0]   ***   
       BUFFERSIZE           IBUFFS            600               ***   
       CACHE_RECS           ICHREC             10               ***   
       CALCLEVEL            ICLLVL           CCSD(T)    [ 22]   ***   
       CCORBOPT             ICCORB             OFF      [  0] x 0.01  
       CC_CONV              ICCCNV          10D-  9             ***   
       CC_EXPORDER          ICCEOR              5               ***   
       CC_EXTRAPOL          ICCEXT             DIIS     [  1]   ***   
       CC_MAXCYC            ICCCYC            999              cycles 
       CC_PROGRAM           ICCPRO         VCC          [  0]   ***   
       CHARGE               ICHRGE              0               ***   
       CHOLESKY             ICHOLE         OFF          [  0]   ***   
       CIS_CONV             ICISTL              5               ***   
       COMM_SIZE            IPSIZE            ***               ***   
       CONSTANT             ICONST         OLD          [  1]   ***   
       CONTINUUM            ICONTU         NONE         [  0]   ***   
       CONTRACTION          ICNTYP          GENERAL     [  1]   ***   
       COORDINATES          ICOORD         INTERNAL     [  0]   ***   
       CPHF_CONVER          ICPHFT          10D- 16             ***   
       CPHF_MAXCYC          ICPHFC             64              cycles 
       CUBIC                ICUBIC         OFF          [  0]   ***   
       CURVILINEAR          ICURVY            OFF       [  0]   ***   
       DBOC                 IDBOC          OFF          [  0]   ***   
       DCT                  IDCT           OFF          [  0]   ***   
       DERIV_LEV            IDRLVL            ZERO      [  0]   ***   
       DIAG_MRCC            IEOMST          10D-  0             ***   
       DIFF_TYPE            IDIFTY         RELAXED      [  0]   ***   
       DIRECT               IDIRCT         OFF          [  0]   ***   
       DROPMO               IDRPMO   1,  2,  3,  4,  5,  6,  7,  8,
                                     9, 10, 11, 12,
       ECP                  IECP           OFF          [  0]   ***   
       EIGENVECTOR          IVEC                1               ***   
       EL_ANHARM            IELANH         OFF          [  0]   ***   
       EOMFOLLOW            IEOMSR         ENERGY       [  0]   ***   
       EOM_MRCC             IMRCCE         NEW          [  1]   ***   
       EOM_NONIT            EOMNON         OFF          [  0]   ***   
       EOM_NSING            IEOMSI          10D-  0             ***   
       EOM_NSTATES          IMRCCD         DAVIDSON     [  0]   ***   
       EOM_NTRIP            IEOMTR          10D-  0             ***   
       EOM_ORDER            IEXORD         ENERGY       [  0]   ***   
       ESTATE_CONV          IEXTOL          10D-  5             ***   
       ESTATE_DIAG          IEXDIG         ITERATIVE    [  0]   ***   
       ESTATE_LOCK          IESLOC         ON           [  1]   ***   
       ESTATE_MAXC          IEXMXC             20               ***   
       ESTATE_PROP          IEXPRP         OFF          [  0]   ***   
       EVAL_HESS            IRECAL              0            # of cyc.
       EXCITATION           IEXCIT              0               ***   
       EXCITE               IEXCIT         NONE         [  0]   ***   
       FCGRADNEW            IFCGNW         OFF          [  0]   ***   
       FC_FIELD             IFINFC              0             x 10-6  
       FD_CALTYPE           IFDCAL         GRADONLY     [  0]   ***   
       FD_PROJECT           IFDPRJ         OFF          [  1]   ***   
       FD_STEPSIZE          IDISFD              0            10-4 bohr
       FD_USEGROUP          IFDGRP         FULL         [  0]   ***   
       FILE_RECSIZ          IFLREC              4096           words  
       FINITE_PERT          IFIPER              0             x 10-6  
       FIXGEOM              IFIXGM         OFF          [  0]   ***   
       FOCK                 IFOCK          AO           [  1]   ***   
       FREQ_ALGORI          IVIALG         STANDARD     [  0]   ***   
       FROZEN_CORE          IFROCO         OFF          [  0]   ***   
       FROZEN_VIRT          IFROVI         OFF          [  0]   ***   
       GAMMA_ABCD           IGABCD         STORE        [  0]   ***   
       GAMMA_ABCI           IGABCI         STORE        [  0]   ***   
       GENBAS_1             IGNBS1              0               ***   
       GENBAS_2             IGNBS2              0               ***   
       GENBAS_3             IGNBS3              0               ***   
       GENBAS_4             IGNBS4              0               ***   
       GEO_CONV             ICONTL              5              H/bohr 
       GEO_MAXCYC           IOPTCY             50               ***   
       GEO_MAXSTEP          IMXSTP            300            millibohr
       GEO_METHOD           INR            SINGLE_POINT [  5]   ***   
       GIAO                 IGIAO          OFF          [  1]   ***   
       GIMIC                IGIMIC         OFF          [  0]   ***   
       GRID                 IGRID          OFF          [  0]   ***   
       GRID_ALGO            IGALGO         SERIAL       [  0]   ***   
       GUESS                IGUESS            MOREAD    [  0]   ***   
       HBAR                 IHBAR              OFF      [  0]   ***   
       HESS_TYPE            IHESTP         SCF          [  0]   ***   
       HF2_FILE             IHF2Fl         USE          [  1]   ***   
       HFSTABILITY          ISTABL         OFF          [  0]   ***   
       INCORE               INCORE             OFF      [  0]   ***   
       INPUT_MRCC           IMRCC          OFF          [  0]   ***   
       INTEGRALS            INTTYP             VMOL     [  1]   ***   
       JODA_PRINT           IJPRNT              4               ***   
       LINDEP_TOL           ILINDP              8               ***   
       LINEQ_CONV           IZTACN          10D-  7           cycles  
       LINEQ_EXPOR          ILMAXD              5               ***   
       LINEQ_MAXCY          ILMAXC             50               ***   
       LINEQ_TYPE           ILTYPE         DIIS         [  1]   ***   
       LOCK_ORBOCC          ILOCOC             OFF      [  0]   ***   
       MEMORY_SIZE          IMEMSZ         *********           words  
       MEM_UNIT             IMEMU          GB           [  3]   ***   
       MRCC                 IMRCCC         OFF          [  0]   ***   
       MULTIPLICTY          IMULTP              1               ***   
       NEGEVAL              IDIE             ABORT      [  0]   ***   
       NEWNORM              INEWNO         OFF          [  0]   ***   
       NON-HF               INONHF             OFF      [  0]   ***   
       NTOP_TAMP            ITOPT2             15               ***   
       NUC_MODEL            INUCMO         POINT        [  0]   ***   
       OCCUPATION           IOCCU   ESTIMATED BY SCF 
       OPEN-SHELL           IOPEN          SPIN-ORBITAL [  0]   ***   
       ORBITALS             IORBTP           STANDARD   [  0]   ***   
       PARALLEL             IPARAL         ON           [  1]   ***   
       PARA_INT             IPINTS         ON           [  1]   ***   
       PARA_PRINT           IPPRIN              0               ***   
       PERT_ORB             IPTORB         STANDARD     [  0]   ***   
       POINTS               IGRDFD              0               ***   
       PRINT                IPRNT               4               ***   
       PROPS                IPROPS             OFF      [  0]   ***   
       PROP_INTEGR          IINTYP         INTERNAL     [  0]   ***   
       PSI                  IPSI           OFF          [  0]   ***   
       QUARTIC              IQUART         OFF          [  0]   ***   
       RAMAN_INT            IRAMIN         OFF          [  0]   ***   
       RAMAN_ORB            IRAMRE         UNRELAXED    [  0]   ***   
       RDO                  IRDOFM             OFF      [  0]   ***   
       REFERENCE            IREFNC             RHF      [  0]   ***   
       RELATIVIST           IRELAT         OFF          [  0]   ***   
       RELAX_DENS           IRDENS             OFF      [  0]   ***   
       RESET_FLAGS          IRESET             OFF      [  0]   ***   
       RESTART_CC           ICCRES         OFF          [  0]   ***   
       ROT_EVEC             ROTVEC              0               ***   
       SAVE_INTS            ISVINT              ON      [  1]   ***   
       SCALE_ON             ISTCRT              0               ***   
       SCF_CONV             ISCFCV          10D- 13             ***   
       SCF_DAMPING          IDAMP               0             x 10-3  
       SCF_EXPORDE          IRPPOR              6               ***   
       SCF_EXPSTAR          IRPPLS              5               ***   
       SCF_EXTRAPO          IRPP                ON      [  1]   ***   
       SCF_MAXCYC           ISCFCY            ***              cycles 
       SCF_NOSTOP           ISCFST         OFF          [  0]   ***   
       SCF_PRINT            ISCFPR              0               ***   
       SD_FIELD             IFINSD              0             x 10-6  
       SEQUENCE             ISEQUE         OFF          [  0]   ***   
       SOPERT               IPERSO         OFF          [  0]   ***   
       SPHERICAL            IDFGHI             ON       [  1]   ***   
       SPINORBIT            ISOCAL         OFF          [  0]   ***   
       SPINROTATIO          ISRCON         OFF          [  0]   ***   
       SPIN_FLIP            ISPFLP         OFF          [  0]   ***   
       SPIN_ORBIT           ISPORB         OFF          [  0]   ***   
       SPIN_SCAL            ISCSMP         OFF          [  0]   ***   
       SUBGROUP             ISUBGP         DEFAULT      [  0]   ***   
       SUBGRPAXIS           ISBXYZ         X            [  0]   ***   
       SYMMETRY             ISYM             ON         [  0]   ***   
       SYM_CHECK            ISYMCK         OVERRIDE     [  1]   ***   
       T3_EXTRAPOL          IT3EXT         ON           [  1]   ***   
       TAMP_SUM             IEVERY              5               ***   
       TESTSUITE            ITESTS         OFF          [  0]   ***   
       THERMOCH             ITHERM         OFF          [  0]   ***   
       TOL_CHOLESK          ITOLCH          10D-  4             ***   
       TRANGRAD             IRESRM         OFF          [  0]   ***   
       TRANS_INV            ITRAIN         USE          [  0]   ***   
       TREAT_PERT           ITREAT         SIMULTANEOUS [  0]   ***   
       UIJ_THRESHO          IUIJTH              1               ***   
       UNITS                IUNITS         BOHR         [  1]   ***   
       UNOS                 IUNOS          OFF          [  0]   ***   
       UPDATE_HESS          IHUPDT         ON           [  1]   ***   
       VIBPHASE             ISETPH         STANDARD     [  0]   ***   
       VIBRATION            IVIB              NO        [  0]   ***   
       VIB_ALGORIT          IGEALG         STANDARD     [  0]   ***   
       VNATORB              IVNORB         OFF          [  0]   ***   
       VTRAN                IVTRAN         FULL/PARTIAL [  0]   ***   
       XFIELD               IXEFLD              0             x 10-6  
       XFORM_TOL            IXFTOL          10D- 18             ***   
       YFIELD               IYEFLD              0             x 10-6  
       ZFIELD               IZEFLD              0             x 10-6  
    -------------------------------------------------------------------
   1 entries found in Z-matrix 
   Job Title : TITLE                                                                           
  1  C          6    12.00000
   12.0000000000
 After translation to center of mass coordinates 
        0.000000000000    0.000000000000    0.000000000000
  Inertia tensor (amu*bohr**2)
    0.00000    0.00000    0.00000
    0.00000    0.00000    0.00000
    0.00000    0.00000    0.00000
    Inertia tensor:
        0.000000000000    0.000000000000    0.000000000000
        0.000000000000    0.000000000000    0.000000000000
        0.000000000000    0.000000000000    0.000000000000
    Principal axis orientation for molecular system: 
        0.000000000000    0.000000000000    0.000000000000
    Diagonalized inertia tensor:
        0.000000000000    0.000000000000    0.000000000000
        0.000000000000    0.000000000000    0.000000000000
        0.000000000000    0.000000000000    0.000000000000
    Eigenvectors of inertia tensor: 
        0.000000000000    0.000000000000   -1.000000000000
        0.000000000000    1.000000000000    0.000000000000
        1.000000000000    0.000000000000    0.000000000000
 factor:   60.1997200000000     
   Rotational constants (in cm-1): 

   Rotational constants (in MHz): 

  @SYMMETRY-I, Handedness of inertial frame: 1.00000
  @SYMMETRY-I, The symmetry group is 3-fold degenerate.
  @SYMMETRY-I, The molecule belongs to a cubic point group.
   Principal axis orientation for molecule:
        0.000000000000    0.000000000000    0.000000000000
   Reflection in plane  3 is a valid symmetry operation.
   Rotation about  3 is a valid symmetry operation 
   Reflection in plane  2 is a valid symmetry operation.
   Rotation about  2 is a valid symmetry operation 
   Reflection in plane  1 is a valid symmetry operation.
   Rotation about  1 is a valid symmetry operation 
   The molecule possesses an inversion center. 
  Symmetry bits:    7   7   1
********************************************************************************
   The full molecular point group is I h .
   The largest Abelian subgroup of the full molecular point group is D2h .
   The computational point group is D2h .
********************************************************************************
  @GTFLGS-W, Keyword #GEOM not known and is ignored.
  @GTFLGS-W, Keyword #COORD not known and is ignored.
  @GTFLGS-W, Keyword #CC_PROG not known and is ignored.
  @GTFLGS-W, Keyword #FROZEN_CORE not known and is ignored.
  @GTFLGS-W, Keyword #CONTRACTION not known and is ignored.
  @GTFLGS-W, Keyword #EXCITE not known and is ignored.
  @GTFLGS-W, Keyword #ESTATE_CONV not known and is ignored.
  @GTFLGS-W, Keyword #ESTATE_SYM not known and is ignored.
  @GTFLGS-W, Keyword #SCF_DAMPING not known and is ignored.
  @GTFLGS-W, Keyword #SYMMETRY not known and is ignored.
  @GTFLGS-W, Keyword #HFSTABILITY not known and is ignored.
  @GTFLGS-W, Keyword #OCCUPATION not known and is ignored.
  There are   31 basis functions.
 @GEOPT-W, Archive file not created for single-point calculation.
  @CHECKOUT-I, Total execution time (CPU/WALL):        0.46/      43.76 seconds.
--executable xjoda finished with status     0 in       44.97 seconds (walltime).
 --invoking executable--
/home/nike/cfour_v2.00beta/cfour_v2.00beta/bin/xvmol
 Serial version of molecule started
********************************************************************************
                    Input from MOL file
********************************************************************************
INTGRL        1    0    1    0    0    0    0    0    0                         
         *** CFOUR Program System (Release V0.1) ***                            
TITLE                                                                           
    1    3 X  Y   Z   0.10E-08              0    0                              
   9999.00      3.00                                                            
          6.00000000    1    4    1    1    1    1                              
C #1   0.000000000000000   0.000000000000000   0.000000000000000                
   11    5                                                                      
   13575.3496820000       2.224581435200000E-004  0.000000000000000E+000        
  0.000000000000000E+000  0.000000000000000E+000  0.000000000000000E+000        
   2035.23336800000       1.723273825200000E-003  0.000000000000000E+000        
  0.000000000000000E+000  0.000000000000000E+000  0.000000000000000E+000        
   463.225623590000       8.925571531400001E-003  0.000000000000000E+000        
  0.000000000000000E+000  0.000000000000000E+000  0.000000000000000E+000        
   131.200195980000       3.572798450200000E-002  0.000000000000000E+000        
  0.000000000000000E+000  0.000000000000000E+000  0.000000000000000E+000        
   42.8530158910000       0.110762599310000       0.000000000000000E+000        
  0.000000000000000E+000  0.000000000000000E+000  0.000000000000000E+000        
   15.5841857660000       0.242956276260000       0.000000000000000E+000        
  0.000000000000000E+000  0.000000000000000E+000  0.000000000000000E+000        
   6.20671385080000       0.000000000000000E+000  0.414402634480000             
  0.000000000000000E+000  0.000000000000000E+000  0.000000000000000E+000        
   2.57648965270000       0.000000000000000E+000  0.237449686550000             
  0.000000000000000E+000  0.000000000000000E+000  0.000000000000000E+000        
  0.576963394190000       0.000000000000000E+000  0.000000000000000E+000        
   1.00000000000000       0.000000000000000E+000  0.000000000000000E+000        
  0.229728313580000       0.000000000000000E+000  0.000000000000000E+000        
  0.000000000000000E+000   1.00000000000000       0.000000000000000E+000        
  9.516444002799999E-002  0.000000000000000E+000  0.000000000000000E+000        
  0.000000000000000E+000  0.000000000000000E+000   1.00000000000000             
    6    3                                                                      
   34.6972322440000       5.333365780500000E-003  0.000000000000000E+000        
  0.000000000000000E+000                                                        
   7.95826228260000       3.586410909200000E-002  0.000000000000000E+000        
  0.000000000000000E+000                                                        
   2.37808268830000       0.142158733290000       0.000000000000000E+000        
  0.000000000000000E+000                                                        
  0.814332081830000       0.342704718450000       0.000000000000000E+000        
  0.000000000000000E+000                                                        
  0.288875472530000       0.000000000000000E+000  0.464458224330000             
  0.000000000000000E+000                                                        
  0.100568236710000       0.000000000000000E+000  0.000000000000000E+000        
  0.249557898740000                                                             
    2    2                                                                      
   1.09700000000000        1.00000000000000       0.000000000000000E+000        
  0.318000000000000       0.000000000000000E+000   1.00000000000000             
    1    1                                                                      
  0.761000000000000        1.00000000000000                                     
FINISH                                                                          
 
********************************************************************************
 One- and two-electron integrals over symmetry-adapted AOs are calculated.

  Spherical harmonics are used.
  
   1 types of atoms
   3 symmetry operations

   Reflection in the YZ-plane
   Reflection in the XZ-plane
   Reflection in the XY-plane
  
  Integrals less than  0.10E-13 are neglected.

  Atomic type number  1 :
  -----------------------

    Nuclear charge:                        6
    number of symmetry independent atoms:  1
    highest orbital type:                  f

      1 groups of CGTOs of s type
      1 groups of CGTOs of p type
      1 groups of CGTOs of d type
      1 groups of CGTOs of f type

    nuclear coordinates (in a.u.) are :

    C #1        0.000000000000000        0.000000000000000        0.000000000000000
  
   Basis function not normalized: 
   Center (as ordered in MOL file):   1
   Angular Momentum type          : s
   Offset within angular momentum :  1
   <chi|chi>                      :    2.7261534527
   Basis function not normalized: 
   Center (as ordered in MOL file):   1
   Angular Momentum type          : s
   Offset within angular momentum :  2
   <chi|chi>                      :    1.5828883092
   Basis function not normalized: 
   Center (as ordered in MOL file):   1
   Angular Momentum type          : p
   Offset within angular momentum :  1
   <chi|chi>                      :    2.1238408295
   Basis function not normalized: 
   Center (as ordered in MOL file):   1
   Angular Momentum type          : p
   Offset within angular momentum :  2
   <chi|chi>                      :    2.1530461678
   Basis function not normalized: 
   Center (as ordered in MOL file):   1
   Angular Momentum type          : p
   Offset within angular momentum :  3
   <chi|chi>                      :    4.0070861513
   Internuclear distances (A) :

     for atom C #1 (coordinates :   0.00000   0.00000   0.00000)


   Group multiplication table :

         1   2   3   4   5   6   7   8
         2   1   4   3   6   5   8   7
         3   4   1   2   7   8   5   6
         4   3   2   1   8   7   6   5
         5   6   7   8   1   2   3   4
         6   5   8   7   2   1   4   3
         7   8   5   6   3   4   1   2
         8   7   6   5   4   3   2   1

   Gaussian basis information :

   atom                 exponent      coefficients

 C #1  1    S   
+                 1   13575.349682   0.0002225   0.0000000   0.0000000   0.0000000   0.0000000
                  2    2035.233368   0.0017233   0.0000000   0.0000000   0.0000000   0.0000000
                  3     463.225624   0.0089256   0.0000000   0.0000000   0.0000000   0.0000000
                  4     131.200196   0.0357280   0.0000000   0.0000000   0.0000000   0.0000000
                  5      42.853016   0.1107626   0.0000000   0.0000000   0.0000000   0.0000000
                  6      15.584186   0.2429563   0.0000000   0.0000000   0.0000000   0.0000000
                  7       6.206714   0.0000000   0.4144026   0.0000000   0.0000000   0.0000000
                  8       2.576490   0.0000000   0.2374497   0.0000000   0.0000000   0.0000000
                  9       0.576963   0.0000000   0.0000000   1.0000000   0.0000000   0.0000000
                 10       0.229728   0.0000000   0.0000000   0.0000000   1.0000000   0.0000000
                 11       0.095164   0.0000000   0.0000000   0.0000000   0.0000000   1.0000000

 C #1  1    X   
+                12      34.697232   0.0053334   0.0000000   0.0000000
                 13       7.958262   0.0358641   0.0000000   0.0000000
                 14       2.378083   0.1421587   0.0000000   0.0000000
                 15       0.814332   0.3427047   0.0000000   0.0000000
                 16       0.288875   0.0000000   0.4644582   0.0000000
                 17       0.100568   0.0000000   0.0000000   0.2495579

 C #1  1    Y   
+                18      34.697232   0.0053334   0.0000000   0.0000000
                 19       7.958262   0.0358641   0.0000000   0.0000000
                 20       2.378083   0.1421587   0.0000000   0.0000000
                 21       0.814332   0.3427047   0.0000000   0.0000000
                 22       0.288875   0.0000000   0.4644582   0.0000000
                 23       0.100568   0.0000000   0.0000000   0.2495579

 C #1  1    Z   
+                24      34.697232   0.0053334   0.0000000   0.0000000
                 25       7.958262   0.0358641   0.0000000   0.0000000
                 26       2.378083   0.1421587   0.0000000   0.0000000
                 27       0.814332   0.3427047   0.0000000   0.0000000
                 28       0.288875   0.0000000   0.4644582   0.0000000
                 29       0.100568   0.0000000   0.0000000   0.2495579

 C #1  1    XX  
+                30       1.097000   1.0000000   0.0000000
                 31       0.318000   0.0000000   1.0000000

 C #1  1    XY  
+                32       1.097000   1.0000000   0.0000000
                 33       0.318000   0.0000000   1.0000000

 C #1  1    XZ  
+                34       1.097000   1.0000000   0.0000000
                 35       0.318000   0.0000000   1.0000000

 C #1  1    YY  
+                36       1.097000   1.0000000   0.0000000
                 37       0.318000   0.0000000   1.0000000

 C #1  1    YZ  
+                38       1.097000   1.0000000   0.0000000
                 39       0.318000   0.0000000   1.0000000

 C #1  1    ZZ  
+                40       1.097000   1.0000000   0.0000000
                 41       0.318000   0.0000000   1.0000000

 C #1  1    F300
+                42       0.761000   1.0000000

 C #1  1    F210
+                43       0.761000   1.0000000

 C #1  1    F201
+                44       0.761000   1.0000000

 C #1  1    F120
+                45       0.761000   1.0000000

 C #1  1    F111
+                46       0.761000   1.0000000

 C #1  1    F102
+                47       0.761000   1.0000000

 C #1  1    F030
+                48       0.761000   1.0000000

 C #1  1    F021
+                49       0.761000   1.0000000

 C #1  1    F012
+                50       0.761000   1.0000000

 C #1  1    F003
+                51       0.761000   1.0000000
 36 31
  1  2  3  4  5  6  7  8  9****** 10 11 12 13 14*** 15 16 17 18 19*** 20 21
 22 23 24 25 26*** 27 28 29 30 31
1

             SYMMETRY TRANSFORMATION INFO
             31 SYMMETRY ADAPTED BASIS FUNCTIONS 


          irreducible representation number 1

    1    1  C #1     1s     1   1   1.0
    2    2  C #1     1s     1   2   1.0
    3    3  C #1     1s     1   3   1.0
    4    4  C #1     1s     1   4   1.0
    5    5  C #1     1s     1   5   1.0
    6    6  C #1     3d2-   3  15  -1.0  21  -1.0  25   2.0
    7    7  C #1     3d2-   3  16  -1.0  22  -1.0  26   2.0
    8    8  C #1     3d1+   2  15   1.0  21  -1.0
    9    9  C #1     3d1+   2  16   1.0  22  -1.0


          irreducible representation number 2

   10    1  C #1     2px    1   6   1.0
   11    2  C #1     2px    1   7   1.0
   12    3  C #1     2px    1   8   1.0
   13    4  C #1     4f3-   3  27  -1.0  30  -1.0  32   4.0
   14    5  C #1     4f0    2  27   1.0  30  -3.0


          irreducible representation number 3

   15    1  C #1     2py    1   9   1.0
   16    2  C #1     2py    1  10   1.0
   17    3  C #1     2py    1  11   1.0
   18    4  C #1     4f2-   3  28  -1.0  33  -1.0  35   4.0
   19    5  C #1     4f2+   2  28   3.0  33  -1.0


          irreducible representation number 4

   20    1  C #1     3d1-   1  17   1.0
   21    2  C #1     3d1-   1  18   1.0


          irreducible representation number 5

   22    1  C #1     2pz    1  12   1.0
   23    2  C #1     2pz    1  13   1.0
   24    3  C #1     2pz    1  14   1.0
   25    4  C #1     4f1-   3  29  -3.0  34  -3.0  36   2.0
   26    5  C #1     4f3+   2  29   1.0  34  -1.0


          irreducible representation number 6

   27    1  C #1     3d0    1  19   1.0
   28    2  C #1     3d0    1  20   1.0


          irreducible representation number 7

   29    1  C #1     3d2+   1  23   1.0
   30    2  C #1     3d2+   1  24   1.0


          irreducible representation number 8

   31    1  C #1     4f1+   1  31   1.0
  Nuclear repulsion energy :    0.0000000000 a.u.
  required memory for a1 array                5029908  words 
  required memory for a2 array                2103164  words 
 @GETMEM-I,  Allocated      69 MB of main memory.
  @MOLECU-I, One electron integrals (CPU/WALL):        0.02/       3.82 seconds.
  @TWOEL-I,        786 integrals of symmetry type  I I I I
  @TWOEL-I,       3845 integrals of symmetry type  I J I J
  @TWOEL-I,       2817 integrals of symmetry type  I I J J
  @TWOEL-I,       5820 integrals of symmetry type  I J K L
  @TWOEL-I, Total number of 2-e integrals      13268.
  @MOLECU-I, Two electron integrals (CPU/WALL):        0.03/      17.01 seconds.
  @CHECKOUT-I, Total execution time (CPU/WALL):        0.29/     129.54 seconds.
--executable xvmol finished with status     0 in      130.61 seconds (walltime).
 --invoking executable--
/home/nike/cfour_v2.00beta/cfour_v2.00beta/bin/xvmol2ja
 @GETMEM-I,  Allocated   11444 MB of main memory.
  @CHECKOUT-I, Total execution time (CPU/WALL):        0.01/       2.74 seconds.
--executable xvmol2ja finished with status     0 in        5.31 seconds (walltime).
 --invoking executable--
/home/nike/cfour_v2.00beta/cfour_v2.00beta/bin/xvscf
  There are   31 functions in the AO basis.

  There are 8 irreducible representations.

       Irrep        # of functions
         1                  9
         2                  5
         3                  5
         4                  2
         5                  5
         6                  2
         7                  2
         8                  1


  Parameters for SCF calculation: 
        SCF reference function:  RHF  
  Maximum number of iterations: ****
     Full symmetry point group: I h 
     Computational point group: D2h 
        Initial density matrix: MOREAD                 
     SCF convergence tolerance: 10**(-13)
  DIIS convergence acceleration:  ON
          Latest start for DIIS:   5
                     DIIS order:   6

  Memory information:      83197 words required.
  Fock matrices are constructed from AO integral file.
 @GETMEM-I,  Allocated       0 MB of main memory.
  Initialization and symmetry analysis required      0.028 seconds.

  @INITGES-I, Occupancies from core Hamiltonian:

          Alpha population by irrep:   2    0    1    0    0    0    0    0
           Beta population by irrep:   2    0    1    0    0    0    0    0


 total no. of electrons in initial guess :  0.000000000000000E+000
  --------------------------------------------------------------------
  Iteration         Total Energy            Largest Density Difference
  --------------------------------------------------------------------
       0             0.000000000000000              0.0000000000D+00
   current occupation vector 
     2  0  1  0  0  0  0  0
     2  0  1  0  0  0  0  0
  processed                    786  ao basis integrals from 
                     2  buffers.
  processed                   2817  ao basis integrals from 
                     5  buffers.
  processed                   3845  ao basis integrals from 
                     7  buffers.
       1           -35.388684794945078              0.3681837107D+01
   current occupation vector 
     2  0  1  0  0  0  0  0
     2  0  1  0  0  0  0  0
  processed                    786  ao basis integrals from 
                     2  buffers.
  processed                   2817  ao basis integrals from 
                     5  buffers.
  processed                   3845  ao basis integrals from 
                     7  buffers.
       2           -37.434649365908115              0.3391845997D+01
   current occupation vector 
     2  0  1  0  0  0  0  0
     2  0  1  0  0  0  0  0
  processed                    786  ao basis integrals from 
                     2  buffers.
  processed                   2817  ao basis integrals from 
                     5  buffers.
  processed                   3845  ao basis integrals from 
                     7  buffers.
       3           -37.597425612231213              0.7676735884D+00
   current occupation vector 
     2  0  1  0  0  0  0  0
     2  0  1  0  0  0  0  0
  processed                    786  ao basis integrals from 
                     2  buffers.
  processed                   2817  ao basis integrals from 
                     5  buffers.
  processed                   3845  ao basis integrals from 
                     7  buffers.
       4           -37.602865771971743              0.1052715536D+00
   current occupation vector 
     2  0  1  0  0  0  0  0
     2  0  1  0  0  0  0  0
 
 sum over diagonal and offdiagdiagonal of C(T)*S*C for irrep
                     1
 -2.842170943040401E-014  1.394983054020123E-014
 reorthoganalization of MOs is carried out
 sum over diagonal and offdiagdiagonal of C(T)*S*C for irrep
                     1
 -1.554312234475219E-015  1.450570706482156E-015
 
 sum over diagonal and offdiagdiagonal of C(T)*S*C for irrep
                     2
 -1.165734175856414E-014 -2.663609006997247E-016
 reorthoganalization of MOs is carried out
 sum over diagonal and offdiagdiagonal of C(T)*S*C for irrep
                     2
 -5.551115123125783E-016 -1.109422973917420E-016
 
 sum over diagonal and offdiagdiagonal of C(T)*S*C for irrep
                     3
  5.884182030513330E-015 -3.567739177914057E-015
 reorthoganalization of MOs is carried out
 sum over diagonal and offdiagdiagonal of C(T)*S*C for irrep
                     3
  1.110223024625157E-016 -5.122108297000157E-016
 
 sum over diagonal and offdiagdiagonal of C(T)*S*C for irrep
                     4
  3.552713678800501E-015  3.030919968698469E-016
 reorthoganalization of MOs is carried out
 sum over diagonal and offdiagdiagonal of C(T)*S*C for irrep
                     4
  1.110223024625157E-016  6.484187891081896E-017
 
 sum over diagonal and offdiagdiagonal of C(T)*S*C for irrep
                     5
 -5.551115123125783E-016  1.268405556639575E-015
 reorthoganalization of MOs is carried out
 sum over diagonal and offdiagdiagonal of C(T)*S*C for irrep
                     5
 -6.661338147750939E-016 -3.206108690949723E-016
 
 sum over diagonal and offdiagdiagonal of C(T)*S*C for irrep
                     6
  3.108624468950438E-015  1.970716404677062E-016
 reorthoganalization of MOs is carried out
 sum over diagonal and offdiagdiagonal of C(T)*S*C for irrep
                     6
 -1.110223024625157E-016  9.596725097105563E-017
 
 sum over diagonal and offdiagdiagonal of C(T)*S*C for irrep
                     7
  3.108624468950438E-015  5.685873918534529E-016
 reorthoganalization of MOs is carried out
 sum over diagonal and offdiagdiagonal of C(T)*S*C for irrep
                     7
 -1.110223024625157E-016  1.394782605260893E-016
 
 sum over diagonal and offdiagdiagonal of C(T)*S*C for irrep
                     8
  2.220446049250313E-016  0.000000000000000E+000
 reorthoganalization of MOs is carried out
 sum over diagonal and offdiagdiagonal of C(T)*S*C for irrep
                     8
 -2.220446049250313E-016  0.000000000000000E+000
  processed                    786  ao basis integrals from 
                     2  buffers.
  processed                   2817  ao basis integrals from 
                     5  buffers.
  processed                   3845  ao basis integrals from 
                     7  buffers.
       5           -37.603204916437790              0.2279183480D-01
   current occupation vector 
     2  0  1  0  0  0  0  0
     2  0  1  0  0  0  0  0
  processed                    786  ao basis integrals from 
                     2  buffers.
  processed                   2817  ao basis integrals from 
                     5  buffers.
  processed                   3845  ao basis integrals from 
                     7  buffers.
       6           -37.603217814171074              0.3844725531D-02
   current occupation vector 
     2  0  1  0  0  0  0  0
     2  0  1  0  0  0  0  0
  processed                    786  ao basis integrals from 
                     2  buffers.
  processed                   2817  ao basis integrals from 
                     5  buffers.
  processed                   3845  ao basis integrals from 
                     7  buffers.
       7           -37.603217901707723              0.3311484193D-03
   current occupation vector 
     2  0  1  0  0  0  0  0
     2  0  1  0  0  0  0  0
  processed                    786  ao basis integrals from 
                     2  buffers.
  processed                   2817  ao basis integrals from 
                     5  buffers.
  processed                   3845  ao basis integrals from 
                     7  buffers.
       8           -37.603217901993446              0.3304568926D-04
   current occupation vector 
     2  0  1  0  0  0  0  0
     2  0  1  0  0  0  0  0
  processed                    786  ao basis integrals from 
                     2  buffers.
  processed                   2817  ao basis integrals from 
                     5  buffers.
  processed                   3845  ao basis integrals from 
                     7  buffers.
       9           -37.603217901996935              0.2313924083D-05
   current occupation vector 
     2  0  1  0  0  0  0  0
     2  0  1  0  0  0  0  0
 
 sum over diagonal and offdiagdiagonal of C(T)*S*C for irrep
                     1
 -2.231548279496565E-014  1.543187933556799E-014
 reorthoganalization of MOs is carried out
 sum over diagonal and offdiagdiagonal of C(T)*S*C for irrep
                     1
  3.330669073875470E-016  1.647800460687004E-015
 
 sum over diagonal and offdiagdiagonal of C(T)*S*C for irrep
                     2
 -1.465494392505207E-014 -1.199860017560790E-015
 reorthoganalization of MOs is carried out
 sum over diagonal and offdiagdiagonal of C(T)*S*C for irrep
                     2
 -3.330669073875470E-016 -2.245861852735958E-016
 
 sum over diagonal and offdiagdiagonal of C(T)*S*C for irrep
                     3
 -1.221245327087672E-015 -4.417449458365696E-015
 reorthoganalization of MOs is carried out
 sum over diagonal and offdiagdiagonal of C(T)*S*C for irrep
                     3
 -2.220446049250313E-016  6.124530159179946E-018
 
 sum over diagonal and offdiagdiagonal of C(T)*S*C for irrep
                     4
  3.330669073875470E-015  5.558595985127782E-016
 reorthoganalization of MOs is carried out
 sum over diagonal and offdiagdiagonal of C(T)*S*C for irrep
                     4
  4.440892098500626E-016 -8.662001117955681E-017
 
 sum over diagonal and offdiagdiagonal of C(T)*S*C for irrep
                     5
 -2.220446049250313E-015 -3.610017382053274E-016
 reorthoganalization of MOs is carried out
 sum over diagonal and offdiagdiagonal of C(T)*S*C for irrep
                     5
  7.771561172376096E-016 -7.225871619552671E-017
 
 sum over diagonal and offdiagdiagonal of C(T)*S*C for irrep
                     6
  1.998401444325282E-015  4.703137680190366E-016
 reorthoganalization of MOs is carried out
 sum over diagonal and offdiagdiagonal of C(T)*S*C for irrep
                     6
  4.440892098500626E-016  3.416811503170526E-016
 
 sum over diagonal and offdiagdiagonal of C(T)*S*C for irrep
                     7
  3.774758283725532E-015  3.875210166954203E-016
 reorthoganalization of MOs is carried out
 sum over diagonal and offdiagdiagonal of C(T)*S*C for irrep
                     7
 -1.110223024625157E-016 -9.875431499307220E-017
 
 sum over diagonal and offdiagdiagonal of C(T)*S*C for irrep
                     8
  2.220446049250313E-016  0.000000000000000E+000
 reorthoganalization of MOs is carried out
 sum over diagonal and offdiagdiagonal of C(T)*S*C for irrep
                     8
 -2.220446049250313E-016  0.000000000000000E+000
  processed                    786  ao basis integrals from 
                     2  buffers.
  processed                   2817  ao basis integrals from 
                     5  buffers.
  processed                   3845  ao basis integrals from 
                     7  buffers.
      10           -37.603217901997056              0.1294375198D-06
   current occupation vector 
     2  0  1  0  0  0  0  0
     2  0  1  0  0  0  0  0
  processed                    786  ao basis integrals from 
                     2  buffers.
  processed                   2817  ao basis integrals from 
                     5  buffers.
  processed                   3845  ao basis integrals from 
                     7  buffers.
      11           -37.603217901997049              0.1339784894D-07
   current occupation vector 
     2  0  1  0  0  0  0  0
     2  0  1  0  0  0  0  0
  processed                    786  ao basis integrals from 
                     2  buffers.
  processed                   2817  ao basis integrals from 
                     5  buffers.
  processed                   3845  ao basis integrals from 
                     7  buffers.
      12           -37.603217901997049              0.1959719831D-08
   current occupation vector 
     2  0  1  0  0  0  0  0
     2  0  1  0  0  0  0  0
  processed                    786  ao basis integrals from 
                     2  buffers.
  processed                   2817  ao basis integrals from 
                     5  buffers.
  processed                   3845  ao basis integrals from 
                     7  buffers.
      13           -37.603217901997049              0.7255485102D-10
   current occupation vector 
     2  0  1  0  0  0  0  0
     2  0  1  0  0  0  0  0
  processed                    786  ao basis integrals from 
                     2  buffers.
  processed                   2817  ao basis integrals from 
                     5  buffers.
  processed                   3845  ao basis integrals from 
                     7  buffers.
      14           -37.603217901996999              0.1550803930D-10
   current occupation vector 
     2  0  1  0  0  0  0  0
     2  0  1  0  0  0  0  0
 
 sum over diagonal and offdiagdiagonal of C(T)*S*C for irrep
                     1
 -2.287059430727822E-014  1.429999251898148E-014
 reorthoganalization of MOs is carried out
 sum over diagonal and offdiagdiagonal of C(T)*S*C for irrep
                     1
 -6.661338147750939E-016 -3.768434296739378E-016
 
 sum over diagonal and offdiagdiagonal of C(T)*S*C for irrep
                     2
 -7.216449660063518E-015 -3.176418954182448E-016
 reorthoganalization of MOs is carried out
 sum over diagonal and offdiagdiagonal of C(T)*S*C for irrep
                     2
 -4.440892098500626E-016  7.949089540296720E-016
 
 sum over diagonal and offdiagdiagonal of C(T)*S*C for irrep
                     3
 -1.998401444325282E-015 -8.742944271633632E-016
 reorthoganalization of MOs is carried out
 sum over diagonal and offdiagdiagonal of C(T)*S*C for irrep
                     3
  3.330669073875470E-016 -2.681397928216360E-016
 
 sum over diagonal and offdiagdiagonal of C(T)*S*C for irrep
                     4
  4.662936703425657E-015  6.044647596667533E-016
 reorthoganalization of MOs is carried out
 sum over diagonal and offdiagdiagonal of C(T)*S*C for irrep
                     4
 -1.110223024625157E-016 -6.727495514422827E-017
 
 sum over diagonal and offdiagdiagonal of C(T)*S*C for irrep
                     5
  7.771561172376096E-016 -3.538041263310520E-015
 reorthoganalization of MOs is carried out
 sum over diagonal and offdiagdiagonal of C(T)*S*C for irrep
                     5
 -4.440892098500626E-016  5.353596419206893E-016
 
 sum over diagonal and offdiagdiagonal of C(T)*S*C for irrep
                     6
  2.886579864025407E-015  5.659319213826824E-016
 reorthoganalization of MOs is carried out
 sum over diagonal and offdiagdiagonal of C(T)*S*C for irrep
                     6
  2.220446049250313E-016 -3.660035937214034E-017
 
 sum over diagonal and offdiagdiagonal of C(T)*S*C for irrep
                     7
  3.774758283725532E-015  5.533328363511595E-016
 reorthoganalization of MOs is carried out
 sum over diagonal and offdiagdiagonal of C(T)*S*C for irrep
                     7
 -4.440892098500626E-016  7.593262942820761E-017
 
 sum over diagonal and offdiagdiagonal of C(T)*S*C for irrep
                     8
  2.220446049250313E-016  0.000000000000000E+000
 reorthoganalization of MOs is carried out
 sum over diagonal and offdiagdiagonal of C(T)*S*C for irrep
                     8
 -2.220446049250313E-016  0.000000000000000E+000
  processed                    786  ao basis integrals from 
                     2  buffers.
  processed                   2817  ao basis integrals from 
                     5  buffers.
  processed                   3845  ao basis integrals from 
                     7  buffers.
      15           -37.603217901997013              0.2095990048D-11
   current occupation vector 
     2  0  1  0  0  0  0  0
     2  0  1  0  0  0  0  0
  processed                    786  ao basis integrals from 
                     2  buffers.
  processed                   2817  ao basis integrals from 
                     5  buffers.
  processed                   3845  ao basis integrals from 
                     7  buffers.
      16           -37.603217901996970              0.1285638263D-12
   current occupation vector 
     2  0  1  0  0  0  0  0
     2  0  1  0  0  0  0  0

  SCF has converged.

 Density matrix saved to file den.dat
 total electron number:   5.99999999999999     
  processed                    786  ao basis integrals from 
                     2  buffers.
  processed                   2817  ao basis integrals from 
                     5  buffers.
  processed                   3845  ao basis integrals from 
                     7  buffers.
     E(SCF)=       -37.603217901996949              0.1942890293D-13


  ORBITAL EIGENVECTORS

  SYMMETRY BLOCK 1 (ALPHA)

                          MO #  1       MO #  2       MO #  3       MO #  4

    BASIS/ORB E          -11.36323      -0.72399       0.24979       0.85031
                        ----------    ----------    ----------    ----------
    1; C #1                0.46799       0.10869       0.05089       0.00000
    2; C #1                0.61360       0.24494       0.09602      -0.00000
    3; C #1                0.01534      -0.41670       0.14683       0.00000
    4; C #1               -0.00544      -0.53153      -1.98700      -0.00000
    5; C #1                0.00176      -0.18038       2.13004       0.00000
    6; C #1               -0.00007       0.00012      -0.00101       0.00942
    7; C #1               -0.00006       0.00114       0.00161      -0.25488
    8; C #1               -0.00022       0.00037      -0.00304      -0.00942
    9; C #1               -0.00018       0.00342       0.00483       0.25488


                          MO #  5       MO #  6       MO #  7       MO #  8

    BASIS/ORB E            0.87224       1.44883       3.23473       3.29040
                        ----------    ----------    ----------    ----------
    1; C #1                0.00383       0.12725      -0.00000       0.00363
    2; C #1                0.01343       0.41725      -0.00000       0.00526
    3; C #1               -0.10617      -2.87123       0.00000      -0.04061
    4; C #1                0.16492       3.84683      -0.00000       0.04573
    5; C #1               -0.07513      -1.60008       0.00000      -0.01119
    6; C #1               -0.00441      -0.00239       0.29501       0.17033
    7; C #1                0.14652      -0.00423      -0.14884      -0.08689
    8; C #1               -0.01322      -0.00717      -0.29501       0.51099
    9; C #1                0.43956      -0.01270       0.14884      -0.26066


                          MO #  9

    BASIS\ORB E           22.23697
                        ----------
    1; C #1                1.37705
    2; C #1               -1.65927
    3; C #1                1.29312
    4; C #1               -1.11714
    5; C #1                0.40927
    6; C #1               -0.00016
    7; C #1                0.00008
    8; C #1               -0.00049
    9; C #1                0.00025


  SYMMETRY BLOCK 2 (ALPHA)

                          MO # 10       MO # 11       MO # 12       MO # 13

    BASIS/ORB E            0.03383       0.38316       1.68192       2.90919
                        ----------    ----------    ----------    ----------
   10; C #1                0.32980       0.30912       1.29416       0.00000
   11; C #1                0.27365       0.95689      -1.61865      -0.00000
   12; C #1                0.60358      -1.21699       0.71073       0.00000
   13; C #1                0.00032       0.00030      -0.00029       0.15309
   14; C #1                0.00160       0.00152      -0.00147      -0.05103


                          MO # 14

    BASIS\ORB E            2.98156
                        ----------
   10; C #1                0.00457
   11; C #1               -0.02162
   12; C #1                0.00980
   13; C #1                0.03952
   14; C #1                0.19762


  SYMMETRY BLOCK 3 (ALPHA)

                          MO # 15       MO # 16       MO # 17       MO # 18

    BASIS/ORB E           -0.35719       0.35484       1.68849       2.95406
                        ----------    ----------    ----------    ----------
   15; C #1                0.45635       0.24759       1.26870       0.00000
   16; C #1                0.43221       0.81468      -1.66125      -0.00000
   17; C #1                0.30798      -1.31216       0.73064       0.00000
   18; C #1                0.00115       0.00063      -0.00098       0.12500
   19; C #1                0.00192       0.00106      -0.00163      -0.12500


                          MO # 19

    BASIS\ORB E            2.99084
                        ----------
   15; C #1                0.00576
   16; C #1               -0.02726
   17; C #1                0.01231
   18; C #1                0.09681
   19; C #1                0.16135


  SYMMETRY BLOCK 4 (ALPHA)

                          MO # 20       MO # 21

    BASIS\ORB E            0.86619       3.27542
                        ----------    ----------
   20; C #1                0.03152       1.18020
   21; C #1               -1.01640      -0.60067


  SYMMETRY BLOCK 5 (ALPHA)

                          MO # 22       MO # 23       MO # 24       MO # 25

    BASIS/ORB E            0.03383       0.38316       1.68192       2.90919
                        ----------    ----------    ----------    ----------
   22; C #1                0.32980       0.30912       1.29416      -0.00000
   23; C #1                0.27365       0.95689      -1.61865       0.00000
   24; C #1                0.60358      -1.21699       0.71073      -0.00000
   25; C #1                0.00064       0.00061      -0.00059       0.10206
   26; C #1                0.00319       0.00305      -0.00294      -0.30619


                          MO # 26

    BASIS\ORB E            2.98156
                        ----------
   22; C #1                0.00457
   23; C #1               -0.02162
   24; C #1                0.00980
   25; C #1                0.07905
   26; C #1                0.39525


  SYMMETRY BLOCK 6 (ALPHA)

                          MO # 27       MO # 28

    BASIS\ORB E            0.85031       3.23473
                        ----------    ----------
   27; C #1                0.03770       1.18002
   28; C #1               -1.01953      -0.59534


  SYMMETRY BLOCK 7 (ALPHA)

                          MO # 29       MO # 30

    BASIS\ORB E            0.86619       3.27542
                        ----------    ----------
   29; C #1                0.03152       1.18020
   30; C #1               -1.01640      -0.60067


  SYMMETRY BLOCK 8 (ALPHA)

                          MO # 31

    BASIS\ORB E            2.95406
                        ----------
   31; C #1                1.00000


 @PUTMOS-I, Writing converged MOs to NEWMOS. 
 @PUTMOS-I, Symmetry   1 Full Blocks  2 Partial Blocksize   1
 @PUTMOS-I, Symmetry   2 Full Blocks  1 Partial Blocksize   1
 @PUTMOS-I, Symmetry   3 Full Blocks  1 Partial Blocksize   1
 @PUTMOS-I, Symmetry   4 Full Blocks  0 Partial Blocksize   2
 @PUTMOS-I, Symmetry   5 Full Blocks  1 Partial Blocksize   1
 @PUTMOS-I, Symmetry   6 Full Blocks  0 Partial Blocksize   2
 @PUTMOS-I, Symmetry   7 Full Blocks  0 Partial Blocksize   2
 @PUTMOS-I, Symmetry   8 Full Blocks  0 Partial Blocksize   1
--------------------------------------------------------------------------------
Eigenvalue    -11.363231     -0.723991     -0.357192      0.033826      0.033826
 Symmetry          Ag            Ag            Au             u             u    
--------------------------------------------------------------------------------
   1 S         0.4679903     0.1086913     0.0000000     0.0000000     0.0000000
   1 S         0.6136000     0.2449429     0.0000000     0.0000000     0.0000000
   1 S         0.0153359    -0.4167027     0.0000000     0.0000000     0.0000000
   1 S        -0.0054377    -0.5315266     0.0000000     0.0000000     0.0000000
   1 S         0.0017568    -0.1803845     0.0000000     0.0000000     0.0000000
   1 PX        0.0000000     0.0000000     0.0000000     0.0000000     0.3297995
   1 PY        0.0000000     0.0000000     0.4563459     0.0000000     0.0000000
   1 PZ        0.0000000     0.0000000     0.0000000     0.3297995     0.0000000
   1 PX        0.0000000     0.0000000     0.0000000     0.0000000     0.2736478
   1 PY        0.0000000     0.0000000     0.4322134     0.0000000     0.0000000
   1 PZ        0.0000000     0.0000000     0.0000000     0.2736478     0.0000000
   1 PX        0.0000000     0.0000000     0.0000000     0.0000000     0.6035803
   1 PY        0.0000000     0.0000000     0.3079839     0.0000000     0.0000000
   1 PZ        0.0000000     0.0000000     0.0000000     0.6035803     0.0000000
   1 DX2      -0.0001453     0.0002457     0.0000000     0.0000000     0.0000000
   1 DXY       0.0000000     0.0000000     0.0000000     0.0000000     0.0000000
   1 DXZ       0.0000000     0.0000000     0.0000000     0.0000000     0.0000000
   1 DY2       0.0002906    -0.0004914     0.0000000     0.0000000     0.0000000
   1 DYZ       0.0000000     0.0000000     0.0000000     0.0000000     0.0000000
   1 DZZ      -0.0001453     0.0002457     0.0000000     0.0000000     0.0000000
   1 DX2      -0.0001214     0.0022814     0.0000000     0.0000000     0.0000000
   1 DXY       0.0000000     0.0000000     0.0000000     0.0000000     0.0000000
   1 DXZ       0.0000000     0.0000000     0.0000000     0.0000000     0.0000000
   1 DY2       0.0002429    -0.0045629     0.0000000     0.0000000     0.0000000
   1 DYZ       0.0000000     0.0000000     0.0000000     0.0000000     0.0000000
   1 DZZ      -0.0001214     0.0022814     0.0000000     0.0000000     0.0000000
   1 FX3       0.0000000     0.0000000     0.0000000     0.0000000     0.0012765
   1 FX2Y      0.0000000     0.0000000     0.0046073     0.0000000     0.0000000
   1 FX2Z      0.0000000     0.0000000     0.0000000     0.0012765     0.0000000
   1 FXY2      0.0000000     0.0000000     0.0000000     0.0000000    -0.0051059
   1 FXYZ      0.0000000     0.0000000     0.0000000     0.0000000     0.0000000
   1 FXZ2      0.0000000     0.0000000     0.0000000     0.0000000     0.0012765
   1 FY3       0.0000000     0.0000000    -0.0030715     0.0000000     0.0000000
   1 FY2Z      0.0000000     0.0000000     0.0000000    -0.0051059     0.0000000
   1 FYZ2      0.0000000     0.0000000     0.0046073     0.0000000     0.0000000
   1 FZ3       0.0000000     0.0000000     0.0000000     0.0012765     0.0000000
--------------------------------------------------------------------------------
Eigenvalue      0.249792      0.354843      0.383162      0.383162      0.850308
 Symmetry          Ag            Au             u             u             g    
--------------------------------------------------------------------------------
   1 S         0.0508856     0.0000000     0.0000000     0.0000000     0.0000000
   1 S         0.0960244     0.0000000     0.0000000     0.0000000    -0.0000000
   1 S         0.1468286     0.0000000     0.0000000     0.0000000     0.0000000
   1 S        -1.9870015     0.0000000     0.0000000     0.0000000    -0.0000000
   1 S         2.1300381     0.0000000     0.0000000     0.0000000     0.0000000
   1 PX        0.0000000     0.0000000     0.3091197     0.0000000     0.0000000
   1 PY        0.0000000     0.2475901     0.0000000     0.0000000     0.0000000
   1 PZ        0.0000000     0.0000000     0.0000000     0.3091197     0.0000000
   1 PX        0.0000000     0.0000000     0.9568902     0.0000000     0.0000000
   1 PY        0.0000000     0.8146807     0.0000000     0.0000000     0.0000000
   1 PZ        0.0000000     0.0000000     0.0000000     0.9568902     0.0000000
   1 PX        0.0000000     0.0000000    -1.2169921     0.0000000     0.0000000
   1 PY        0.0000000    -1.3121621     0.0000000     0.0000000     0.0000000
   1 PZ        0.0000000     0.0000000     0.0000000    -1.2169921     0.0000000
   1 DX2      -0.0020276     0.0000000     0.0000000     0.0000000    -0.0188479
   1 DXY       0.0000000     0.0000000     0.0000000     0.0000000     0.0000000
   1 DXZ       0.0000000     0.0000000     0.0000000     0.0000000     0.0000000
   1 DY2       0.0040552     0.0000000     0.0000000     0.0000000    -0.0000000
   1 DYZ       0.0000000     0.0000000     0.0000000     0.0000000     0.0000000
   1 DZZ      -0.0020276     0.0000000     0.0000000     0.0000000     0.0188479
   1 DX2       0.0032222     0.0000000     0.0000000     0.0000000     0.5097642
   1 DXY       0.0000000     0.0000000     0.0000000     0.0000000     0.0000000
   1 DXZ       0.0000000     0.0000000     0.0000000     0.0000000     0.0000000
   1 DY2      -0.0064445     0.0000000     0.0000000     0.0000000     0.0000000
   1 DYZ       0.0000000     0.0000000     0.0000000     0.0000000     0.0000000
   1 DZZ       0.0032222     0.0000000     0.0000000     0.0000000    -0.5097642
   1 FX3       0.0000000     0.0000000     0.0012198     0.0000000     0.0000000
   1 FX2Y      0.0000000     0.0025378     0.0000000     0.0000000     0.0000000
   1 FX2Z      0.0000000     0.0000000     0.0000000     0.0012198     0.0000000
   1 FXY2      0.0000000     0.0000000    -0.0048794     0.0000000     0.0000000
   1 FXYZ      0.0000000     0.0000000     0.0000000     0.0000000     0.0000000
   1 FXZ2      0.0000000     0.0000000     0.0012198     0.0000000     0.0000000
   1 FY3       0.0000000    -0.0016919     0.0000000     0.0000000     0.0000000
   1 FY2Z      0.0000000     0.0000000     0.0000000    -0.0048794     0.0000000
   1 FYZ2      0.0000000     0.0025378     0.0000000     0.0000000     0.0000000
   1 FZ3       0.0000000     0.0000000     0.0000000     0.0012198     0.0000000
--------------------------------------------------------------------------------
Eigenvalue      0.850308      0.866186      0.866186      0.872241      1.448833
 Symmetry           g             g             g            Ag            Ag    
--------------------------------------------------------------------------------
   1 S         0.0000000     0.0000000     0.0000000     0.0038273     0.1272546
   1 S         0.0000000     0.0000000     0.0000000     0.0134269     0.4172466
   1 S         0.0000000     0.0000000     0.0000000    -0.1061728    -2.8712297
   1 S         0.0000000     0.0000000     0.0000000     0.1649209     3.8468288
   1 S         0.0000000     0.0000000     0.0000000    -0.0751344    -1.6000831
   1 PX        0.0000000     0.0000000     0.0000000     0.0000000     0.0000000
   1 PY        0.0000000     0.0000000     0.0000000     0.0000000     0.0000000
   1 PZ        0.0000000     0.0000000     0.0000000     0.0000000     0.0000000
   1 PX        0.0000000     0.0000000     0.0000000     0.0000000     0.0000000
   1 PY        0.0000000     0.0000000     0.0000000     0.0000000     0.0000000
   1 PZ        0.0000000     0.0000000     0.0000000     0.0000000     0.0000000
   1 PX        0.0000000     0.0000000     0.0000000     0.0000000     0.0000000
   1 PY        0.0000000     0.0000000     0.0000000     0.0000000     0.0000000
   1 PZ        0.0000000     0.0000000     0.0000000     0.0000000     0.0000000
   1 DX2       0.0000000     0.0000000     0.0000000    -0.0088119    -0.0047805
   1 DXY       0.0000000     0.0315235     0.0000000     0.0000000     0.0000000
   1 DXZ       0.0376958     0.0000000     0.0000000     0.0000000     0.0000000
   1 DY2       0.0000000     0.0000000     0.0000000     0.0176238     0.0095610
   1 DYZ       0.0000000     0.0000000     0.0315235     0.0000000     0.0000000
   1 DZZ       0.0000000     0.0000000     0.0000000    -0.0088119    -0.0047805
   1 DX2       0.0000000     0.0000000     0.0000000     0.2930384    -0.0084690
   1 DXY       0.0000000    -1.0164007     0.0000000     0.0000000     0.0000000
   1 DXZ      -1.0195284     0.0000000     0.0000000     0.0000000     0.0000000
   1 DY2       0.0000000     0.0000000     0.0000000    -0.5860768     0.0169379
   1 DYZ       0.0000000     0.0000000    -1.0164007     0.0000000     0.0000000
   1 DZZ       0.0000000     0.0000000     0.0000000     0.2930384    -0.0084690
   1 FX3       0.0000000     0.0000000     0.0000000     0.0000000     0.0000000
   1 FX2Y      0.0000000     0.0000000     0.0000000     0.0000000     0.0000000
   1 FX2Z      0.0000000     0.0000000     0.0000000     0.0000000     0.0000000
   1 FXY2      0.0000000     0.0000000     0.0000000     0.0000000     0.0000000
   1 FXYZ      0.0000000     0.0000000     0.0000000     0.0000000     0.0000000
   1 FXZ2      0.0000000     0.0000000     0.0000000     0.0000000     0.0000000
   1 FY3       0.0000000     0.0000000     0.0000000     0.0000000     0.0000000
   1 FY2Z      0.0000000     0.0000000     0.0000000     0.0000000     0.0000000
   1 FYZ2      0.0000000     0.0000000     0.0000000     0.0000000     0.0000000
   1 FZ3       0.0000000     0.0000000     0.0000000     0.0000000     0.0000000
--------------------------------------------------------------------------------
Eigenvalue      1.681919      1.681919      1.688487      2.909191      2.909191
 Symmetry           u             u            Au             u             u    
--------------------------------------------------------------------------------
   1 S         0.0000000     0.0000000     0.0000000     0.0000000     0.0000000
   1 S         0.0000000     0.0000000     0.0000000     0.0000000     0.0000000
   1 S         0.0000000     0.0000000     0.0000000     0.0000000     0.0000000
   1 S         0.0000000     0.0000000     0.0000000     0.0000000     0.0000000
   1 S         0.0000000     0.0000000     0.0000000     0.0000000     0.0000000
   1 PX        1.2941565     0.0000000     0.0000000     0.0000000     0.0000000
   1 PY        0.0000000     0.0000000     1.2686998     0.0000000     0.0000000
   1 PZ        0.0000000     1.2941565     0.0000000     0.0000000    -0.0000000
   1 PX       -1.6186470     0.0000000     0.0000000    -0.0000000     0.0000000
   1 PY        0.0000000     0.0000000    -1.6612500     0.0000000     0.0000000
   1 PZ        0.0000000    -1.6186470     0.0000000     0.0000000     0.0000000
   1 PX        0.7107251     0.0000000     0.0000000     0.0000000     0.0000000
   1 PY        0.0000000     0.0000000     0.7306368     0.0000000     0.0000000
   1 PZ        0.0000000     0.7107251     0.0000000     0.0000000    -0.0000000
   1 DX2       0.0000000     0.0000000     0.0000000     0.0000000     0.0000000
   1 DXY       0.0000000     0.0000000     0.0000000     0.0000000     0.0000000
   1 DXZ       0.0000000     0.0000000     0.0000000     0.0000000     0.0000000
   1 DY2       0.0000000     0.0000000     0.0000000     0.0000000     0.0000000
   1 DYZ       0.0000000     0.0000000     0.0000000     0.0000000     0.0000000
   1 DZZ       0.0000000     0.0000000     0.0000000     0.0000000     0.0000000
   1 DX2       0.0000000     0.0000000     0.0000000     0.0000000     0.0000000
   1 DXY       0.0000000     0.0000000     0.0000000     0.0000000     0.0000000
   1 DXZ       0.0000000     0.0000000     0.0000000     0.0000000     0.0000000
   1 DY2       0.0000000     0.0000000     0.0000000     0.0000000     0.0000000
   1 DYZ       0.0000000     0.0000000     0.0000000     0.0000000     0.0000000
   1 DZZ       0.0000000     0.0000000     0.0000000     0.0000000     0.0000000
   1 FX3      -0.0011751     0.0000000     0.0000000    -0.2041241     0.0000000
   1 FX2Y      0.0000000     0.0000000    -0.0039109     0.0000000     0.0000000
   1 FX2Z      0.0000000    -0.0011751     0.0000000     0.0000000    -0.6123724
   1 FXY2      0.0047004     0.0000000     0.0000000     0.0000000     0.0000000
   1 FXYZ      0.0000000     0.0000000     0.0000000     0.0000000     0.0000000
   1 FXZ2     -0.0011751     0.0000000     0.0000000     0.6123724     0.0000000
   1 FY3       0.0000000     0.0000000     0.0026073     0.0000000     0.0000000
   1 FY2Z      0.0000000     0.0047004     0.0000000     0.0000000    -0.0000000
   1 FYZ2      0.0000000     0.0000000    -0.0039109     0.0000000     0.0000000
   1 FZ3       0.0000000    -0.0011751     0.0000000     0.0000000     0.2041241
--------------------------------------------------------------------------------
Eigenvalue      2.954065      2.954065      2.981562      2.981562      2.990839
 Symmetry           u             u             u             u            Au    
--------------------------------------------------------------------------------
   1 S         0.0000000     0.0000000     0.0000000     0.0000000     0.0000000
   1 S         0.0000000     0.0000000     0.0000000     0.0000000     0.0000000
   1 S         0.0000000     0.0000000     0.0000000     0.0000000     0.0000000
   1 S         0.0000000     0.0000000     0.0000000     0.0000000     0.0000000
   1 S         0.0000000     0.0000000     0.0000000     0.0000000     0.0000000
   1 PX        0.0000000     0.0000000     0.0045712     0.0000000     0.0000000
   1 PY        0.0000000     0.0000000     0.0000000     0.0000000     0.0057610
   1 PZ        0.0000000     0.0000000     0.0000000     0.0045712     0.0000000
   1 PX        0.0000000     0.0000000    -0.0216232     0.0000000     0.0000000
   1 PY        0.0000000    -0.0000000     0.0000000     0.0000000    -0.0272588
   1 PZ        0.0000000     0.0000000     0.0000000    -0.0216232     0.0000000
   1 PX        0.0000000     0.0000000     0.0097992     0.0000000     0.0000000
   1 PY        0.0000000     0.0000000     0.0000000     0.0000000     0.0123138
   1 PZ        0.0000000     0.0000000     0.0000000     0.0097992     0.0000000
   1 DX2       0.0000000     0.0000000     0.0000000     0.0000000     0.0000000
   1 DXY       0.0000000     0.0000000     0.0000000     0.0000000     0.0000000
   1 DXZ       0.0000000     0.0000000     0.0000000     0.0000000     0.0000000
   1 DY2       0.0000000     0.0000000     0.0000000     0.0000000     0.0000000
   1 DYZ       0.0000000     0.0000000     0.0000000     0.0000000     0.0000000
   1 DZZ       0.0000000     0.0000000     0.0000000     0.0000000     0.0000000
   1 DX2       0.0000000     0.0000000     0.0000000     0.0000000     0.0000000
   1 DXY       0.0000000     0.0000000     0.0000000     0.0000000     0.0000000
   1 DXZ       0.0000000     0.0000000     0.0000000     0.0000000     0.0000000
   1 DY2       0.0000000     0.0000000     0.0000000     0.0000000     0.0000000
   1 DYZ       0.0000000     0.0000000     0.0000000     0.0000000     0.0000000
   1 DZZ       0.0000000     0.0000000     0.0000000     0.0000000     0.0000000
   1 FX3       0.0000000     0.0000000     0.1580997     0.0000000     0.0000000
   1 FX2Y      0.0000000    -0.5000000     0.0000000     0.0000000     0.3872429
   1 FX2Z      0.0000000     0.0000000     0.0000000     0.1580997     0.0000000
   1 FXY2      0.0000000     0.0000000    -0.6323986     0.0000000     0.0000000
   1 FXYZ      1.0000000     0.0000000     0.0000000     0.0000000     0.0000000
   1 FXZ2      0.0000000     0.0000000     0.1580997     0.0000000     0.0000000
   1 FY3       0.0000000     0.0000000     0.0000000     0.0000000    -0.2581619
   1 FY2Z      0.0000000     0.0000000     0.0000000    -0.6323986     0.0000000
   1 FYZ2      0.0000000     0.5000000     0.0000000     0.0000000     0.3872429
   1 FZ3       0.0000000     0.0000000     0.0000000     0.1580997     0.0000000
--------------------------------------------------------------------------------
Eigenvalue      3.234725      3.234725      3.275424      3.275424      3.290402
 Symmetry           g             g             g             g            Ag    
--------------------------------------------------------------------------------
   1 S         0.0000000    -0.0000000     0.0000000     0.0000000     0.0036336
   1 S         0.0000000    -0.0000000     0.0000000     0.0000000     0.0052628
   1 S         0.0000000     0.0000000     0.0000000     0.0000000    -0.0406130
   1 S         0.0000000    -0.0000000     0.0000000     0.0000000     0.0457279
   1 S         0.0000000     0.0000000     0.0000000     0.0000000    -0.0111948
   1 PX        0.0000000     0.0000000     0.0000000     0.0000000     0.0000000
   1 PY        0.0000000     0.0000000     0.0000000     0.0000000     0.0000000
   1 PZ        0.0000000     0.0000000     0.0000000     0.0000000     0.0000000
   1 PX        0.0000000     0.0000000     0.0000000     0.0000000     0.0000000
   1 PY        0.0000000     0.0000000     0.0000000     0.0000000     0.0000000
   1 PZ        0.0000000     0.0000000     0.0000000     0.0000000     0.0000000
   1 PX        0.0000000     0.0000000     0.0000000     0.0000000     0.0000000
   1 PY        0.0000000     0.0000000     0.0000000     0.0000000     0.0000000
   1 PZ        0.0000000     0.0000000     0.0000000     0.0000000     0.0000000
   1 DX2       0.0000000    -0.5900110     0.0000000     0.0000000     0.3406630
   1 DXY       0.0000000     0.0000000     0.0000000     1.1802031     0.0000000
   1 DXZ       1.1800220     0.0000000     0.0000000     0.0000000     0.0000000
   1 DY2       0.0000000     0.0000000     0.0000000     0.0000000    -0.6813260
   1 DYZ       0.0000000     0.0000000     1.1802031     0.0000000     0.0000000
   1 DZZ       0.0000000     0.5900110     0.0000000     0.0000000     0.3406630
   1 DX2       0.0000000     0.2976722     0.0000000     0.0000000    -0.1737735
   1 DXY       0.0000000     0.0000000     0.0000000    -0.6006685     0.0000000
   1 DXZ      -0.5953443     0.0000000     0.0000000     0.0000000     0.0000000
   1 DY2       0.0000000    -0.0000000     0.0000000     0.0000000     0.3475470
   1 DYZ       0.0000000     0.0000000    -0.6006685     0.0000000     0.0000000
   1 DZZ       0.0000000    -0.2976722     0.0000000     0.0000000    -0.1737735
   1 FX3       0.0000000     0.0000000     0.0000000     0.0000000     0.0000000
   1 FX2Y      0.0000000     0.0000000     0.0000000     0.0000000     0.0000000
   1 FX2Z      0.0000000     0.0000000     0.0000000     0.0000000     0.0000000
   1 FXY2      0.0000000     0.0000000     0.0000000     0.0000000     0.0000000
   1 FXYZ      0.0000000     0.0000000     0.0000000     0.0000000     0.0000000
[...]
   1 DY2       0.0006555
   1 DYZ       0.0000000
   1 DZZ      -0.0003277
   1 DX2       0.0001688
   1 DXY       0.0000000
   1 DXZ       0.0000000
   1 DY2      -0.0003377
   1 DYZ       0.0000000
   1 DZZ       0.0001688
   1 FX3       0.0000000
   1 FX2Y      0.0000000
   1 FX2Z      0.0000000
   1 FXY2      0.0000000
   1 FXYZ      0.0000000
   1 FXZ2      0.0000000
   1 FY3       0.0000000
   1 FY2Z      0.0000000
   1 FYZ2      0.0000000
   1 FZ3       0.0000000
--------------------------------------------------------------------------------


 
  ORBITAL EIGENVALUES (ALPHA)  (1H = 27.2113838 eV)

       MO #        E(hartree)               E(eV)           FULLSYM    COMPSYM
       ----   --------------------   --------------------   -------   ---------
    1     1         -11.3632310886        -309.2092425824      Ag        Ag (1)
    2     2          -0.7239906886         -19.7007885085      Ag        Ag (1)
    3    15          -0.3571923398          -9.7196978553      Au       B3u (3)
  +++++++++++++++++++++++++++++++++++++++++++++++++++++++++++++++++++++++++++++
    4    22           0.0338256773           0.9204434892       u       B1u (5)
    5    10           0.0338256773           0.9204434892       u       B2u (2)
    6     3           0.2497919597           6.7971848915      Ag        Ag (1)
    7    16           0.3548428851           9.6557659428      Au       B3u (3)
    8    11           0.3831617205          10.4263606408       u       B2u (2)
    9    23           0.3831617205          10.4263606408       u       B1u (5)
   10     4           0.8503083338          23.1380664354       g        Ag (1)
   11    27           0.8503083338          23.1380664354       g       B3g (6)
   12    20           0.8661862451          23.5701263752       g       B1g (4)
   13    29           0.8661862451          23.5701263752       g       B2g (7)
   14     5           0.8722414341          23.7348964454      Ag        Ag (1)
   15     6           1.4488330381          39.4247518905      Ag        Ag (1)
   16    12           1.6819185133          45.7673302180       u       B2u (2)
   17    24           1.6819185133          45.7673302180       u       B1u (5)
   18    17           1.6884873925          45.9460785111      Au       B3u (3)
   19    13           2.9091913512          79.1631224617       u       B2u (2)
   20    25           2.9091913512          79.1631224617       u       B1u (5)
   21    31           2.9540647401          80.3841894716       u        Au (8)
   22    18           2.9540647401          80.3841894716       u       B3u (3)
   23    14           2.9815621013          81.1324307191       u       B2u (2)
   24    26           2.9815621013          81.1324307191       u       B1u (5)
   25    19           2.9908391496          81.3848720428      Au       B3u (3)
   26    28           3.2347251375          88.0213472670       g       B3g (6)
   27     7           3.2347251375          88.0213472670       g        Ag (1)
   28    30           3.2754235975          89.1288086819       g       B2g (7)
   29    21           3.2754235975          89.1288086819       g       B1g (4)
   30     8           3.2904015007          89.5363781565      Ag        Ag (1)
   31     9          22.2369736753         605.0988256654      Ag        Ag (1)


  VSCF finished.

  @CHECKOUT-I, Total execution time (CPU/WALL):        0.71/     236.01 seconds.
--executable xvscf finished with status     0 in      237.10 seconds (walltime).
 --invoking executable--
/home/nike/cfour_v2.00beta/cfour_v2.00beta/bin/xvtran
 @GETMEM-I,  Allocated   11444 MB of main memory.
  Full RHF integral transformation
  @GTNRB2-I, There are  8 irreducible representations.
  The following  12 MOs will be dropped:
    1  2  3  4  5 11 12 16 20 22 23 27
  There are  19 active molecular orbitals.
  Transformation of IIII integrals :
  1 pass through the AO integral file was required.
         786 AO integrals were read.
         192 MO integrals were written to HF2.
  Transformation of IIJJ integrals :
  1 pass through the AO integral file was required.
        2817 AO integrals were read.
         588 MO integrals were written to HF2.
  Transformation of IJIJ integrals :
  1 pass through the AO integral file was required.
        3845 AO integrals were read.
         724 MO integrals were written to HF2.
  Transformation of IJKL integrals :
  1 pass through the AO integral file was required.
        5820 AO integrals were read.
        1011 MO integrals were written to HF2.
  Summary of active molecular orbitals: 
------------------------------------------------------------------------
 
  Index      Eigenvalue    Symmetry    Index      Eigenvalue    Symmetry
------------------------------------------------------------------------
     1         0.8722414        1        11         2.9908391        3
     2         1.4488330        1        12         3.2754236        4
     3         3.2347251        1        13         1.6819185        5
     4         3.2904015        1        14         2.9091914        5
     5        22.2369737        1        15         2.9815621        5
     6         1.6819185        2        16         3.2347251        6
     7         2.9091914        2        17         0.8661862        7
     8         2.9815621        2        18         3.2754236        7
     9         1.6884874        3        19         2.9540647        8
    10         2.9540647        3
------------------------------------------------------------------------
  @CHECKOUT-I, Total execution time (CPU/WALL):        0.07/      56.20 seconds.
--executable xvtran finished with status     0 in       56.64 seconds (walltime).
 --invoking executable--
/home/nike/cfour_v2.00beta/cfour_v2.00beta/bin/xintprc
 @GETMEM-I,  Allocated   11444 MB of main memory.
  @GMOIAA-I, Processing MO integrals for spin case AA.
  @GMOIAA-I, Generation of integral list completed.
                      TYPE                NUMBER
                      ----               --------
                      PPPP                  2515
                      PPPH                     0
                      PPHH                     0
                      PHPH                     0
                      PHHH                     0
                      HHHH                     0

                     TOTAL                  2515
  @DS16AB-I, Sort of HHHHAB will be done in core.
   Words required:    1817 Words available:********.
  @ST16AB-I, Processing integral type HHHH spin case AB.
  @DS25AA-I, PHHHAA integrals will be sorted in core.
     Words required:       25  Words available: ********
  @ST25AA-I, Processing integral type PHHH spin case AA.
  @DS25AB-I, PHHHAB integrals will be sorted in core.
     Words required:     5417  Words available: ********
  @ST25AB-I, Processing integral type PHHH spin case AB.
  @STT3AA-I, Processing integral type PPHH spin case AAAA.
  @STT4AA-I, Processing integral type PHPH, spin case AAAA.
  @DS25AB-I, PPPHAB integrals will be sorted in core.
     Words required:     5779  Words available: ********
  @ST25AB-I, Processing integral type PPPH spin case AB.
  @DS16AB-I, Sort of PPPPAB will be done in core.
   Words required:   19296 Words available:********.
  @ST16AB-I, Processing integral type PPPP spin case AB.
  ALPHA EIGENVALUES 
   0.87224   1.44883   3.23473   3.29040  22.23697   1.68192   2.90919
   2.98156   1.68849   2.95406   2.99084   3.27542   1.68192   2.90919
   2.98156   3.23473   0.86619   3.27542   2.95406
  BETA EIGENVALUES 
   0.87224   1.44883   3.23473   3.29040  22.23697   1.68192   2.90919
   2.98156   1.68849   2.95406   2.99084   3.27542   1.68192   2.90919
   2.98156   3.23473   0.86619   3.27542   2.95406

  @FORMT2-I, Second-order MP correlation energies:
            ------------------------------------------------
            E(SCF)                  =    -37.603217901997 a.u.
            E2(AA)                  =      0.000000000000 a.u.
            E2(AB)                  =      0.000000000000 a.u.
            E2(TOT)                 =      0.000000000000 a.u.
            Total MP2 energy        =    -37.603217901997 a.u.
            ------------------------------------------------
------------------------------------------------------------------------
          Core memory requirement for full matrix algorithms

    Contraction or quantity             Memory needed (words)
                                      C1                     D2h
------------------------------------------------------------------------
  Particle-particle ladder (AB)      130321                    3481
  Hole-hole ladder (AB)                   0                       0
  Fourth-order singles (AB)               0                       0
  Rings (AB)                              0                       0
  T2 vector (AB)                          0                       0
  T2 vector (AA)                          0                       0
------------------------------------------------------------------------
------------------------------------------------------------------------
     Floating point operations required for full  matrix algorithms

  Term            spins   method                    FLOP
                                           C1                 D2h
------------------------------------------------------------------------
 a) contributions to the intermediates :
 
 T2 --> W(MNIJ)  (ABAB)   2 - 7                0                 0
 
 T1 --> W(MNIJ)  (ABAB)     7                  0                 0
 
 T2 --> W(MBEJ)  (AAAA)   3 - 7                0                 0
 T2 --> W(MBEJ)  (ABAB)   3 - 7                0                 0
 T2 --> W(MBEJ)  (BAAB)   3 - 7                0                 0
 
 T1 --> W(MBEJ)  (AAAA)     7                  0                 0
 T1 --> W(MBEJ)  (ABAB)     7                  0                 0
 T1 --> W(MBEJ)  (BAAB)     7                  0                 0
 
 T1 --> W(ABEF)  (ABAB)     7                  0                 0
 
 T2 --> F(MI)    (AA)     3 - 7                0                 0
 
 T2 --> F(AE)    (AA)     3 - 7                0                 0
 
b) contractions
------------------------------------------------------------------------
 
 W(ABEF) --> T2 (ABAB)    1 - 7                0                 0
 
 W(MNIJ) --> T2 (ABAB)    1 - 7                0                 0
 
 W(MBEJ) --> T2 (ABAB)    1 - 7                0                 0
 W(MBEJ) --> T2 (BAAB)    1 - 7                0                 0
 
 F(MI) --> T2   (ABAB)    2 - 7                0                 0
 
 F(AE) --> T2   (ABAB)    2 - 7                0                 0
 
c) direct contributions
------------------------------------------------------------------------
 
 T2 --> T1       (AA)     3,4,6,7              0                 0
 
 T1 --> T2      (ABAB)     6,7                 0                 0
 
 T1**2 --> T2   (ABAB)      7                  0                 0
 T1**2 --> T2   (BAAB)      7                  0                 0
 
d) total number of operations for various methods
------------------------------------------------------------------------
 
 MBPT(3)                        (1)            0                 0
 DQ-MBPT(4)                     (2)            0                 0
 SDQ-MBPT(4)                    (3)            0                 0
 CCD          per iteration     (5)            0                 0
 QCISD        per iteration     (6)            0                 0
 CCSD         per iteration     (7)            0                 0
 
------------------------------------------------------------------------
  @CHECKOUT-I, Total execution time (CPU/WALL):        0.13/      63.08 seconds.
--executable xintprc finished with status     0 in       63.56 seconds (walltime).
  calling xvcc 
 --invoking executable--
/home/nike/cfour_v2.00beta/cfour_v2.00beta/bin/xvcc
 @GETMEM-I,  Allocated   11444 MB of main memory.
   CCSD(T) energy will be calculated.
   Correlation energies computed from initial T amplitudes: 
   Initial T amplitudes: 
   The AA contribution to the correlation energy is:    0.0000000 a.u.
   The AB contribution to the correlation energy is:    0.0000000 a.u.
   The total correlation energy is  0.000000000000 a.u.
   The total correlation energy is  0.000000000000 a.u.
  W(    ) AB contribution =  0.0000000000 a.u.
  W(    ) AB contribution =  0.0000000000 a.u.
  W(mbej) AB contribution =  0.0000000000 a.u.
   After   1 iterations, amplitude changes are:
    -------------------------------------------------------------------
                 Spin      RMS          Max.      Max. change for
     Amplitude   Case     Change       Change       i    j    a    b
    -------------------------------------------------------------------
    -------------------------------------------------------------------
   The AA contribution to the correlation energy is:    0.0000000 a.u.
   The AB contribution to the correlation energy is:    0.0000000 a.u.
   The total correlation energy is  0.000000000000 a.u.
   The total correlation energy is  0.000000000000 a.u.
  Current DIIS expansion coefficients : 
 [   1] 1.0000000000
  Convergence information after     1 iterations: 
  Largest element of residual vector :  0.88931816-322.
  Largest element of DIIS residual   :  0.00000000E+00.
  Amplitude equations converged in     1iterations.
   The AA contribution to the correlation energy is:    0.0000000 a.u.
   The AB contribution to the correlation energy is:    0.0000000 a.u.
   The total correlation energy is  0.000000000000 a.u.
   The total correlation energy is  0.000000000000 a.u.
   The CC iterations have converged.

       Summary of iterative solution of CC equations 
      -----------------------------------------------------------
                       Correlation           Total
       Iteration         Energy              Energy
      -----------------------------------------------------------
            0         0.000000000000     -37.603217901997  DIIS 
            1         0.000000000000     -37.603217901997  DIIS 
      -----------------------------------------------------------
      A miracle has come to pass. The CC iterations have converged.
 @DIMT3-I, Dimensions of T3 amplitudes : 
               # abc          # ijk       Symmetry    Spin 
                      110              0     1          1
                      114              0     2          1
                      122              0     3          1
                      126              0     4          1
                      122              0     5          1
                      126              0     6          1
                      127              0     7          1
                      122              0     8          1
                      420              0     1          2
                      396              0     2          2
                      420              0     3          2
                      396              0     4          2
                      420              0     5          2
                      396              0     6          2
                      417              0     7          2
                      384              0     8          2
                      420              0     1          3
                      396              0     2          3
                      420              0     3          3
                      396              0     4          3
                      420              0     5          3
                      396              0     6          3
                      417              0     7          3
                      384              0     8          3
                      110              0     1          4
                      114              0     2          4
                      122              0     3          4
                      126              0     4          4
                      122              0     5          4
                      126              0     6          4
                      127              0     7          4
                      122              0     8          4
 @DIMT3-I, Dimensions of T3 amplitudes : 
               # abc          # ijk       Symmetry    Spin 
                      110              0     1          1
                      114              0     2          1
                      122              0     3          1
                      126              0     4          1
                      122              0     5          1
                      126              0     6          1
                      127              0     7          1
                      122              0     8          1
                      420              0     1          2
                      396              0     2          2
                      420              0     3          2
                      396              0     4          2
                      420              0     5          2
                      396              0     6          2
                      417              0     7          2
                      384              0     8          2
                      420              0     1          3
                      396              0     2          3
                      420              0     3          3
                      396              0     4          3
                      420              0     5          3
                      396              0     6          3
                      417              0     7          3
                      384              0     8          3
                      110              0     1          4
                      114              0     2          4
                      122              0     3          4
                      126              0     4          4
                      122              0     5          4
                      126              0     6          4
                      127              0     7          4
                      122              0     8          4
 @TRPS-I, Welcome to TRPS. Watch your RUs ! 
 @TRPS-I, Method is CCSD(T) 
 @TRPS-I, Calculation type is energy 
 @TRPS-I, Reference function information : 
          Reference function is Hartree-Fock 
          Reference function is RHF Hartree-Fock 
 @TRPS-I, INT1 is true 
 @TRPS-I, INT2 is false 
 @TRPS-I, Lengths of ijka integrals. #1          0
                                     #2          0
                                     #3          0
                                     #4          0
                                    Max          0
 @INITRP-I, Initializing W intermediate lists. 
 @CCENRG-I, CCSD/QCISD energy will now be evaluated. 
 @CCENRG-I, Correlation energies. ECCAA        0.000000000000
                                  ECCBB        0.000000000000
                                  ECCAB        0.000000000000
                                  Total        0.000000000000
 @CCENRG-I, Reference   energy     -37.603217901997
            CCSD/QCISD energy      -37.603217901997
          E4T (T(CCSD)) =  0.000000000000
          E5ST          =  0.000000000000
          E4ST          =  0.000000000000
          In other words  
          <T3[2](Dagger) D3  T3[2]> =  0.000000000000
          <T1   (Dagger) Q1 WT3[2]> =  0.000000000000
          <T2   (Dagger) Q2 FT3[2]> =  0.000000000000
        E(CCSD)           =     -37.603217901997
        E(CCSD + T(CCSD)) =     -37.603217901997
        E(CCSD(T))        =     -37.603217901997
  @CHECKOUT-I, Total execution time (CPU/WALL):        0.13/      73.14 seconds.
--executable xvcc finished with status     0 in       74.41 seconds (walltime).
  The final electronic energy is       -37.603217901996949 a.u. 
  This computation required                          616.27 seconds (walltime).
