 --invoking executable--
/home/nike/cfour_v2.00beta/bin/xjoda


   *************************************************************************
         <<<     CCCCCC     CCCCCC   |||     CCCCCC     CCCCCC   >>>
       <<<      CCC        CCC       |||    CCC        CCC         >>>
      <<<      CCC        CCC        |||   CCC        CCC            >>>
    <<<        CCC        CCC        |||   CCC        CCC              >>>
      <<<      CCC        CCC        |||   CCC        CCC            >>>
       <<<      CCC        CCC       |||    CCC        CCC         >>>
         <<<     CCCCCC     CCCCCC   |||     CCCCCC     CCCCCC   >>>
   *************************************************************************

     ****************************************************************
     * CFOUR Coupled-Cluster techniques for Computational Chemistry *
     ****************************************************************
 

   Department of Chemistry                Institut fuer Physikalische Chemie
   University of Texas at Austin          Universitaet Mainz
   Austin, TX  78712, USA                 D-55099 Mainz, Germany
 
                       Version 2.00beta
 
                     wob126                                            
                     Wed Jan  2 00:36:09 EST 2019                      
                     integer*8 version is running
 
********************************************************************************
*                          Input from ZMAT file                                *
********************************************************************************
TITLE                                                                           
F                                                                               
                                                                                
*ACES2(CALC=CCSD                                                                
FROZEN_CORE=ON                                                                  
#DROPMO=1                                                                       
INPUT_MRCC=OFF                                                                  
CC_PROG=MRCC                                                                    
XFORM_TOL=18                                                                    
SAVE_INTS=ON                                                                    
SCF_EXPORDER=6                                                                  
SCF_EXPSTART=5                                                                  
#SCF_DAMPING=1000                                                               
SCF_EXTRAPOLATION=ON                                                            
SCF_CONV=10                                                                     
SCF_MAXCYC=9999                                                                 
CC_CONV=10                                                                      
CC_MAXCYC=999                                                                   
T3_EXTRAPOL=ON                                                                  
REFERENCE=ROHF                                                                  
CHARGE=+1                                                                       
MULT=3                                                                          
ABCDTYPE=STANDARD                                                               
OCCUPATION=2-1-1-0-1-0-0-0/2-1-0-0-0-0-0-0                                      
MEM=14                                                                          
MEM_UNIT=GB                                                                     
BASIS=SPECIAL)                                                                  
                                                                                
F:aVDZ-EMSL                                                                     
                                                                                
********************************************************************************
  @GTFLGS-W, Keyword #DROPMO not known and is ignored.
  @GTFLGS-W, Keyword #SCF_DAMPING not known and is ignored.
    -------------------------------------------------------------------
                    CFOUR Control Parameters 
    -------------------------------------------------------------------
        External           Internal           Value            Units
          Name               Name
    -------------------------------------------------------------------
       ABCDTYPE             IABCDT         STANDARD     [  0]   ***   
       ANHARMONIC           IANHAR         OFF          [  0]   ***   
       ANH_ALGORIT          IANALG         STANDARD     [  0]   ***   
       ANH_DERIVAT          IANDER         SECOND       [  1]   ***   
       ANH_STEPSIZ          ICUBST             50000          x 10-6  
       ANH_SYMMETR          IANHSM         ABELIAN      [  0]   ***   
       AO_LADDERS           IAOLAD         SINGLEPASS   [  1]   ***   
       BASIS                IBASIS         SPECIAL      [  0]   ***   
       BREIT                IBREIT         OFF          [  0]   ***   
       BRUCK_CONV           IBRTOL          10D-  4             ***   
       BRUECKNER            IBRKNR             OFF      [  0]   ***   
       BUFFERSIZE           IBUFFS            600               ***   
       CACHE_RECS           ICHREC             10               ***   
       CALCLEVEL            ICLLVL           CCSD       [ 10]   ***   
       CCORBOPT             ICCORB             OFF      [  0] x 0.01  
       CC_CONV              ICCCNV          10D- 10             ***   
       CC_EXPORDER          ICCEOR              5               ***   
       CC_EXTRAPOL          ICCEXT             DIIS     [  1]   ***   
       CC_MAXCYC            ICCCYC            999              cycles 
       CC_PROGRAM           ICCPRO         MRCC         [  2]   ***   
       CHARGE               ICHRGE              1               ***   
       CHOLESKY             ICHOLE         OFF          [  0]   ***   
       CIS_CONV             ICISTL              5               ***   
       COMM_SIZE            IPSIZE            ***               ***   
       CONSTANT             ICONST         OLD          [  1]   ***   
       CONTINUUM            ICONTU         NONE         [  0]   ***   
       CONTRACTION          ICNTYP          GENERAL     [  1]   ***   
       COORDINATES          ICOORD         INTERNAL     [  0]   ***   
       CPHF_CONVER          ICPHFT          10D- 16             ***   
       CPHF_MAXCYC          ICPHFC             64              cycles 
       CUBIC                ICUBIC         OFF          [  0]   ***   
       CURVILINEAR          ICURVY            OFF       [  0]   ***   
       DBOC                 IDBOC          OFF          [  0]   ***   
       DCT                  IDCT           OFF          [  0]   ***   
       DERIV_LEV            IDRLVL            ZERO      [  0]   ***   
       DIAG_MRCC            IEOMST          10D-  0             ***   
       DIFF_TYPE            IDIFTY         RELAXED      [  0]   ***   
       DIRECT               IDIRCT         OFF          [  0]   ***   
       DROPMO               IDRPMO      NONE         
       ECP                  IECP           OFF          [  0]   ***   
       EIGENVECTOR          IVEC                1               ***   
       EL_ANHARM            IELANH         OFF          [  0]   ***   
       EOMFOLLOW            IEOMSR         ENERGY       [  0]   ***   
       EOM_MRCC             IMRCCE         NEW          [  1]   ***   
       EOM_NONIT            EOMNON         OFF          [  0]   ***   
       EOM_NSING            IEOMSI          10D-  0             ***   
       EOM_NSTATES          IMRCCD         DAVIDSON     [  0]   ***   
       EOM_NTRIP            IEOMTR          10D-  0             ***   
       EOM_ORDER            IEXORD         ENERGY       [  0]   ***   
       ESTATE_CONV          IEXTOL          10D-  5             ***   
       ESTATE_DIAG          IEXDIG         ITERATIVE    [  0]   ***   
       ESTATE_LOCK          IESLOC         ON           [  1]   ***   
       ESTATE_MAXC          IEXMXC             20               ***   
       ESTATE_PROP          IEXPRP         OFF          [  0]   ***   
       EVAL_HESS            IRECAL              0            # of cyc.
       EXCITATION           IEXCIT              0               ***   
       EXCITE               IEXCIT         NONE         [  0]   ***   
       FCGRADNEW            IFCGNW         OFF          [  0]   ***   
       FC_FIELD             IFINFC              0             x 10-6  
       FD_CALTYPE           IFDCAL         GRADONLY     [  0]   ***   
       FD_PROJECT           IFDPRJ         OFF          [  1]   ***   
       FD_STEPSIZE          IDISFD              0            10-4 bohr
       FD_USEGROUP          IFDGRP         FULL         [  0]   ***   
       FILE_RECSIZ          IFLREC              4096           words  
       FINITE_PERT          IFIPER              0             x 10-6  
       FIXGEOM              IFIXGM         OFF          [  0]   ***   
       FOCK                 IFOCK          AO           [  1]   ***   
       FREQ_ALGORI          IVIALG         STANDARD     [  0]   ***   
       FROZEN_CORE          IFROCO         ON           [  1]   ***   
       FROZEN_VIRT          IFROVI         OFF          [  0]   ***   
       GAMMA_ABCD           IGABCD         STORE        [  0]   ***   
       GAMMA_ABCI           IGABCI         STORE        [  0]   ***   
       GENBAS_1             IGNBS1              0               ***   
       GENBAS_2             IGNBS2              0               ***   
       GENBAS_3             IGNBS3              0               ***   
       GENBAS_4             IGNBS4              0               ***   
       GEO_CONV             ICONTL              5              H/bohr 
       GEO_MAXCYC           IOPTCY             50               ***   
       GEO_MAXSTEP          IMXSTP            300            millibohr
       GEO_METHOD           INR            SINGLE_POINT [  5]   ***   
       GIAO                 IGIAO          OFF          [  1]   ***   
       GIMIC                IGIMIC         OFF          [  0]   ***   
       GRID                 IGRID          OFF          [  0]   ***   
       GRID_ALGO            IGALGO         SERIAL       [  0]   ***   
       GUESS                IGUESS            MOREAD    [  0]   ***   
       HBAR                 IHBAR              OFF      [  0]   ***   
       HESS_TYPE            IHESTP         SCF          [  0]   ***   
       HF2_FILE             IHF2Fl         USE          [  1]   ***   
       HFSTABILITY          ISTABL         OFF          [  0]   ***   
       INCORE               INCORE             OFF      [  0]   ***   
       INPUT_MRCC           IMRCC          OFF          [  0]   ***   
       INTEGRALS            INTTYP             VMOL     [  1]   ***   
       JODA_PRINT           IJPRNT              0               ***   
       LINDEP_TOL           ILINDP              8               ***   
       LINEQ_CONV           IZTACN          10D-  7           cycles  
       LINEQ_EXPOR          ILMAXD              5               ***   
       LINEQ_MAXCY          ILMAXC             50               ***   
       LINEQ_TYPE           ILTYPE         DIIS         [  1]   ***   
       LOCK_ORBOCC          ILOCOC             OFF      [  0]   ***   
       MEMORY_SIZE          IMEMSZ         *********           words  
       MEM_UNIT             IMEMU          GB           [  3]   ***   
       MRCC                 IMRCCC         OFF          [  0]   ***   
       MULTIPLICTY          IMULTP              3               ***   
       NEGEVAL              IDIE             ABORT      [  0]   ***   
       NEWNORM              INEWNO         OFF          [  0]   ***   
       NON-HF               INONHF              ON      [  1]   ***   
       NTOP_TAMP            ITOPT2             15               ***   
       NUC_MODEL            INUCMO         POINT        [  0]   ***   
       OCCUPATION           IOCCU  A   2,  1,  1,  0,  1,  0,  0,  0,
                                   B   2,  1,  0,  0,  0,  0,  0,  0,
       OPEN-SHELL           IOPEN          SPIN-ORBITAL [  0]   ***   
       ORBITALS             IORBTP         SEMICANONICAL[  1]   ***   
       PARALLEL             IPARAL         ON           [  1]   ***   
       PARA_INT             IPINTS         ON           [  1]   ***   
       PARA_PRINT           IPPRIN              0               ***   
       PERT_ORB             IPTORB         STANDARD     [  0]   ***   
       POINTS               IGRDFD              0               ***   
       PRINT                IPRNT               0               ***   
       PROPS                IPROPS             OFF      [  0]   ***   
       PROP_INTEGR          IINTYP         INTERNAL     [  0]   ***   
       PSI                  IPSI           OFF          [  0]   ***   
       QUARTIC              IQUART         OFF          [  0]   ***   
       RAMAN_INT            IRAMIN         OFF          [  0]   ***   
       RAMAN_ORB            IRAMRE         UNRELAXED    [  0]   ***   
       RDO                  IRDOFM             OFF      [  0]   ***   
       REFERENCE            IREFNC             ROHF     [  2]   ***   
       RELATIVIST           IRELAT         OFF          [  0]   ***   
       RELAX_DENS           IRDENS             OFF      [  0]   ***   
       RESET_FLAGS          IRESET             OFF      [  0]   ***   
       RESTART_CC           ICCRES         OFF          [  0]   ***   
       ROT_EVEC             ROTVEC              0               ***   
       SAVE_INTS            ISVINT              ON      [  1]   ***   
       SCALE_ON             ISTCRT              0               ***   
       SCF_CONV             ISCFCV          10D- 10             ***   
       SCF_DAMPING          IDAMP               0             x 10-3  
       SCF_EXPORDE          IRPPOR              6               ***   
       SCF_EXPSTAR          IRPPLS              5               ***   
       SCF_EXTRAPO          IRPP                ON      [  1]   ***   
       SCF_MAXCYC           ISCFCY            ***              cycles 
       SCF_NOSTOP           ISCFST         OFF          [  0]   ***   
       SCF_PRINT            ISCFPR              0               ***   
       SD_FIELD             IFINSD              0             x 10-6  
       SEQUENCE             ISEQUE         OFF          [  0]   ***   
       SOPERT               IPERSO         OFF          [  0]   ***   
       SPHERICAL            IDFGHI             ON       [  1]   ***   
       SPINORBIT            ISOCAL         OFF          [  0]   ***   
       SPINROTATIO          ISRCON         OFF          [  0]   ***   
       SPIN_FLIP            ISPFLP         OFF          [  0]   ***   
       SPIN_ORBIT           ISPORB         OFF          [  0]   ***   
       SPIN_SCAL            ISCSMP         OFF          [  0]   ***   
       SUBGROUP             ISUBGP         DEFAULT      [  0]   ***   
       SUBGRPAXIS           ISBXYZ         X            [  0]   ***   
       SYMMETRY             ISYM             ON         [  0]   ***   
       SYM_CHECK            ISYMCK         OVERRIDE     [  1]   ***   
       T3_EXTRAPOL          IT3EXT         ON           [  1]   ***   
       TAMP_SUM             IEVERY              5               ***   
       TESTSUITE            ITESTS         OFF          [  0]   ***   
       THERMOCH             ITHERM         OFF          [  0]   ***   
       TOL_CHOLESK          ITOLCH          10D-  4             ***   
       TRANGRAD             IRESRM         OFF          [  0]   ***   
       TRANS_INV            ITRAIN         USE          [  0]   ***   
       TREAT_PERT           ITREAT         SIMULTANEOUS [  0]   ***   
       UIJ_THRESHO          IUIJTH              1               ***   
       UNITS                IUNITS         ANGSTROM     [  0]   ***   
       UNOS                 IUNOS          OFF          [  0]   ***   
       UPDATE_HESS          IHUPDT         ON           [  1]   ***   
       VIBPHASE             ISETPH         STANDARD     [  0]   ***   
       VIBRATION            IVIB              NO        [  0]   ***   
       VIB_ALGORIT          IGEALG         STANDARD     [  0]   ***   
       VNATORB              IVNORB         OFF          [  0]   ***   
       VTRAN                IVTRAN         FULL/PARTIAL [  0]   ***   
       XFIELD               IXEFLD              0             x 10-6  
       XFORM_TOL            IXFTOL          10D- 18             ***   
       YFIELD               IYEFLD              0             x 10-6  
       ZFIELD               IZEFLD              0             x 10-6  
    -------------------------------------------------------------------
   1 entries found in Z-matrix 
   Job Title : TITLE                                                                           
  1  F          9    18.99840
 factor:   60.1997200000000     
   Rotational constants (in cm-1): 

   Rotational constants (in MHz): 

********************************************************************************
   The full molecular point group is I h .
   The largest Abelian subgroup of the full molecular point group is D2h .
   The computational point group is D2h .
********************************************************************************
  @GTFLGS-W, Keyword #DROPMO not known and is ignored.
  @GTFLGS-W, Keyword #SCF_DAMPING not known and is ignored.
  There is   1 frozen-core orbital.
  There is   1 frozen-core orbital.
  There are   23 basis functions.
 @GEOPT-W, Archive file not created for single-point calculation.
  @CHECKOUT-I, Total execution time (CPU/WALL):        0.25/       0.66 seconds.
--executable xjoda finished with status     0 in        1.09 seconds (walltime).
 --invoking executable--
/home/nike/cfour_v2.00beta/bin/xvmol
 Serial version of molecule started
********************************************************************************
                    Input from MOL file
********************************************************************************
INTGRL        1    0    1    0    0    0    0    0    0                         
         *** CFOUR Program System (Release V0.1) ***                            
TITLE                                                                           
    1    3 X  Y   Z   0.10E-08              0    0                              
   9999.00      3.00                                                            
          9.00000000    1    3    1    1    1                                   
F #1   0.000000000000000   0.000000000000000   0.000000000000000                
   10    4                                                                      
   14710.0000000000       7.210000000000000E-004 -1.650000000000000E-004        
  0.000000000000000E+000  0.000000000000000E+000                                
   2207.00000000000       5.553000000000000E-003 -1.308000000000000E-003        
  0.000000000000000E+000  0.000000000000000E+000                                
   502.800000000000       2.826700000000000E-002 -6.495000000000000E-003        
  0.000000000000000E+000  0.000000000000000E+000                                
   142.600000000000       0.106444000000000      -2.669100000000000E-002        
  0.000000000000000E+000  0.000000000000000E+000                                
   46.4700000000000       0.286814000000000      -7.369000000000001E-002        
  0.000000000000000E+000  0.000000000000000E+000                                
   16.7000000000000       0.448641000000000      -0.170776000000000             
  0.000000000000000E+000  0.000000000000000E+000                                
   6.35600000000000       0.264761000000000      -0.112327000000000             
  0.000000000000000E+000  0.000000000000000E+000                                
   1.31600000000000       1.533300000000000E-002  0.562814000000000             
  0.000000000000000E+000  0.000000000000000E+000                                
  0.389700000000000      -2.332000000000000E-003  0.568778000000000             
   1.00000000000000       0.000000000000000E+000                                
  9.863000000000000E-002  0.000000000000000E+000  0.000000000000000E+000        
  0.000000000000000E+000   1.00000000000000                                     
    5    3                                                                      
   22.6700000000000       4.487800000000000E-002  0.000000000000000E+000        
  0.000000000000000E+000                                                        
   4.97700000000000       0.235718000000000       0.000000000000000E+000        
  0.000000000000000E+000                                                        
   1.34700000000000       0.508521000000000       0.000000000000000E+000        
  0.000000000000000E+000                                                        
  0.347100000000000       0.458120000000000        1.00000000000000             
  0.000000000000000E+000                                                        
  8.502000000000000E-002  0.000000000000000E+000  0.000000000000000E+000        
   1.00000000000000                                                             
    2    2                                                                      
   1.64000000000000        1.00000000000000       0.000000000000000E+000        
  0.464000000000000       0.000000000000000E+000   1.00000000000000             
FINISH                                                                          
 
********************************************************************************
 One- and two-electron integrals over symmetry-adapted AOs are calculated.

  Spherical harmonics are used.
  
  Integrals less than  0.10E-13 are neglected.

  Nuclear repulsion energy :    0.0000000000 a.u.
  required memory for a1 array                5020257  words 
  required memory for a2 array                2070308  words 
 @GETMEM-I,  Allocated      69 MB of main memory.
  @MOLECU-I, One electron integrals (CPU/WALL):        0.02/       0.02 seconds.
  @TWOEL-I,        379 integrals of symmetry type  I I I I
  @TWOEL-I,       1506 integrals of symmetry type  I J I J
  @TWOEL-I,       1161 integrals of symmetry type  I I J J
  @TWOEL-I,       1760 integrals of symmetry type  I J K L
  @TWOEL-I, Total number of 2-e integrals       4806.
  @MOLECU-I, Two electron integrals (CPU/WALL):        0.01/       0.03 seconds.
  @CHECKOUT-I, Total execution time (CPU/WALL):        0.04/       0.11 seconds.
--executable xvmol finished with status     0 in        0.45 seconds (walltime).
 --invoking executable--
/home/nike/cfour_v2.00beta/bin/xvmol2ja
 @GETMEM-I,  Allocated   13351 MB of main memory.
  @CHECKOUT-I, Total execution time (CPU/WALL):        0.00/       0.01 seconds.
--executable xvmol2ja finished with status     0 in        0.26 seconds (walltime).
 --invoking executable--
/home/nike/cfour_v2.00beta/bin/xvscf
  There are   23 functions in the AO basis.

  There are 8 irreducible representations.

       Irrep        # of functions
         1                  8
         2                  3
         3                  3
         4                  2
         5                  3
         6                  2
         7                  2
         8                  0


  Parameters for SCF calculation: 
        SCF reference function: ROHF  
  Maximum number of iterations: 9999
     Full symmetry point group: I h 
     Computational point group: D2h 
        Initial density matrix: MOREAD                 
     SCF convergence tolerance: 10**(-10)
  DIIS convergence acceleration:  ON
          Latest start for DIIS:   5
                     DIIS order:   6

     Alpha population by irrep:   2    1    1    0    1    0    0    0
      Beta population by irrep:   2    1    0    0    0    0    0    0


  Memory information:      62860 words required.
  Fock matrices are constructed from AO integral file.
 @GETMEM-I,  Allocated       0 MB of main memory.
  Initialization and symmetry analysis required      0.002 seconds.

 total no. of electrons in initial guess :  0.000000000000000E+000
 total no. of electrons in initial guess :  0.000000000000000E+000
  --------------------------------------------------------------------
  Iteration         Total Energy            Largest Density Difference
  --------------------------------------------------------------------
       0             0.000000000000000              0.0000000000D+00
   current occupation vector 
     2  1  1  0  1  0  0  0
     2  1  0  0  0  0  0  0
       1           -96.221859531535031              0.4624644661D+01
   current occupation vector 
     2  1  1  0  1  0  0  0
     2  1  0  0  0  0  0  0
       2           -98.244458412820975              0.3517938411D+01
   current occupation vector 
     2  1  1  0  1  0  0  0
     2  1  0  0  0  0  0  0
       3           -98.760175127145772              0.7676222405D+00
   current occupation vector 
     2  1  1  0  1  0  0  0
     2  1  0  0  0  0  0  0
       4           -98.792764281448129              0.3148067035D+00
   current occupation vector 
     2  1  1  0  1  0  0  0
     2  1  0  0  0  0  0  0
       5           -98.795699642133172              0.6487900455D-01
   current occupation vector 
     2  1  1  0  1  0  0  0
     2  1  0  0  0  0  0  0
       6           -98.795725650872384              0.7856740392D-02
   current occupation vector 
     2  1  1  0  1  0  0  0
     2  1  0  0  0  0  0  0
       7           -98.795738997843017              0.2970735877D-02
   current occupation vector 
     2  1  1  0  1  0  0  0
     2  1  0  0  0  0  0  0
       8           -98.795739004891075              0.6636184073D-04
   current occupation vector 
     2  1  1  0  1  0  0  0
     2  1  0  0  0  0  0  0
       9           -98.795739005035131              0.8553795052D-05
   current occupation vector 
     2  1  1  0  1  0  0  0
     2  1  0  0  0  0  0  0
      10           -98.795739005035259              0.5299657144D-06
   current occupation vector 
     2  1  1  0  1  0  0  0
     2  1  0  0  0  0  0  0
      11           -98.795739005035330              0.3025399198D-07
   current occupation vector 
     2  1  1  0  1  0  0  0
     2  1  0  0  0  0  0  0
      12           -98.795739005035230              0.9430267678D-09
   current occupation vector 
     2  1  1  0  1  0  0  0
     2  1  0  0  0  0  0  0
      13           -98.795739005035244              0.1331801336D-09
   current occupation vector 
     2  1  1  0  1  0  0  0
     2  1  0  0  0  0  0  0

  SCF has converged.

 Density matrix saved to file den.dat
 total alpha spin electron number:   5.00000000000000     
 total  beta spin electron number:   3.00000000000000     
     E(ROHF)=       -98.795739005035230              0.6022737864D-11

  Eigenvector printing suppressed.


       The average multiplicity is    3.0000000
  The expectation value of S**2 is    2.0000000

 @PUTMOS-I, Writing converged MOs to NEWMOS. 
 @PUTMOS-I, Symmetry   1 Full Blocks  2 Partial Blocksize   0
 @PUTMOS-I, Symmetry   2 Full Blocks  0 Partial Blocksize   3
 @PUTMOS-I, Symmetry   3 Full Blocks  0 Partial Blocksize   3
 @PUTMOS-I, Symmetry   4 Full Blocks  0 Partial Blocksize   2
 @PUTMOS-I, Symmetry   5 Full Blocks  0 Partial Blocksize   3
 @PUTMOS-I, Symmetry   6 Full Blocks  0 Partial Blocksize   2
 @PUTMOS-I, Symmetry   7 Full Blocks  0 Partial Blocksize   2
 @PUTMOS-I, Symmetry   8 Full Blocks  0 Partial Blocksize   0
  @DMPJOB-I, Rotating orbitals to semicanonical basis.
             *** Eigenvalues correspond to new basis. ***



 
  ORBITAL EIGENVALUES (ALPHA)  (1H = 27.2113838 eV)

       MO #        E(hartree)               E(eV)           FULLSYM    COMPSYM
       ----   --------------------   --------------------   -------   ---------
    1     1         -27.2064366477        -740.3247899848      Ag        Ag (1)
    2     2          -2.3942928372         -65.1520213688      Ag        Ag (1)
    3    17          -1.5295666943         -41.6216263973       u       B1u (5)
    4    12          -1.5295666943         -41.6216263973       u       B3u (3)
    5     9          -1.4136549915         -38.4675085619      Au       B2u (2)
  +++++++++++++++++++++++++++++++++++++++++++++++++++++++++++++++++++++++++++++
    6     3          -0.1074214697          -2.9230868420      Ag        Ag (1)
    7    13          -0.0538883536          -1.4663766726       u       B3u (3)
    8    18          -0.0538883536          -1.4663766726       u       B1u (5)
    9    10          -0.0420195582          -1.1434103262      Au       B2u (2)
   10    22           0.7891464312          21.4737664302       g       B2g (7)
   11     4           0.7891464312          21.4737664302       g        Ag (1)
   12    20           0.8207386542          22.3334345347       g       B3g (6)
   13    15           0.8207386542          22.3334345347       g       B1g (4)
   14     5           0.8306965586          22.6044028946      Ag        Ag (1)
   15    14           1.0032942750          27.3010256020       u       B3u (3)
   16    19           1.0032942750          27.3010256020       u       B1u (5)
   17    11           1.0648430745          28.9758536090      Au       B2u (2)
   18     6           1.6222633502          44.1440306785      Ag        Ag (1)
   19     7           4.0184194297         109.3467534507       g        Ag (1)
   20    23           4.0184194297         109.3467534507       g       B2g (7)
   21    21           4.0914658112         111.3344465723       g       B3g (6)
   22    16           4.0914658112         111.3344465723       g       B1g (4)
   23     8           4.1161615935         112.0064529844      Ag        Ag (1)


 
  ORBITAL EIGENVALUES ( BETA)  (1H = 27.2113838 eV)

       MO #        E(hartree)               E(eV)           FULLSYM    COMPSYM
       ----   --------------------   --------------------   -------   ---------
    1     1         -27.1051265961        -737.5680032851      Ag        Ag (1)
    2     2          -2.0097610469         -54.6883792325      Ag        Ag (1)
    3     9          -1.3109463547         -35.6726644245      Au       B2u (2)
  +++++++++++++++++++++++++++++++++++++++++++++++++++++++++++++++++++++++++++++
    4    17          -0.5042508485         -13.7213633803       u       B1u (5)
    5    12          -0.5042508485         -13.7213633803       u       B3u (3)
    6     3          -0.0903554661          -2.4586972690      Ag        Ag (1)
    7    10          -0.0382302934          -1.0402991874      Au       B2u (2)
    8    13          -0.0178520570          -0.4857791753       u       B3u (3)
    9    18          -0.0178520570          -0.4857791753       u       B1u (5)
   10     4           0.8688038857          23.6413559966      Ag        Ag (1)
   11    15           0.8707009604          23.6929780257       g       B1g (4)
   12    20           0.8707009604          23.6929780257       g       B3g (6)
   13    22           0.8764207498          23.8486214097       g       B2g (7)
   14     5           0.8764207498          23.8486214097       g        Ag (1)
   15    11           1.0980702481          29.8800109825      Au       B2u (2)
   16    19           1.2029444619          32.7337834668       u       B1u (5)
   17    14           1.2029444619          32.7337834668       u       B3u (3)
   18     6           1.7153071131          46.6758802234      Ag        Ag (1)
   19     7           4.2168656882         114.7467507573      Ag        Ag (1)
   20    21           4.2251422052         114.9719662385       g       B3g (6)
   21    16           4.2251422052         114.9719662385       g       B1g (4)
   22     8           4.2506875899         115.6670915049       g        Ag (1)
   23    23           4.2506875899         115.6670915049       g       B2g (7)


  VSCF finished.

  @CHECKOUT-I, Total execution time (CPU/WALL):        0.03/       0.19 seconds.
--executable xvscf finished with status     0 in        0.58 seconds (walltime).
 --invoking executable--
/home/nike/cfour_v2.00beta/bin/xvtran
 @GETMEM-I,  Allocated   13351 MB of main memory.
  Full UHF integral transformation
  The following   1 alpha MOs will be dropped.
    1
  There are  22 active alpha molecular orbitals.
  The following   1 beta MOs will be dropped.
    1
  There are  22 active beta molecular orbitals.
  Transformation of IIII integrals :
  2 passes through the AO integral file were required.
         379 AO integrals were read.
         487 MO integrals (Spin case AAAA) were written to HF2AA.
         487 MO integrals (Spin case BBBB) were written to HF2BB.
         919 MO integrals (Spin case AABB) were written to HF2AB.
  Transformation of IIJJ integrals :
  2 passes through the AO integral file were required.
        1161 AO integrals were read.
        1053 MO integrals (Spin case AAAA) were written to HF2AA.
        1053 MO integrals (Spin case BBBB) were written to HF2BB.
        2106 MO integrals (Spin case AABB) were written to HF2AB.
  Transformation of IJIJ integrals :
  2 passes through the AO integral file were required.
        1506 AO integrals were read.
        1362 MO integrals (Spin case AAAA) were written to HF2AA.
        1362 MO integrals (Spin case BBBB) were written to HF2BB.
        2526 MO integrals (Spin case AABB) were written to HF2AB.
  Transformation of IJKL integrals :
  2 passes through the AO integral file were required.
        1760 AO integrals were read.
        1626 MO integrals (Spin case AAAA) were written to HF2AA.
        1626 MO integrals (Spin case BBBB) were written to HF2BB.
        3252 MO integrals (Spin case AABB) were written to HF2AB.
  Summary of active molecular orbitals: 
------------------------------------------------------------------------
                         * Spin case alpha *
 
  Index      Eigenvalue    Symmetry    Index      Eigenvalue    Symmetry
------------------------------------------------------------------------
     1        -2.3942928        1        12         1.0648431        2
     2        -1.4136550        2        13        -0.0538884        3
     3        -1.5295667        3        14         1.0032943        3
     4        -1.5295667        5        15         0.8207387        4
     5        -0.1074215        1        16         4.0914658        4
     6         0.7891464        1        17        -0.0538884        5
     7         0.8306966        1        18         1.0032943        5
     8         1.6222634        1        19         0.8207387        6
     9         4.0184194        1        20         4.0914658        6
    10         4.1161616        1        21         0.7891464        7
    11        -0.0420196        2        22         4.0184194        7
------------------------------------------------------------------------
------------------------------------------------------------------------
                         * Spin case beta *
 
  Index      Eigenvalue    Symmetry    Index      Eigenvalue    Symmetry
------------------------------------------------------------------------
     1        -2.0097610        1        12        -0.0178521        3
     2        -1.3109464        2        13         1.2029445        3
     3        -0.0903555        1        14         0.8707010        4
     4         0.8688039        1        15         4.2251422        4
     5         0.8764207        1        16        -0.5042508        5
     6         1.7153071        1        17        -0.0178521        5
     7         4.2168657        1        18         1.2029445        5
     8         4.2506876        1        19         0.8707010        6
     9        -0.0382303        2        20         4.2251422        6
    10         1.0980702        2        21         0.8764207        7
    11        -0.5042508        3        22         4.2506876        7
------------------------------------------------------------------------
  @CHECKOUT-I, Total execution time (CPU/WALL):        0.03/       0.29 seconds.
--executable xvtran finished with status     0 in        0.59 seconds (walltime).
 --invoking executable--
/home/nike/cfour_v2.00beta/bin/xintprc
 @GETMEM-I,  Allocated   13351 MB of main memory.
  Processing integrals for CCSD calculation.
  @GMOIAA-I, Processing MO integrals for spin case AA.
  @GMOIAA-I, Generation of integral list completed.
                      TYPE                NUMBER
                      ----               --------
                      PPPP                  2118
                      PPPH                  1620
                      PPHH                   396
                      PHPH                   276
                      PHHH                   102
                      HHHH                    16

                     TOTAL                  4528
  @GMOIAA-I, Processing MO integrals for spin case BB.
  @GMOIAA-I, Generation of integral list completed.
                      TYPE                NUMBER
                      ----               --------
                      PPPP                  3114
                      PPPH                  1134
                      PPHH                   138
                      PHPH                   114
                      PHHH                    24
                      HHHH                     4

                     TOTAL                  4528
  @GMOIAB-I, Processing MO integrals for spin case AB.
                      TYPE                NUMBER
                      ----               --------
                      PPPP                  4927
                      PPPH1H                2010
                      PPPH2H                 936
                      PPHH                   396
                      PHPH1P                  98
                      PHPH2P                 329
                      PHHH1P                  36
                      PHHH2P                  62
                      HHHH                     9

                     TOTAL                  8803
            ----------------------------------------------
                     Projected spin multiplicities: 
            ----------------------------------------------
             <0|S^2|0>                  =    2.0000000000.
             <0|S^2 T2|0>               =    0.0000000000.
             Projected <0|S^2 exp(T)|0> =    2.0000000000.
             Approximate spin mult.     =    3.0000000000.
            ----------------------------------------------
   Largest T2 amplitudes for spin case AA:
   i   j   a   b             i   j   a   b             i   j   a   b
-----------------------------------------------------------------------------
[  4   2  18  12]-0.01930 [  3   2  14  12]-0.01930 [  4   3  18  14]-0.01868
[  4   3  21   6] 0.01130 [  4   3  22   9] 0.01117 [  2   1  12   8]-0.01099
[  4   1  18   8]-0.01061 [  3   1  14   8]-0.01061 [  3   2  15   7] 0.01000
[  4   2  19   7] 0.01000 [  4   2  20  10]-0.00953 [  3   2  16  10]-0.00953
[  4   2  18  11]-0.00881 [  3   2  14  11]-0.00881 [  4   2  17  12]-0.00839
-----------------------------------------------------------------------------
   Norm of T2AA vector (      120 symmetry allowed elements):  0.0602050782.
-----------------------------------------------------------------------------
   Largest T2 amplitudes for spin case BB:
   i   j   a   b             i   j   a   b             i   j   a   b
-----------------------------------------------------------------------------
[  2   1  10   6]-0.01169 [  2   1  19  16] 0.01040 [  2   1  14  11] 0.01040
[  2   1  20  16]-0.00849 [  2   1  15  11]-0.00849 [  2   1  10   3] 0.00664
[  2   1   9   6]-0.00504 [  2   1   9   3] 0.00348 [  2   1  15  13]-0.00273
[  2   1  20  18]-0.00273 [  2   1  20  17]-0.00260 [  2   1  15  12]-0.00260
[  2   1  19  17] 0.00258 [  2   1  14  12] 0.00258 [  2   1  10   7] 0.00207
-----------------------------------------------------------------------------
   Norm of T2BB vector (       24 symmetry allowed elements):  0.0251163601.
-----------------------------------------------------------------------------
   Largest T2 amplitudes for spin case AB:
       _       _                 _       _                 _       _
   i   j   a   b             i   j   a   b             i   j   a   b
-----------------------------------------------------------------------------
[  2   2  12  10]-0.03039 [  4   2  18  10]-0.02288 [  3   2  14  10]-0.02288
[  2   1  19  16] 0.01819 [  2   1  15  11] 0.01819 [  2   1  12   6]-0.01811
[  4   1   6  16] 0.01758 [  4   1  21  11] 0.01758 [  3   1  21  16] 0.01758
[  3   1   6  11]-0.01758 [  4   1  18   6]-0.01752 [  3   1  14   6]-0.01752
[  1   2   8  10]-0.01735 [  3   1   9  11] 0.01622 [  3   1  22  16]-0.01622
-----------------------------------------------------------------------------
   Norm of T2AB vector (      396 symmetry allowed elements):  0.1159602648.
-----------------------------------------------------------------------------
  @CHECKOUT-I, Total execution time (CPU/WALL):        0.03/       0.29 seconds.
--executable xintprc finished with status     0 in        0.56 seconds (walltime).
 --invoking executable--
/home/nike/cfour_v2.00beta/bin/xint
 @GETMEM-I,  Allocated   13351 MB of main memory.
  @CHECKOUT-I, Total execution time (CPU/WALL):        0.06/       0.07 seconds.
--executable xint finished with status     0 in        0.30 seconds (walltime).
 --invoking executable--
/home/nike/MRCC/dmrcc
 **********************************************************************
                          MRCC program system
 **********************************************************************
 
                              Written by
    Mihaly Kallay, Zoltan Rolik, Jozsef Csontos, Istvan Ladjanszki,
       Lorant Szegedy, Bence Ladoczki, Gyula Samu, Klara Petrov,
        Mate Farkas, Peter Nagy, David Mester, and Bence Hegely
 
        Department of Physical Chemistry and Materials Science
            Budapest University of Technology and Economics
                  Budapest P.O.Box 91, H-1521 Hungary
 
                              www.mrcc.hu

 ************************ 2019-01-02 00:36:13 *************************
 Executing minp...

 Reading input from MINP...
 
 Input file:
 
# F+ 2Z
basis=aVDZ-EMSL
iface=cfour
uncontract=off
calc=CC(6)
mem=15GB
core=1
itol=18
scftol=13
cctol=7
ccmaxit=999
scfmaxit=9999
scfiguess=ao
scftype=ROHF
rohftype=semicanonical
rest=2
charge=+1
refdet=serialno
1,2
3,4

symm=4
mult=3
#occ=3,0,0,0,0,1,0,0/1,0,0,0,0,1,0,0
geom
F

#Li 1 R

#R=3.065

#unit=angstroms

tprint=0.01
verbosity=4
nstate=5

 
 
 Checking keyword combinations...
 
 Keywords:
 
 active=none
 agrid=ld0006-ld0590
 basis=avdz-emsl
 basopt=off
 bpcompo=0.985
 bpcompv=0.98
 bpdfo=0.985
 bpocc=0.985
 bppdo=0.985
 bppdv=0.98
 bpedo=0.985
 bpedv=0.98
 calc=cc(6)
 ccmaxit=999
 ccprog=mrcc
 cctol=7
 charge=+1
 cialg=disk
 ciguess=off
 cmpgrp=auto
 core=1
 corembed=off
 dboc=off
 dendec=cholesky
 dens=0
 dfalg=invsqrt
 dfbasis_cor=none
 dfbasis_scf=none
 dfintran=ovirt
 dft=off
 diag=david
 domrad=10.d0
 drpaalg=fit
 ecp=auto
 edisp=off
 embed=off
 epert=none
 eps=0.975
 excrad=0.d0
 excrad_fin=0.000000000D+00
 freq=off
 gauss=spher
 geom=zmat
 gopt=off
 ghost=none
 gtol=7
 grtol=10
 hamilton=dc
 iface=cfour
 intalg=auto
 itol=18
 lcorthr=loose
 lccrest=off
 lmp2dens=on
 lnoepso=3e-5
 lnoepsv=1e-6
 localcc=off
 locintrf=disk
 maxact=off
 maxex=0
 bfbasis=none
 mem=15gb
 molden=on
 mulmet=0
 mult=3
 nacto=0
 nactv=0
 naf_cor=off
 naf_scf=off
 nafalg=albe
 naftyp=
 nchol=auto
 ndeps=1e-3
 nstate=5
 nsing=0
 ntrip=0
 occ=
 optalg=
 optmaxit=50
 optetol=1e-6
 optgtol=1e-4
 optstol=1e-3
 orblocc=off
 orbloco=off
 orblocv=off
 osveps=1e-3
 ovirt=off
 ovosnorb=80.0
 ptfreq=0.0
 popul=off
 pressure=100000
 qmmm=off
 refdet=serialno
 rest=2
 rgrid=log3
 rohftype=semicanonical
 scspe=1.d0
 scsps=1.2d0
 scspt=0.33333333333333
 scfalg=auto
 scfdamp=off
 scfdiis=on
 scfdiis_end=9999
 scfdiis_start=1
 scfdiis_step=1
 scfdtol=17
 scfext=10
 scfiguess=ao
 scflshift=off
 scfmaxit=9999
 scftype=rohf
 scftol=13
 spairtol=1e-4
 symm=4
 talg=occ
 temp=298.15
 test=off
 tprint=0.01
 uncontract=off
 unit=angs
 verbosity=4
 wpairtol=0.100000000E-05

 ************************ 2019-01-02 00:36:13 *************************
 Executing goldstone...

 Generation of CC equations in terms of H and T...
 Generation of antisymmetrized Goldstone diagrams...
 Number of diagrams in T^1 equations:    15
 Number of diagrams in T^2 equations:    38
 Number of diagrams in T^3 equations:    54
 Number of diagrams in T^4 equations:    81
 Number of diagrams in T^5 equations:   105
 Number of diagrams in T^6 equations:   135
 Translation of diagrams to factorized equations...
 Optimizing intermediate calculation...
 Optimizing right-hand EOMCC calculation...
 Number of floating-point operations per iteration step:   1.1419E+10
 Probable CPU time per iteration step (hours):      0.11
 Required memory (Mbytes):     137.8
 Number of intermediates:                                 469
 Number of intermediates to be stored:                    180
 Length of intermediate file (Mbytes):     299.5

 ************************ 2019-01-02 00:36:15 *************************
 Executing xmrcc...

 **********************************************************************
 CC(                     6 ) calculation 
 
 
 Allocation of 137.8 Mbytes of memory...
 Number of spinorbitals:                    44
 Number of alpha electrons:                        4
 Number of beta electrons:                         2
 z-component of spin:  1.0
 Spatial symmetry:                      4
 Convergence criterion:  1.0E-07
 Spatial symmetry of ground state:                      7
 Construction of occupation graphs...
 Number of                     0 -fold excitations:                      0
 Number of                     1 -fold excitations:                     11
 Number of                     2 -fold excitations:                    501
 Number of                     3 -fold excitations:                   6730
 Number of                     4 -fold excitations:                  38520
 Number of                     5 -fold excitations:                  92900
 Number of                     6 -fold excitations:                  72880
 Total number of configurations:                 211542
 Number of ground state excitations: 
 Number of                     0 -fold excitations:                      1
 Number of                     1 -fold excitations:                     20
 Number of                     2 -fold excitations:                    540
 Number of                     3 -fold excitations:                   6704
 Number of                     4 -fold excitations:                  38649
 Number of                     5 -fold excitations:                  92968
 Number of                     6 -fold excitations:                  72660
 Total number of configurations:                 211542
 Calculation of coupling coefficients...
 Length of intermediate file (Mbytes):     141.6
 
 ======================================================================
 
 ======================================================================
 
 ======================================================================
 
 ======================================================================
 
 ======================================================================
 
 Memory requirements /Mbyte/: 
               Minimal        Optimal
 Real*8:        379.1697       379.1708
 Integer:         5.9608
 Total:         385.1305       385.1316
 

 ************************ 2019-01-02 00:36:35 *************************
 Executing goldstone...

 Generation of CC equations in terms of H and T...
 Generation of antisymmetrized Goldstone diagrams...
 Number of diagrams in T^1 equations:     8
 Translation of diagrams to factorized equations...
 Optimizing intermediate calculation...
 Optimizing right-hand EOMCC calculation...
 Number of floating-point operations per iteration step:   5.6358E+02
 Probable CPU time per iteration step (hours):      0.00
 Required memory (Mbytes):      17.7
 Number of intermediates:                                  19
 Number of intermediates to be stored:                      9
 Length of intermediate file (Mbytes):       0.0

 ************************ 2019-01-02 00:36:35 *************************
 Executing xmrcc...

 **********************************************************************
 CC(                     1 ) calculation 
 
 
 Allocation of 100.0 Mbytes of memory...
 Number of spinorbitals:                    44
 Number of alpha electrons:                        4
 Number of beta electrons:                         2
 z-component of spin:  1.0
 Spatial symmetry:                      4
 Convergence criterion:  1.0E-07
 Spatial symmetry of ground state:                      7
 Construction of occupation graphs...
 Number of                     0 -fold excitations:                      0
 Number of                     1 -fold excitations:                     11
 Total number of configurations:                     11
 Number of ground state excitations: 
 Number of                     0 -fold excitations:                      1
 Number of                     1 -fold excitations:                     20
 Total number of configurations:                     21
 Calculation of coupling coefficients...
 Length of intermediate file (Mbytes):       0.1
 
 ======================================================================
 
 ======================================================================
 
 ======================================================================
 
 ======================================================================
 
 ======================================================================
 
 Memory requirements /Mbyte/: 
               Minimal        Optimal
 Real*8:          0.0886         1.7985
 Integer:         3.2879
 Total:           3.3765         5.0864
 

 ************************ 2019-01-02 00:36:35 *************************
 Executing mrcc...

 **********************************************************************
 LR-CCS calculation                                                     
 
 
 OpenMP parallel version is running.
 Number of CPUs:  16
 Allocation of    1.8 Mbytes of memory...
 Number of spinorbitals:  44
 Number of alpha electrons:  4
 Number of beta  electrons:  2
 z-component of spin:  1.0
 Spatial symmetry: 4
 Convergence criterion:  1.0E-07
 Spatial symmetry of ground state:                      7
 Construction of occupation graphs...
 Number of excitations for irrep 1: 
 Number of 0-fold excitations: 1
 Number of 1-fold excitations: 20
 Total number of determinants: 21
 Number of excitations for irrep 6: 
 Number of 0-fold excitations: 0
 Number of 1-fold excitations: 11
 Total number of determinants: 11
 Calculation of coupling coefficients...
 Initial cluster amplitudes are generated.
 Length of intermediate file (Mbytes):       0.1
 Reading integral list from unit 55...
 Sorting integrals...
 Sorting integrals...
 Sorting integrals...
 Sorting integrals...
 Energy of reference determinant [au]:     -98.795739005035
 Calculation of diagonal elements of Hamiltonian...
 Calculation of MP denominators...
 
 Starting CC iteration...
 ======================================================================
 Norm of residual vector:     0.13728548
 CPU time [min]:     0.140                   Wall time [min]:     0.010
 
 Iteration  1  CC energy:   -98.80007566  Energy decrease:   0.00433666
 ======================================================================
 Norm of residual vector:     0.02809888
 CPU time [min]:     0.141                   Wall time [min]:     0.010
 
 Iteration  2  CC energy:   -98.80130176  Energy decrease:   0.00122610
 ======================================================================
 Norm of residual vector:     0.00299417
 CPU time [min]:     0.142                   Wall time [min]:     0.010
 
 Iteration  3  CC energy:   -98.80132985  Energy decrease:   0.00002809
 ======================================================================
 Norm of residual vector:     0.00020318
 CPU time [min]:     0.143                   Wall time [min]:     0.010
 
 Iteration  4  CC energy:   -98.80133139  Energy decrease:   0.00000154
 ======================================================================
 Norm of residual vector:     0.00001223
 CPU time [min]:     0.144                   Wall time [min]:     0.010
 
 Iteration  5  CC energy:   -98.80133139  Energy decrease:   3.6328E-09
 ======================================================================
 Norm of residual vector:     0.00000101
 CPU time [min]:     0.145                   Wall time [min]:     0.010
 
 Iteration  6  CC energy:   -98.80133139  Energy decrease:   3.5066E-09
 ======================================================================
 Norm of residual vector:     0.00000007
 CPU time [min]:     0.145                   Wall time [min]:     0.011
 
 Iteration  7  CC energy:   -98.80133139  Energy decrease:   3.0148E-10
 ======================================================================
 
 Iteration has converged in  7 steps.
 
 Final results:
 Total CCS energy [au]:              -98.801331390055
 Spin multiplicity:                     2
 
 
 
 Dominant cluster amplitudes
 Printing threshold:  1.00E-02
 
    1.000000  Reference determinant                                     
    0.015368  1b -> 5b                                                  
    0.017867  1b -> 10b                                                 
   -0.014924  1b -> 17b                                                 
    0.014061  1b -> 18b                                                 
   -0.010982  2b -> 16b                                                 
   -0.013042  1a -> 5a                                                  
   -0.015748  1a -> 13a                                                 
    0.013797  1a -> 17a                                                 
   -0.013098  1a -> 22a                                                 
    0.010318  2a -> 16a                                                 
 
 Starting right-hand LR-CC iteration for root                      2 ...
 ======================================================================
 Norm of residual vector:     0.26286150      Convergence:   1.00000000
 CPU time [min]:     0.180                   Wall time [min]:     0.013
 
 Iteration  1  CI energy:   -98.75150847  Energy decrease:   0.04982292
 ======================================================================
 Norm of residual vector:     0.01410747      Convergence:   0.20774151
 CPU time [min]:     0.185                   Wall time [min]:     0.013
 
 Iteration  2  CI energy:   -98.80302802  Energy decrease:   0.05151955
 ======================================================================
 Norm of residual vector:     0.00062646      Convergence:   0.00541064
 CPU time [min]:     0.190                   Wall time [min]:     0.014
 
 Iteration  3  CI energy:   -98.80309584  Energy decrease:   0.00006782
 ======================================================================
 Norm of residual vector:     0.00005276      Convergence:   0.00040997
 CPU time [min]:     0.191                   Wall time [min]:     0.014
 
 Iteration  4  CI energy:   -98.80309626  Energy decrease:   0.00000042
 ======================================================================
 Norm of residual vector:     0.00000135      Convergence:   0.00002494
 CPU time [min]:     0.192                   Wall time [min]:     0.014
 
 Iteration  5  CI energy:   -98.80309627  Energy decrease:   0.00000001
 ======================================================================
 Norm of residual vector:     0.0000E+00      Convergence:   3.7859E-07
 CPU time [min]:     0.193                   Wall time [min]:     0.014
 
 Iteration  6  CI energy:   -98.80309627  Energy decrease:   8.4867E-11
 ======================================================================
 
 Iteration has converged in  6 steps.
 
 Final results:
 Total LR-CCS energy [au]:           -98.803096266197
 Excitation energy [eV]:          -0.0480
 Excitation energy [cm^-1]:     -387.35
 Absorption wavelength [nm]:  -25816.74
 Spin multiplicity:                     2
 
 
 
 Dominant CI coefficients
 Printing threshold:  1.00E-02
 
    0.978356  2b -> 3b                                                  
    0.167055  2b -> 7b                                                  
    0.118226  2b -> 15b                                                 
   -0.018175  1b -> 11b                                                 
    0.012508  1b -> 20b                                                 
    0.011402  1a -> 11a                                                 
   -0.010934  1a -> 20a                                                 
 
 Starting right-hand LR-CC iteration for root                      3 ...
 ======================================================================
 Norm of residual vector:     0.21007802      Convergence:   1.00000000
 CPU time [min]:     0.194                   Wall time [min]:     0.014
 
 Iteration  1  CI energy:   -97.82898746  Energy decrease:   0.97234393
 ======================================================================
 Norm of residual vector:     0.18935521      Convergence:   0.02363263
 CPU time [min]:     0.195                   Wall time [min]:     0.014
 
 Iteration  2  CI energy:   -97.82910527  Energy decrease:   0.00011781
 ======================================================================
 Norm of residual vector:     0.00387942      Convergence:   0.04725877
 CPU time [min]:     0.196                   Wall time [min]:     0.014
 
 Iteration  3  CI energy:   -97.82058061  Energy decrease:   0.00852466
 ======================================================================
 Norm of residual vector:     0.00127735      Convergence:   0.01018930
 CPU time [min]:     0.197                   Wall time [min]:     0.014
 
 Iteration  4  CI energy:   -97.82059591  Energy decrease:   0.00001530
 ======================================================================
 Norm of residual vector:     0.00044107      Convergence:   0.00125921
 CPU time [min]:     0.198                   Wall time [min]:     0.014
 
 Iteration  5  CI energy:   -97.82059731  Energy decrease:   0.00000140
 ======================================================================
 Norm of residual vector:     0.00002118      Convergence:   0.00032199
 CPU time [min]:     0.199                   Wall time [min]:     0.014
 
 Iteration  6  CI energy:   -97.82059743  Energy decrease:   0.00000012
 ======================================================================
 Norm of residual vector:     0.00000254      Convergence:   0.00002687
 CPU time [min]:     0.200                   Wall time [min]:     0.014
 
 Iteration  7  CI energy:   -97.82059744  Energy decrease:   1.3839E-09
 ======================================================================
 Norm of residual vector:     0.00000028      Convergence:   0.00000174
 CPU time [min]:     0.201                   Wall time [min]:     0.014
 
 Iteration  8  CI energy:   -97.82059744  Energy decrease:   2.0916E-10
 ======================================================================
 Norm of residual vector:     0.0000E+00      Convergence:   2.7950E-07
 CPU time [min]:     0.202                   Wall time [min]:     0.014
 
 Iteration  9  CI energy:   -97.82059744  Energy decrease:   4.8601E-11
 ======================================================================
 
 Iteration has converged in  9 steps.
 
 Final results:
 Total LR-CCS energy [au]:           -97.820597435522
 Excitation energy [eV]:          26.6871
 Excitation energy [cm^-1]:   215246.24
 Absorption wavelength [nm]:      46.46
 Spin multiplicity:                     2
 
 
 
 Dominant CI coefficients
 Printing threshold:  1.00E-02
 
   -0.182089  2b -> 3b                                                  
    0.973686  2b -> 7b                                                  
    0.126556  2b -> 15b                                                 
   -0.016599  3a -> 8a                                                  
   -0.045580  2a -> 7a                                                  
   -0.014049  2a -> 15a                                                 
 
 Starting right-hand LR-CC iteration for root                      4 ...
 ======================================================================
 Norm of residual vector:     0.11784661      Convergence:   1.00000000
 CPU time [min]:     0.203                   Wall time [min]:     0.014
 
 Iteration  1  CI energy:   -97.60178867  Energy decrease:   1.19954272
 ======================================================================
 Norm of residual vector:     0.00825331      Convergence:   0.14903560
 CPU time [min]:     0.204                   Wall time [min]:     0.014
 
 Iteration  2  CI energy:   -97.61863981  Energy decrease:   0.01685114
 ======================================================================
 Norm of residual vector:     0.00244237      Convergence:   0.01075396
 CPU time [min]:     0.205                   Wall time [min]:     0.014
 
 Iteration  3  CI energy:   -97.61863382  Energy decrease:   0.00000599
 ======================================================================
 Norm of residual vector:     0.00235835      Convergence:   0.00265395
 CPU time [min]:     0.206                   Wall time [min]:     0.014
 
 Iteration  4  CI energy:   -97.61863729  Energy decrease:   0.00000347
 ======================================================================
 Norm of residual vector:     0.00007840      Convergence:   0.00054448
 CPU time [min]:     0.207                   Wall time [min]:     0.015
 
 Iteration  5  CI energy:   -97.61863852  Energy decrease:   0.00000123
 ======================================================================
 Norm of residual vector:     0.00006005      Convergence:   0.00025190
 CPU time [min]:     0.208                   Wall time [min]:     0.015
 
 Iteration  6  CI energy:   -97.61863854  Energy decrease:   0.00000002
 ======================================================================
 Norm of residual vector:     0.00002496      Convergence:   0.00003150
 CPU time [min]:     0.209                   Wall time [min]:     0.015
 
 Iteration  7  CI energy:   -97.61863854  Energy decrease:   0.00000001
 ======================================================================
 Norm of residual vector:     0.00000142      Convergence:   0.00001398
 CPU time [min]:     0.210                   Wall time [min]:     0.015
 
 Iteration  8  CI energy:   -97.61863854  Energy decrease:   2.2138E-09
 ======================================================================
 Norm of residual vector:     0.0000E+00      Convergence:   4.4191E-07
 CPU time [min]:     0.211                   Wall time [min]:     0.015
 
 Iteration  9  CI energy:   -97.61863854  Energy decrease:   3.3135E-10
 ======================================================================
 
 Iteration has converged in  9 steps.
 
 Final results:
 Total LR-CCS energy [au]:           -97.618638540662
 Excitation energy [eV]:          32.1827
 Excitation energy [cm^-1]:   259571.10
 Absorption wavelength [nm]:      38.53
 Spin multiplicity:                     2
 
 
 
 Dominant CI coefficients
 Printing threshold:  1.00E-02
 
    0.019060  2b -> 7b                                                  
    0.988383  3a -> 8a                                                  
    0.145779  3a -> 16a                                                 
   -0.035477  2a -> 7a                                                  
    0.010103  1a -> 11a                                                 
 
 Starting right-hand LR-CC iteration for root                      5 ...
 ======================================================================
 Norm of residual vector:     0.25223638      Convergence:   1.00000000
 CPU time [min]:     0.212                   Wall time [min]:     0.015
 
 Iteration  1  CI energy:   -96.97986221  Energy decrease:   1.82146918
 ======================================================================
 Norm of residual vector:     0.07911770      Convergence:   0.49209099
 CPU time [min]:     0.213                   Wall time [min]:     0.015
 
 Iteration  2  CI energy:   -96.94486729  Energy decrease:   0.03499492
 ======================================================================
 Norm of residual vector:     0.00901527      Convergence:   0.09999640
 CPU time [min]:     0.214                   Wall time [min]:     0.015
 
 Iteration  3  CI energy:   -96.93896038  Energy decrease:   0.00590691
 ======================================================================
 Norm of residual vector:     0.00182474      Convergence:   0.01225043
 CPU time [min]:     0.215                   Wall time [min]:     0.015
 
 Iteration  4  CI energy:   -96.93898461  Energy decrease:   0.00002423
 ======================================================================
 Norm of residual vector:     0.00546415      Convergence:   0.00427439
 CPU time [min]:     0.216                   Wall time [min]:     0.015
 
 Iteration  5  CI energy:   -96.93898627  Energy decrease:   0.00000167
 ======================================================================
 Norm of residual vector:     0.00096672      Convergence:   0.00166126
 CPU time [min]:     0.217                   Wall time [min]:     0.015
 
 Iteration  6  CI energy:   -96.93898347  Energy decrease:   0.00000280
 ======================================================================
 Norm of residual vector:     0.00014281      Convergence:   0.00028825
 CPU time [min]:     0.218                   Wall time [min]:     0.015
 
 Iteration  7  CI energy:   -96.93898307  Energy decrease:   0.00000040
 ======================================================================
 Norm of residual vector:     0.00000678      Convergence:   0.00005282
 CPU time [min]:     0.219                   Wall time [min]:     0.015
 
 Iteration  8  CI energy:   -96.93898307  Energy decrease:   0.00000001
 ======================================================================
 Norm of residual vector:     0.00000240      Convergence:   0.00000629
 CPU time [min]:     0.220                   Wall time [min]:     0.015
 
 Iteration  9  CI energy:   -96.93898307  Energy decrease:   1.5443E-10
 ======================================================================
 Norm of residual vector:     0.0000E+00      Convergence:   2.5177E-07
 CPU time [min]:     0.221                   Wall time [min]:     0.015
 
 Iteration 10  CI energy:   -96.93898307  Energy decrease:   3.9819E-11
 ======================================================================
 
 Iteration has converged in 10 steps.
 
 Final results:
 Total LR-CCS energy [au]:           -96.938983068366
 Excitation energy [eV]:          50.6771
 Excitation energy [cm^-1]:   408738.24
 Absorption wavelength [nm]:      24.47
 Spin multiplicity:                     2
 
 Dominant CI coefficients
 Printing threshold:  1.00E-02
 
   -0.085371  2b -> 3b                                                  
   -0.133508  2b -> 7b                                                  
    0.917983  2b -> 15b                                                 
    0.068127  1b -> 11b                                                 
    0.020585  3a -> 8a                                                  
   -0.088159  3a -> 16a                                                 
   -0.042732  2a -> 7a                                                  
    0.342677  2a -> 15a                                                 

 ************************ 2019-01-02 00:36:38 *************************
 Executing goldstone...

 Generation of CC equations in terms of H and T...
 Generation of antisymmetrized Goldstone diagrams...
 Number of diagrams in T^1 equations:    14
 Number of diagrams in T^2 equations:    31
 Translation of diagrams to factorized equations...
 Optimizing intermediate calculation...
 Optimizing right-hand EOMCC calculation...
 Number of floating-point operations per iteration step:   3.6424E+05
 Probable CPU time per iteration step (hours):      0.00
 Required memory (Mbytes):      17.7
 Number of intermediates:                                  84
 Number of intermediates to be stored:                     36
 Length of intermediate file (Mbytes):       0.6

 ************************ 2019-01-02 00:36:41 *************************
 Executing xmrcc...

 **********************************************************************
 CC(                     2 ) calculation 
 
 
 Allocation of 100.0 Mbytes of memory...
 Number of spinorbitals:                    44
 Number of alpha electrons:                        4
 Number of beta electrons:                         2
 z-component of spin:  1.0
 Spatial symmetry:                      4
 Convergence criterion:  1.0E-07
 Spatial symmetry of ground state:                      7
 Construction of occupation graphs...
 Number of                     0 -fold excitations:                      0
 Number of                     1 -fold excitations:                     11
 Number of                     2 -fold excitations:                    501
 Total number of configurations:                    512
 Number of ground state excitations: 
 Number of                     0 -fold excitations:                      1
 Number of                     1 -fold excitations:                     20
 Number of                     2 -fold excitations:                    540
 Total number of configurations:                    561
 Calculation of coupling coefficients...
 Length of intermediate file (Mbytes):       0.8
 
 ======================================================================
 
 ======================================================================
 
 ======================================================================
 
 ======================================================================
 
 ======================================================================
 
 Memory requirements /Mbyte/: 
               Minimal        Optimal
 Real*8:          0.5911         2.2318
 Integer:         3.4444
 Total:           4.0355         5.6762
 

 ************************ 2019-01-02 00:36:42 *************************
 Executing mrcc...

 **********************************************************************
 LR-CCSD calculation                                                    
 
 
 OpenMP parallel version is running.
 Number of CPUs:  16
 Allocation of    2.2 Mbytes of memory...
 Number of spinorbitals:  44
 Number of alpha electrons:  4
 Number of beta  electrons:  2
 z-component of spin:  1.0
 Spatial symmetry: 4
 Convergence criterion:  1.0E-07
 Spatial symmetry of ground state:                      7
 Construction of occupation graphs...
 Number of excitations for irrep 1: 
 Number of 0-fold excitations: 1
 Number of 1-fold excitations: 20
 Number of 2-fold excitations: 540
 Total number of determinants: 561
 Number of excitations for irrep 6: 
 Number of 0-fold excitations: 0
 Number of 1-fold excitations: 11
 Number of 2-fold excitations: 501
 Total number of determinants: 512
 Calculation of coupling coefficients...
 Initial cluster amplitudes are read from unit 16.
 Length of intermediate file (Mbytes):       0.8
 Reading integral list from unit 55...
 Sorting integrals...
 Sorting integrals...
 Sorting integrals...
 Sorting integrals...
 Energy of reference determinant [au]:     -98.795739005035
 Calculation of diagonal elements of Hamiltonian...
 Calculation of MP denominators...
 
 Starting CC iteration...
 ======================================================================
 Norm of residual vector:     0.83227707
 CPU time [min]:     0.081                   Wall time [min]:     0.005
 
 Iteration  1  CC energy:   -98.90546176  Energy decrease:   0.10401592
 ======================================================================
 Norm of residual vector:     0.11463752
 CPU time [min]:     0.097                   Wall time [min]:     0.006
 
 Iteration  2  CC energy:   -98.91815819  Energy decrease:   0.01269643
 ======================================================================
 Norm of residual vector:     0.02352320
 CPU time [min]:     0.114                   Wall time [min]:     0.008
 
 Iteration  3  CC energy:   -98.91961932  Energy decrease:   0.00146113
 ======================================================================
 Norm of residual vector:     0.00652067
 CPU time [min]:     0.130                   Wall time [min]:     0.009
 
 Iteration  4  CC energy:   -98.91976491  Energy decrease:   0.00014559
 ======================================================================
 Norm of residual vector:     0.00204431
 CPU time [min]:     0.147                   Wall time [min]:     0.010
 
 Iteration  5  CC energy:   -98.91977162  Energy decrease:   0.00000671
 ======================================================================
 Norm of residual vector:     0.00050276
 CPU time [min]:     0.164                   Wall time [min]:     0.011
 
 Iteration  6  CC energy:   -98.91977290  Energy decrease:   0.00000128
 ======================================================================
 Norm of residual vector:     0.00012734
 CPU time [min]:     0.180                   Wall time [min]:     0.012
 
 Iteration  7  CC energy:   -98.91977447  Energy decrease:   0.00000157
 ======================================================================
 Norm of residual vector:     0.00003128
 CPU time [min]:     0.197                   Wall time [min]:     0.013
 
 Iteration  8  CC energy:   -98.91977452  Energy decrease:   0.00000005
 ======================================================================
 Norm of residual vector:     0.00000626
 CPU time [min]:     0.214                   Wall time [min]:     0.014
 
 Iteration  9  CC energy:   -98.91977442  Energy decrease:   0.00000010
 ======================================================================
 Norm of residual vector:     0.00000124
 CPU time [min]:     0.231                   Wall time [min]:     0.015
 
 Iteration 10  CC energy:   -98.91977441  Energy decrease:   4.5732E-09
 ======================================================================
 Norm of residual vector:     0.00000018
 CPU time [min]:     0.247                   Wall time [min]:     0.016
 
 Iteration 11  CC energy:   -98.91977442  Energy decrease:   2.7063E-09
 ======================================================================
 Norm of residual vector:     0.00000004
 CPU time [min]:     0.264                   Wall time [min]:     0.017
 
 Iteration 12  CC energy:   -98.91977442  Energy decrease:   4.4955E-10
 ======================================================================
 
 Iteration has converged in 12 steps.
 
 Final results:
 Total CCSD energy [au]:             -98.919774416425
 Spin multiplicity:                     2
 
 
 
 Dominant cluster amplitudes
 Printing threshold:  1.00E-02
 
    1.000000  Reference determinant                                     
    0.017008  1b -> 5b                                                  
    0.012581  1b -> 10b                                                 
   -0.013430  1b -> 17b                                                 
    0.010265  1b -> 18b                                                 
   -0.016976  2b -> 8b                                                  
   -0.015974  2b -> 16b                                                 
   -0.013898  1a -> 13a                                                 
    0.012089  1a -> 17a                                                 
   -0.012609  1a -> 22a                                                 
    0.012630  1b 2b -> 3b 11b                                           
    0.012630  1b 2b -> 4b 12b                                           
    0.010643  1b 2b -> 16b 17b                                          
   -0.014784  1a 1b -> 17a 17b                                          
   -0.014575  2a 2b -> 13a 10b                                          
   -0.010157  2a 2b -> 13a 18b                                          
   -0.014163  2a 2b -> 22a 18b                                          
   -0.015604  2a 2b -> 16a 8b                                           
   -0.015134  2a 2b -> 8a 16b                                           
   -0.034552  2a 2b -> 16a 16b                                          
   -0.011290  2a 2b -> 12a 12b                                          
   -0.010955  2a 2b -> 21a 21b                                          
   -0.011290  2a 2b -> 11a 11b                                          
   -0.010955  2a 2b -> 20a 20b                                          
    0.011327  1a 2b -> 5a 16b                                           
   -0.019557  1a 2b -> 17a 16b                                          
    0.011507  2a 1b -> 16a 5b                                           
   -0.019295  2a 1b -> 16a 17b                                          
    0.022630  2a 1b -> 12a 4b                                           
   -0.018761  2a 1b -> 21a 4b                                           
    0.022630  2a 1b -> 11a 3b                                           
   -0.018761  2a 1b -> 20a 3b                                           
    0.011045  4a 1b -> 5a 4b                                            
   -0.023423  4a 1b -> 10a 4b                                           
    0.012508  4a 1b -> 13a 4b                                           
   -0.010559  4a 1b -> 17a 4b                                           
    0.019272  4a 1b -> 18a 4b                                           
    0.010357  4a 1b -> 22a 4b                                           
    0.011103  4a 1b -> 14a 5b                                           
   -0.018743  4a 1b -> 14a 17b                                          
    0.023423  4a 1b -> 9a 3b                                            
   -0.019272  4a 1b -> 19a 3b                                           
   -0.011595  4a 2b -> 14a 8b                                           
   -0.011009  4a 2b -> 6a 16b                                           
   -0.025108  4a 2b -> 14a 16b                                          
    0.011045  3a 1b -> 5a 3b                                            
    0.023423  3a 1b -> 10a 3b                                           
    0.012508  3a 1b -> 13a 3b                                           
   -0.010559  3a 1b -> 17a 3b                                           
   -0.019272  3a 1b -> 18a 3b                                           
    0.010357  3a 1b -> 22a 3b                                           
    0.011103  3a 1b -> 15a 5b                                           
   -0.018743  3a 1b -> 15a 17b                                          
    0.023423  3a 1b -> 9a 4b                                            
   -0.019272  3a 1b -> 19a 4b                                           
   -0.011595  3a 2b -> 15a 8b                                           
   -0.011009  3a 2b -> 7a 16b                                           
[...]
    0.120440  4a 2b -> 6a 3b                                            
    0.015909  4a 2b -> 14a 3b                                           
    0.027851  4a 2b -> 6a 7b                                            
    0.025624  4a 2b -> 6a 15b                                           
    0.119935  4a 2b -> 7a 4b                                            
    0.015042  4a 2b -> 15a 4b                                           
    0.027794  4a 2b -> 7a 6b                                            
    0.025690  4a 2b -> 7a 14b                                           
   -0.031494  2a 3a -> 7a 15a                                           
    0.038332  2a 3a -> 8a 16a                                           
    0.015047  1a 3a -> 5a 8a                                            
    0.017238  1a 3a -> 8a 17a                                           
    0.022201  3a 4a -> 6a 8a                                            
   -0.034271  3a 4a -> 8a 14a                                           
    0.014961  1a 2a -> 5a 7a                                            
    0.011634  1a 2a -> 8a 11a                                           
    0.017413  1a 2a -> 7a 17a                                           
   -0.010834  1a 2a -> 8a 20a                                           
    0.022155  2a 4a -> 6a 7a                                            
   -0.033115  2a 4a -> 7a 14a                                           
    0.016919  3a 1b 2b -> 7a 3b 5b                                      
   -0.017506  3a 1b 2b -> 7a 3b 17b                                     
   -0.022365  2a 1b 2b -> 8a 3b 5b                                      
    0.022911  2a 1b 2b -> 8a 3b 17b                                     
   -0.011466  1a 3a 2b -> 5a 7a 3b                                      
   -0.013379  1a 3a 2b -> 7a 17a 3b                                     
   -0.011070  2a 3a 1b -> 8a 20a 3b                                     
   -0.011241  2a 3a 2b -> 6a 16a 4b                                     
   -0.027092  2a 3a 2b -> 8a 15a 3b                                     
   -0.034127  2a 3a 2b -> 7a 16a 3b                                     
   -0.011317  3a 4a 2b -> 7a 15a 4b                                     
   -0.022075  3a 4a 2b -> 6a 7a 3b                                      
    0.027046  3a 4a 2b -> 7a 14a 3b                                     
    0.015151  1a 2a 2b -> 5a 8a 3b                                      
    0.017945  1a 2a 2b -> 8a 17a 3b                                     
    0.010792  2a 4a 1b -> 8a 12a 3b                                     
   -0.010851  2a 4a 1b -> 8a 21a 3b                                     
    0.014684  2a 4a 2b -> 6a 8a 3b                                      
   -0.034352  2a 4a 2b -> 8a 14a 3b                                     
   -0.010811  2a 4a 2b -> 6a 16a 3b                                     
   -0.011744  2a 4a 2b -> 7a 8a 4b                                      
   -0.012001  2a 4a 2b -> 7a 16a 4b                                     
 
 Starting right-hand LR-CC iteration for root                      5 ...
 ======================================================================
 Norm of residual vector:     0.00271469      Convergence:   1.00000000
 CPU time [min]:   335.128                   Wall time [min]:    22.624
 
 Iteration  1  CI energy:   -97.16070003  Energy decrease:   1.76048408
 ======================================================================
 Norm of residual vector:     0.00043239      Convergence:   0.00023773
 CPU time [min]:   342.279                   Wall time [min]:    23.147
 
 Iteration  2  CI energy:   -97.16070022  Energy decrease:   0.00000019
 ======================================================================
 Norm of residual vector:     0.00009598      Convergence:   0.00004359
 CPU time [min]:   349.286                   Wall time [min]:    23.638
 
 Iteration  3  CI energy:   -97.16069985  Energy decrease:   0.00000037
 ======================================================================
 Norm of residual vector:     0.00002688      Convergence:   0.00001435
 CPU time [min]:   356.326                   Wall time [min]:    24.112
 
 Iteration  4  CI energy:   -97.16069941  Energy decrease:   0.00000043
 ======================================================================
 Norm of residual vector:     0.00001273      Convergence:   0.00001182
 CPU time [min]:   363.365                   Wall time [min]:    24.582
 
 Iteration  5  CI energy:   -97.16069938  Energy decrease:   0.00000004
 ======================================================================
 Norm of residual vector:     0.00030081      Convergence:   0.00017451
 CPU time [min]:   370.275                   Wall time [min]:    25.044
 
 Iteration  6  CI energy:   -97.16069987  Energy decrease:   0.00000049
 ======================================================================
 Norm of residual vector:     0.00025225      Convergence:   0.00001377
 CPU time [min]:   377.071                   Wall time [min]:    25.490
 
 Iteration  7  CI energy:   -97.16069981  Energy decrease:   0.00000006
 ======================================================================
 Norm of residual vector:     0.00000746      Convergence:   0.00000588
 CPU time [min]:   383.966                   Wall time [min]:    25.952
 
 Iteration  8  CI energy:   -97.16069935  Energy decrease:   0.00000046
 ======================================================================
 Norm of residual vector:     0.00000582      Convergence:   0.00000427
 CPU time [min]:   390.884                   Wall time [min]:    26.441
 
 Iteration  9  CI energy:   -97.16069939  Energy decrease:   0.00000004
 ======================================================================
 Norm of residual vector:     0.00000463      Convergence:   0.00000250
 CPU time [min]:   397.944                   Wall time [min]:    26.946
 
 Iteration 10  CI energy:   -97.16069938  Energy decrease:   0.00000001
 ======================================================================
 Norm of residual vector:     0.00000577      Convergence:   0.00000118
 CPU time [min]:   404.985                   Wall time [min]:    27.417
 
 Iteration 11  CI energy:   -97.16069939  Energy decrease:   3.9389E-09
 ======================================================================
 Norm of residual vector:     0.00009076      Convergence:   0.00004649
 CPU time [min]:   411.548                   Wall time [min]:    27.844
 
 Iteration 12  CI energy:   -97.16069925  Energy decrease:   0.00000014
 ======================================================================
 Norm of residual vector:     0.00000259      Convergence:   0.00000216
 CPU time [min]:   418.520                   Wall time [min]:    28.318
 
 Iteration 13  CI energy:   -97.16069938  Energy decrease:   0.00000013
 ======================================================================
 Norm of residual vector:     0.00000161      Convergence:   0.00000114
 CPU time [min]:   425.572                   Wall time [min]:    28.780
 
 Iteration 14  CI energy:   -97.16069939  Energy decrease:   0.00000001
 ======================================================================
 Norm of residual vector:     0.00000157      Convergence:   0.00000115
 CPU time [min]:   432.909                   Wall time [min]:    29.303
 
 Iteration 15  CI energy:   -97.16069939  Energy decrease:   5.9792E-10
 ======================================================================
 Norm of residual vector:     0.00001365      Convergence:   0.00001071
 CPU time [min]:   439.946                   Wall time [min]:    29.786
 
 Iteration 16  CI energy:   -97.16069934  Energy decrease:   0.00000005
 ======================================================================
 Norm of residual vector:     0.00000238      Convergence:   0.00000188
 CPU time [min]:   446.980                   Wall time [min]:    30.261
 
 Iteration 17  CI energy:   -97.16069939  Energy decrease:   0.00000005
 ======================================================================
 Norm of residual vector:     0.00000154      Convergence:   0.00000054
 CPU time [min]:   453.951                   Wall time [min]:    30.725
 
 Iteration 18  CI energy:   -97.16069939  Energy decrease:   0.00000001
 ======================================================================
 Norm of residual vector:     0.00000107      Convergence:   0.00000026
 CPU time [min]:   461.064                   Wall time [min]:    31.187
 
 Iteration 19  CI energy:   -97.16069939  Energy decrease:   1.2665E-09
 ======================================================================
 Norm of residual vector:     0.00000132      Convergence:   0.00000022
 CPU time [min]:   468.045                   Wall time [min]:    31.644
 
 Iteration 20  CI energy:   -97.16069939  Energy decrease:   8.7319E-10
 ======================================================================
 Norm of residual vector:     0.00000115      Convergence:   0.00000083
 CPU time [min]:   475.122                   Wall time [min]:    32.106
 
 Iteration 21  CI energy:   -97.16069938  Energy decrease:   0.00000001
 ======================================================================
 Norm of residual vector:     0.00000431      Convergence:   0.00000183
 CPU time [min]:   481.894                   Wall time [min]:    32.553
 
 Iteration 22  CI energy:   -97.16069938  Energy decrease:   1.7415E-09
 ======================================================================
 Norm of residual vector:     0.00000820      Convergence:   0.00000455
 CPU time [min]:   488.960                   Wall time [min]:    33.017
 
 Iteration 23  CI energy:   -97.16069934  Energy decrease:   0.00000004
 ======================================================================
 Norm of residual vector:     0.00001806      Convergence:   0.00000497
 CPU time [min]:   496.194                   Wall time [min]:    33.491
 
 Iteration 24  CI energy:   -97.16069929  Energy decrease:   0.00000005
 ======================================================================
 Complex root in matrix diagonalization.
 Norm of residual vector:     0.00000576      Convergence:   0.00000044
 CPU time [min]:   503.272                   Wall time [min]:    33.958
 
 Iteration 25  CI energy:   -97.16069936  Energy decrease:   0.00000007
 ======================================================================
 Norm of residual vector:     0.00000167      Convergence:   0.00000090
 CPU time [min]:   510.358                   Wall time [min]:    34.424
 
 Iteration 26  CI energy:   -97.16069938  Energy decrease:   0.00000002
 ======================================================================
 Norm of residual vector:     0.00000083      Convergence:   0.00000033
 CPU time [min]:   517.545                   Wall time [min]:    34.893
 
 Iteration 27  CI energy:   -97.16069939  Energy decrease:   0.00000001
 ======================================================================
 Norm of residual vector:     0.0000E+00      Convergence:   1.0431E-07
 CPU time [min]:   524.875                   Wall time [min]:    35.380
 
 Iteration 28  CI energy:   -97.16069939  Energy decrease:   9.9040E-10
 ======================================================================
 
 Iteration has converged in 28 steps.
 
 Final results:
 Total LR-CC(6) energy [au]:         -97.160699385880
 Excitation energy [eV]:          47.9052
 Excitation energy [cm^-1]:   386381.76
 Absorption wavelength [nm]:      25.88
 Spin multiplicity:                     2
 
 Dominant CI coefficients
 Printing threshold:  1.00E-02
 
   -0.045292  2b -> 3b                                                  
   -0.109160  2b -> 7b                                                  
    0.682804  2b -> 15b                                                 
    0.035642  1b -> 11b                                                 
    0.013717  3a -> 8a                                                  
   -0.086580  3a -> 16a                                                 
   -0.045018  2a -> 7a                                                  
    0.355858  2a -> 15a                                                 
    0.014543  1a -> 11a                                                 
   -0.073385  1b 2b -> 3b 5b                                            
    0.024663  1b 2b -> 5b 7b                                            
   -0.034316  1b 2b -> 4b 9b                                            
   -0.021558  1b 2b -> 3b 10b                                           
   -0.034316  1b 2b -> 3b 13b                                           
   -0.034215  1b 2b -> 3b 17b                                           
   -0.013604  1b 2b -> 15b 17b                                          
   -0.017581  3a 2b -> 10a 5b                                           
   -0.010120  3a 2b -> 13a 5b                                           
   -0.016537  3a 2b -> 5a 13b                                           
    0.013290  3a 2b -> 10a 17b                                          
    0.011245  3a 2b -> 6a 4b                                            
   -0.083513  3a 2b -> 14a 4b                                           
   -0.017996  3a 2b -> 14a 6b                                           
   -0.016105  3a 2b -> 14a 14b                                          
    0.029257  3a 2b -> 7a 3b                                            
   -0.022052  3a 2b -> 15a 3b                                           
   -0.021877  3a 2b -> 15a 7b                                           
    0.020699  3a 2b -> 7a 15b                                           
    0.023430  3a 2b -> 15a 15b                                          
   -0.015461  3a 1b -> 11a 15b                                          
    0.015361  3a 1b -> 20a 15b                                          
    0.135724  1a 2b -> 5a 3b                                            
    0.013118  1a 2b -> 10a 3b                                           
   -0.042751  1a 2b -> 17a 3b                                           
    0.039728  1a 2b -> 5a 7b                                            
   -0.018124  1a 2b -> 17a 7b                                           
    0.012374  1a 2b -> 5a 15b                                           
    0.012197  1a 2b -> 13a 15b                                          
    0.010197  1a 2b -> 22a 15b                                          
    0.032139  2a 1b -> 5a 3b                                            
   -0.017871  2a 1b -> 10a 3b                                           
   -0.039572  2a 1b -> 17a 3b                                           
   -0.010126  2a 1b -> 17a 7b                                           
    0.020556  2a 1b -> 13a 15b                                          
    0.017517  2a 1b -> 22a 15b                                          
    0.011152  1a 2b -> 16a 11b                                          
    0.011090  1a 2b -> 14a 9b                                           
    0.011090  1a 2b -> 15a 13b                                          
   -0.010142  2a 1b -> 15a 5b                                           
    0.013118  1a 2b -> 9a 4b                                            
   -0.017871  2a 1b -> 9a 4b                                            
   -0.016631  2a 2b -> 5a 11b                                           
   -0.014522  1a 1b -> 8a 3b                                            
    0.010630  1a 1b -> 16a 3b                                           
    0.062343  2a 2b -> 8a 3b                                            
   -0.281118  2a 2b -> 16a 3b                                           
   -0.079691  2a 2b -> 16a 7b                                           
    0.044474  2a 2b -> 8a 15b                                           
   -0.012231  2a 2b -> 16a 15b                                          
    0.018706  2a 2b -> 15a 8b                                           
   -0.012249  2a 2b -> 7a 16b                                           
    0.023786  2a 2b -> 15a 16b                                          
   -0.017550  2a 2b -> 11a 5b                                           
    0.013436  2a 2b -> 11a 17b                                          
   -0.016537  4a 2b -> 5a 9b                                            
    0.058530  4a 2b -> 6a 3b                                            
   -0.280443  4a 2b -> 14a 3b                                           
   -0.077701  4a 2b -> 14a 7b                                           
    0.033462  4a 2b -> 6a 15b                                           
   -0.024714  4a 2b -> 14a 15b                                          
   -0.040519  4a 2b -> 7a 4b                                            
    0.341904  4a 2b -> 15a 4b                                           
   -0.016206  4a 2b -> 7a 6b                                            
    0.073819  4a 2b -> 15a 6b                                           
   -0.017441  4a 2b -> 7a 14b                                           
    0.064249  4a 2b -> 15a 14b                                          
   -0.017581  4a 2b -> 9a 5b                                            
    0.013290  4a 2b -> 9a 17b                                           
   -0.012846  4a 1b -> 12a 3b                                           
   -0.018446  4a 1b -> 12a 15b                                          
    0.014434  4a 1b -> 21a 15b                                          
    0.017466  4a 1b -> 11a 4b                                           
   -0.016441  2a 3a -> 7a 15a                                           
   -0.017628  2a 4a -> 14a 15a                                          
   -0.013402  1a 1b 2b -> 6a 3b 4b                                      
    0.010245  1a 1b 2b -> 14a 3b 4b                                     
   -0.015475  2a 1b 2b -> 16a 3b 5b                                     
   -0.013729  2a 1b 2b -> 12a 3b 4b                                     
    0.030755  4a 1b 2b -> 5a 3b 4b                                      
   -0.018406  4a 1b 2b -> 13a 3b 4b                                     
   -0.037130  4a 1b 2b -> 17a 3b 4b                                     
   -0.014318  4a 1b 2b -> 14a 3b 5b                                     
    0.010213  4a 1b 2b -> 15a 4b 5b                                     
    0.010149  2a 3a 2b -> 15a 16a 3b                                    
    0.016421  3a 4a 2b -> 7a 15a 4b                                     
   -0.010744  3a 4a 2b -> 14a 15a 15b                                   
    0.014404  1a 2a 2b -> 5a 16a 3b                                     
    0.012173  1a 4a 2b -> 5a 14a 3b                                     
   -0.013695  2a 4a 2b -> 6a 8a 3b                                      
    0.027969  2a 4a 2b -> 14a 16a 3b                                    
   -0.010993  2a 4a 2b -> 14a 16a 15b                                   
    0.012026  2a 4a 2b -> 8a 15a 4b                                     
   -0.021117  2a 4a 2b -> 15a 16a 4b                                    
 
 ************************ 2019-01-02 01:34:33 *************************
                      Normal termination of mrcc.
 **********************************************************************
--executable dmrcc finished with status     0 in     3500.69 seconds (walltime).
  The final electronic energy is       -97.160699385879710 a.u. 
  This computation required                         3504.96 seconds (walltime).
--- SharcNET Job Epilogue ---
Job completed successfully.
               jobid: 1652351
               resid: 3131475
         exit status: 0
      allocated time: 3506.21
           user time: 50701
         system time: 1364.95
peak rss=797220864; peak vsz=797220864 (bytes)
atime=3506.21; utime=50701; stime=1364.95; exit=0
