 **********************************************************************
                          MRCC program system
 **********************************************************************
 
                              Written by
 Mihaly Kallay, Peter R. Nagy, David Mester, Zoltan Rolik, Gyula Samu,
   Jozsef Csontos, Jozsef Csoka, P. Bernat Szabo, Laszlo Gyevi-Nagy,
    Bence Hegely, Istvan Ladjanszki, Lorant Szegedy, Bence Ladoczki,
       Klara Petrov, Mate Farkas, Pal D. Mezei, and Adam Ganyecz
 
        Department of Physical Chemistry and Materials Science
            Budapest University of Technology and Economics
                  Budapest P.O.Box 91, H-1521 Hungary
 
                              www.mrcc.hu
 
                    Release date: February 22, 2020

 ************************ 2021-07-31 18:03:37 *************************
 Executing minp...

 Reading input from MINP...
 
 Input file:
 
#
#TITLE
basis=VDZ-EMSL
uncontract=off
#iface=cfour
calc=CC(8)
mem=59GB
#core=1
core=frozen
itol=18
scftol=13
cctol=5
ccmaxit=999
scfmaxit=9999
scftype=ROHF
rohftype=semicanonical
scfiguess=ao
rest=2
charge=+1
mult=2
#symm=1
#occ=3,0,0,0,0,1,2,2/3,0,0,0,0,1,1,1

#refdet=serialno
#1
#2,3

unit=angs
geom=xyz
2

B 0.0000 0.0000 0.0000
N 0.0000 0.0000 1.281

#Li 1 R

#R=3.065


tprint=0.01
verbosity=3
#nstate=4


 
 
 Checking keyword combinations...
 
 Keywords:
 
 active=none
 agrid=ld0006-ld0590
 basis=vdz-emsl
 basis_sm=none
 basopt=off
 bfbasis=none
 bfgsmem=10
 bfgstol=1.0d-3
 bpcompo=0.985
 bpcompv=0.98
 bpdfo=0.985
 bpocc=0.985
 bppdo=0.985
 bppdv=0.98
 bpedo=0.985
 bpedv=0.98
 calc=cc(8)
 ccmaxit=999
 ccprog=mrcc
 ccsdalg=disk
 ccsdmkl=seq
 ccsdrest=off
 ccsdthreads=2
 cctol=5
 charge=+1
 cialg=disk
 ciguess=off
 cmpgrp=auto
 core=frozen
 corembed=off
 csapprox=off
 dboc=off
 dendec=cholesky
 dens=0
 dfalg=lineq
 dfbasis_cor=none
 dfbasis_scf=none
 dfintran=ovirt
 dft=off
 dhexc=adc(2)
 diag=david
 docc=
 domrad=10.d0
 drpaalg=fit
 dual=off
 ecp=auto
 edisp=off
 edisp_embed=off
 embed=off
 epert=none
 eps=0.975
 excrad=0.d0
 excrad_fin=0.000000000D+00
 fmm=off
 fmmord=8
 freq=off
 gauss=spher
 geom=xyz
 gopt=off
 ghost=none
 gtol=7
 grdens=off
 grtol=10
 hamilton=dc
 iface=none
 intalg=auto
 itol=18
 laptol=1.d-2
 lccoporder=trffirst
 lcorthr=normal
 lccrest=off
 lmp2dens=on
 lnoepso=0.d0
 lnoepsv=1e-6
 localcc=off
 localcorrsymm=off
 locintrf=disk
 mact=
 maxact=off
 maxdim=100
 maxex=0
 maxmicroit=100
 mcscfiguess=hf
 mem=59gb
 molden=on
 mpitasks=1
 mulmet=0
 mult=2
 nacto=0
 nactv=0
 naf_cor=off
 naf_scf=off
 nafalg=albe
 naftyp=
 nchol=auto
 ndeps=1e-3
 nstate=1
 nsing=0
 ntrip=0
 occ=
 oniom=off
 oniom_eechg=off
 oniom_pcm=off
 optalg=
 optmaxit=50
 optetol=1e-6
 optex=   0
 optgtol=1e-4
 optstol=1e-3
 orblocc=off
 orbloce=off
 orbloco=off
 orblocv=off
 orblocguess=cholesky
 osveps=1e-3
 ovirt=off
 ovltol=1e-7
 ovosnorb=80.0
 pcm=off
 popul=off
 pressure=100000
 pssp=off
 ptfreq=0.0
 ptthreads=2
 qscf=off
 qmmm=off
 redcost_exc=off
 redcost_tddft=off
 refdet=none
 rest=2
 rgrid=log3
 rohfcore=semicanonical
 rohftype=semicanonical
 scfalg=auto
 scfdamp=off
 scfdiis=on
 scfdiis_end=9999
 scfdiis_start=1
 scfdiis_step=1
 scfdtol=14
 scfext=10
 scfguessdens=
 scfiguess=ao
 scflshift=off
 scfmaxit=9999
 scftype=rohf
 scftol=13
 scspe=1.d0
 scsph=1.d0
 scsps=1.2d0
 scspt=0.33333333333333
 scspv=1.d0
 spairtol=1e-4
 subminp=top
 symm=
 talg=occ
 temp=298.15
 test=off
 theodore=off
 tlmo=0.999
 tpao=0.94
 tprint=0.01
 uncontract=off
 unit=angs
 usedisk=2
 verbosity=3
 wpairtol=0.100000000E-05

 ************************ 2021-07-31 18:03:38 *************************
 Executing integ...

 Allocation of 59.0 Gbytes of memory...
 
 
 Number of atoms:                  2
 Charge:                           1
 Number of electrons:             11
 Number of core electrons:         4
 Spin multiplicity:                2
 
                 Cartesian coordinates [bohr]      Atomic mass [AMU]  Z
   1  B     0.00000000    0.00000000    0.00000000    11.009305       5
   2  N     0.00000000    0.00000000    2.42073917    14.003074       7
 
 This molecule is linear.
 
 Rotational constants [cm-1]: 
      1.666747998989
 
 Point group: Cxv 
 Computational point group: C2v 
 
 Cartesian coordinates in standard orientation [bohr]
   1  B     0.00000000    0.00000000   -1.35524050
   2  N     0.00000000    0.00000000    1.06549866
 
 Nuclear repulsion energy [au]:         14.458393734153
 
 
 Basis set information:
 
 Maximum angular momentum: d
 Maximum number of contracted Gaussians:    3
 Maximum number of primitive Gaussians:     9
 Spherical harmonic GTOs are used.
 
    1  B  vdz-emsl [ 9s 4p 1d | 3s 2p 1d ]
    2  N  vdz-emsl [ 9s 4p 1d | 3s 2p 1d ]
 
 Basis functions:
            1             2             3             4             5             6             7             8             9            10
    0    1B1s          1B2s          1B3s          1B1pz         1B1py         1B1px         1B2pz         1B2py         1B2px         1B1d-2    
    1    1B1d-1        1B1d0         1B1d+1        1B1d+2        2N1s          2N2s          2N3s          2N1pz         2N1py         2N1px     
    2    2N2pz         2N2py         2N2px         2N1d-2        2N1d-1        2N1d0         2N1d+1        2N1d+2    
 
 Maximum number of basis functions per shell:    6
 Total number of basis functions:     28
 
 
 Character table for point group C2v:
 
          E  C2  Qh  Qv  
    A1    1   1   1   1
    B1    1  -1   1  -1
    B2    1  -1  -1   1
    A2    1   1  -1  -1
 
 Number of basis functions per irrep:
    A1     14
    B1      6
    B2      6
    A2      2
 
 
 Calculation of overlap integrals...
 CPU time [min]:     0.026                   Wall time [min]:     0.123
 
 Calculation of the square root of the overlap matrix...
 Minimum eigenvalue of the overlap matrix: 0.126997E-01
 CPU time [min]:     0.053                   Wall time [min]:     0.198
 
 Calculation of kinetic energy integrals...
 CPU time [min]:     0.053                   Wall time [min]:     0.198
 Calculation of nuclear attraction integrals...
 CPU time [min]:     0.053                   Wall time [min]:     0.198
 
 Calculation of prescreening integrals...
 CPU time [min]:     0.056                   Wall time [min]:     0.199
 
 Calculation of two-electron integrals...
   1% done.
  14% done.
  46% done.
 100% done.
 CPU time [min]:     0.064                   Wall time [min]:     0.202

 ************************ 2021-07-31 18:03:50 *************************
 Executing scf...

 @scfsetup: integrals taken from disk
            mrcc/integ binary format
 @scfsetup: calc on blockdiagonal matrices
            using symmetry adapted basis
 @scfsetup: diis switched on
 @scfsetup: number of steps to extrapolate from  10
 @scfsetup: tolerance in energy deviation    0.100000E-12
            tolerance in density deviation    0.100000E-13
 @scfsetup: maximum number of iterations:9999
 @scfsetup: restricted open shell hf calc
            semicanonical orbitals
 @scfsetup: starting scf from diagonal ao guess
 @scfsetup: occupation set:
            from initial orbitals
 @scfsetup: diis runs from iteration:   1
 @scfsetup: diis runs to iteration:9999
 @scfsetup: diis runs in every iteration
 Allocation of 59.0 Gbytes of memory...
 ======================================================================
 ITERATION STEP   1
 CPU time [min]:     0.004                   Wall time [min]:     0.005
 
 Gradient norm:      0.0000E+00
 RMS of total difference density:                      0.22510532175611
 RMS of open-shell difference density:                 0.06879160119773
 Gap [au]:  0.29153324
 ALPHA OCC:   4   1   1   0
 BETA  OCC:   4   0   1   0
 
 ***HARTREE-FOCK ENERGY IN STEP   1 IS     -73.8726884290727099 [AU]
 ======================================================================
 ITERATION STEP   2
 CPU time [min]:     0.004                   Wall time [min]:     0.009
 
 Gradient norm:      0.0000E+00
 DIIS is running in this iteration step.
 RMS of [F,P]:                                         0.08968513464838
 RMS of total difference density:                      0.28308549074054
 RMS of open-shell difference density:                 0.08655741879502
 Gap [au]:  0.00643791
 ALPHA OCC:   4   1   1   0
 BETA  OCC:   4   0   1   0
 
 ***HARTREE-FOCK ENERGY IN STEP   2 IS     -78.1693195473254008 [AU]
 ======================================================================
 ITERATION STEP   3
 CPU time [min]:     0.005                   Wall time [min]:     0.010
 
 Gradient norm:      0.0000E+00
 DIIS is running in this iteration step.
 RMS of [F,P]:                                         0.17613840917118
 RMS of total difference density:                      0.18095990480273
 RMS of open-shell difference density:                 0.05693256565129
 Gap [au]:  0.01988171
 ALPHA OCC:   4   1   1   0
 BETA  OCC:   4   0   1   0
 
 ***HARTREE-FOCK ENERGY IN STEP   3 IS     -76.7773259737642206 [AU]
 ======================================================================
 ITERATION STEP   4
 CPU time [min]:     0.006                   Wall time [min]:     0.010
 
 Gradient norm:      0.0000E+00
 DIIS is running in this iteration step.
 RMS of [F,P]:                                         0.01351848567580
 RMS of total difference density:                      0.02348629277152
 RMS of open-shell difference density:                 0.00716597590740
 Gap [au]:  0.12794383
 ALPHA OCC:   4   1   1   0
 BETA  OCC:   4   0   1   0
 
 ***HARTREE-FOCK ENERGY IN STEP   4 IS     -78.5097496388596028 [AU]
 ======================================================================
 ITERATION STEP   5
 CPU time [min]:     0.006                   Wall time [min]:     0.011
 
 Gradient norm:      0.0000E+00
 DIIS is running in this iteration step.
 RMS of [F,P]:                                         0.00337271593636
 RMS of total difference density:                      0.00924645123818
 RMS of open-shell difference density:                 0.00397876875803
 Gap [au]:  0.13202281
 ALPHA OCC:   4   1   1   0
 BETA  OCC:   4   0   1   0
 
 ***HARTREE-FOCK ENERGY IN STEP   5 IS     -78.5249936070299270 [AU]
 ======================================================================
 ITERATION STEP   6
 CPU time [min]:     0.007                   Wall time [min]:     0.015
 
 Gradient norm:      0.0000E+00
 DIIS is running in this iteration step.
 RMS of [F,P]:                                         0.00211272020489
 RMS of total difference density:                      0.00491474433443
 RMS of open-shell difference density:                 0.00122550816749
 Gap [au]:  0.12962613
 ALPHA OCC:   4   1   1   0
 BETA  OCC:   4   0   1   0
 
 ***HARTREE-FOCK ENERGY IN STEP   6 IS     -78.5271548783050122 [AU]
 ======================================================================
 ITERATION STEP   7
 CPU time [min]:     0.007                   Wall time [min]:     0.016
 
 Gradient norm:      0.0000E+00
 DIIS is running in this iteration step.
 RMS of [F,P]:                                         0.00153060773949
 RMS of total difference density:                      0.00612867120302
 RMS of open-shell difference density:                 0.00065374423754
 Gap [au]:  0.12624991
 ALPHA OCC:   4   1   1   0
 BETA  OCC:   4   0   1   0
 
 ***HARTREE-FOCK ENERGY IN STEP   7 IS     -78.5278161351744330 [AU]
 ======================================================================
 ITERATION STEP   8
 CPU time [min]:     0.008                   Wall time [min]:     0.017
 
 Gradient norm:      0.0000E+00
 DIIS is running in this iteration step.
 RMS of [F,P]:                                         0.00059949017555
 RMS of total difference density:                      0.00541010988477
 RMS of open-shell difference density:                 0.00009154623778
 Gap [au]:  0.12552430
 ALPHA OCC:   4   1   1   0
 BETA  OCC:   4   0   1   0
 
 ***HARTREE-FOCK ENERGY IN STEP   8 IS     -78.5283378576829989 [AU]
 ======================================================================
 ITERATION STEP   9
 CPU time [min]:     0.008                   Wall time [min]:     0.017
 
 Gradient norm:      0.0000E+00
 DIIS is running in this iteration step.
 RMS of [F,P]:                                         0.00045245784878
 RMS of total difference density:                      0.00179430218286
 RMS of open-shell difference density:                 0.00016857651367
 Gap [au]:  0.12590493
 ALPHA OCC:   4   1   1   0
 BETA  OCC:   4   0   1   0
 
 ***HARTREE-FOCK ENERGY IN STEP   9 IS     -78.5285097723506027 [AU]
 ======================================================================
 ITERATION STEP  10
 CPU time [min]:     0.009                   Wall time [min]:     0.018
 
 Gradient norm:      0.0000E+00
 DIIS is running in this iteration step.
 RMS of [F,P]:                                         0.00007645521390
 RMS of total difference density:                      0.00065797312349
 RMS of open-shell difference density:                 0.00016889426628
 Gap [au]:  0.12559032
 ALPHA OCC:   4   1   1   0
 BETA  OCC:   4   0   1   0
 
 ***HARTREE-FOCK ENERGY IN STEP  10 IS     -78.5285371784631963 [AU]
 ======================================================================
 ITERATION STEP  11
 CPU time [min]:     0.009                   Wall time [min]:     0.018
 
 Gradient norm:      0.0000E+00
 DIIS is running in this iteration step.
 RMS of [F,P]:                                         0.00002599864509
 RMS of total difference density:                      0.00021397412051
 RMS of open-shell difference density:                 0.00011890142440
 Gap [au]:  0.12544984
 ALPHA OCC:   4   1   1   0
 BETA  OCC:   4   0   1   0
 
 ***HARTREE-FOCK ENERGY IN STEP  11 IS     -78.5285399233155204 [AU]
 ======================================================================
 ITERATION STEP  12
 CPU time [min]:     0.010                   Wall time [min]:     0.019
 
 Gradient norm:      0.0000E+00
 DIIS is running in this iteration step.
 RMS of [F,P]:                                         0.00000435005943
 RMS of total difference density:                      0.00003044234103
 RMS of open-shell difference density:                 0.00001984416983
 Gap [au]:  0.12544029
 ALPHA OCC:   4   1   1   0
 BETA  OCC:   4   0   1   0
 
 ***HARTREE-FOCK ENERGY IN STEP  12 IS     -78.5285402252676192 [AU]
 ======================================================================
 ITERATION STEP  13
 CPU time [min]:     0.010                   Wall time [min]:     0.019
 
 Gradient norm:      0.0000E+00
 DIIS is running in this iteration step.
 RMS of [F,P]:                                         0.00000214473600
 RMS of total difference density:                      0.00000415621340
 RMS of open-shell difference density:                 0.00000097150683
 Gap [au]:  0.12544511
 ALPHA OCC:   4   1   1   0
 BETA  OCC:   4   0   1   0
 
 ***HARTREE-FOCK ENERGY IN STEP  13 IS     -78.5285402313044898 [AU]
 ======================================================================
 ITERATION STEP  14
 CPU time [min]:     0.011                   Wall time [min]:     0.020
 
 Gradient norm:      0.0000E+00
 DIIS is running in this iteration step.
 RMS of [F,P]:                                         0.00000033615796
 RMS of total difference density:                      0.00000069625096
 RMS of open-shell difference density:                 0.00000019883798
 Gap [au]:  0.12544461
 ALPHA OCC:   4   1   1   0
 BETA  OCC:   4   0   1   0
 
 ***HARTREE-FOCK ENERGY IN STEP  14 IS     -78.5285402315171837 [AU]
 ======================================================================
 ITERATION STEP  15
 CPU time [min]:     0.011                   Wall time [min]:     0.021
 
 Gradient norm:      0.0000E+00
 DIIS is running in this iteration step.
 RMS of [F,P]:                                         0.00000002735328
 RMS of total difference density:                      0.00000007017644
 RMS of open-shell difference density:                 0.00000000275606
 Gap [au]:  0.12544467
 ALPHA OCC:   4   1   1   0
 BETA  OCC:   4   0   1   0
 
 ***HARTREE-FOCK ENERGY IN STEP  15 IS     -78.5285402315235359 [AU]
 ======================================================================
 ITERATION STEP  16
 CPU time [min]:     0.012                   Wall time [min]:     0.021
 
 Gradient norm:      0.0000E+00
 DIIS is running in this iteration step.
 RMS of [F,P]:                                         0.00000000146777
 RMS of total difference density:                      0.00000000802710
 RMS of open-shell difference density:                 0.00000000525586
 Gap [au]:  0.12544467
 ALPHA OCC:   4   1   1   0
 BETA  OCC:   4   0   1   0
 
 ***HARTREE-FOCK ENERGY IN STEP  16 IS     -78.5285402315235643 [AU]
 ======================================================================
 ITERATION STEP  17
 CPU time [min]:     0.012                   Wall time [min]:     0.022
 
 Gradient norm:      0.0000E+00
 DIIS is running in this iteration step.
 RMS of [F,P]:                                         0.00000000031785
 RMS of total difference density:                      0.00000000070569
 RMS of open-shell difference density:                 0.00000000017091
 Gap [au]:  0.12544467
 ALPHA OCC:   4   1   1   0
 BETA  OCC:   4   0   1   0
 
 ***HARTREE-FOCK ENERGY IN STEP  17 IS     -78.5285402315236070 [AU]
 ======================================================================
 ITERATION STEP  18
 CPU time [min]:     0.013                   Wall time [min]:     0.022
 
 Gradient norm:      0.0000E+00
 DIIS is running in this iteration step.
 RMS of [F,P]:                                         0.00000000008035
 RMS of total difference density:                      0.00000000018082
 RMS of open-shell difference density:                 0.00000000006625
 Gap [au]:  0.12544467
 ALPHA OCC:   4   1   1   0
 BETA  OCC:   4   0   1   0
 
 ***HARTREE-FOCK ENERGY IN STEP  18 IS     -78.5285402315235501 [AU]
 ======================================================================
 ITERATION STEP  19
 CPU time [min]:     0.013                   Wall time [min]:     0.023
 
 Gradient norm:      0.0000E+00
 DIIS is running in this iteration step.
 RMS of [F,P]:                                         0.00000000000243
 RMS of total difference density:                      0.00000000001053
 RMS of open-shell difference density:                 0.00000000000129
 Gap [au]:  0.12544467
 ALPHA OCC:   4   1   1   0
 BETA  OCC:   4   0   1   0
 
 ***HARTREE-FOCK ENERGY IN STEP  19 IS     -78.5285402315235217 [AU]
 ======================================================================
 ITERATION STEP  20
 CPU time [min]:     0.014                   Wall time [min]:     0.024
 
 Gradient norm:      0.0000E+00
 DIIS is running in this iteration step.
 RMS of [F,P]:                                         0.00000000000058
 RMS of total difference density:                      0.00000000000207
 RMS of open-shell difference density:                 0.00000000000033
 Gap [au]:  0.12544467
 ALPHA OCC:   4   1   1   0
 BETA  OCC:   4   0   1   0
 
 ***HARTREE-FOCK ENERGY IN STEP  20 IS     -78.5285402315235217 [AU]
 ======================================================================
 ITERATION STEP  21
 CPU time [min]:     0.014                   Wall time [min]:     0.024
 
 Gradient norm:      0.0000E+00
 DIIS is running in this iteration step.
 RMS of [F,P]:                                         0.00000000000025
 RMS of total difference density:                      0.00000000000057
 RMS of open-shell difference density:                 0.00000000000010
 Gap [au]:  0.12544467
 ALPHA OCC:   4   1   1   0
 BETA  OCC:   4   0   1   0
 
 ***HARTREE-FOCK ENERGY IN STEP  21 IS     -78.5285402315234222 [AU]
 ======================================================================
 ITERATION STEP  22
 CPU time [min]:     0.015                   Wall time [min]:     0.025
 
 Gradient norm:      0.0000E+00
 DIIS is running in this iteration step.
 RMS of [F,P]:                                         0.00000000000002
 RMS of total difference density:                      0.00000000000006
 RMS of open-shell difference density:                 0.00000000000003
 Gap [au]:  0.12544467
 ALPHA OCC:   4   1   1   0
 BETA  OCC:   4   0   1   0
 
 ***HARTREE-FOCK ENERGY IN STEP  22 IS     -78.5285402315235359 [AU]
 ======================================================================
 ITERATION STEP  23
 CPU time [min]:     0.015                   Wall time [min]:     0.025
 
 Gradient norm:      0.0000E+00
 DIIS is running in this iteration step.
 RMS of [F,P]:                                         0.00000000000000
 RMS of total difference density:                      0.00000000000001
 RMS of open-shell difference density:                 0.00000000000000
 Gap [au]:  0.12544467
 ALPHA OCC:   4   1   1   0
 BETA  OCC:   4   0   1   0
 
 ***HARTREE-FOCK ENERGY IN STEP  23 IS     -78.5285402315235217 [AU]
 ======================================================================
 ITERATION STEP  24
 CPU time [min]:     0.015                   Wall time [min]:     0.026
 
 Gradient norm:      0.0000E+00
 DIIS is running in this iteration step.
 RMS of [F,P]:                                         0.00000000000000
 RMS of total difference density:                      0.00000000000000
 RMS of open-shell difference density:                 0.00000000000000
 Gap [au]:  0.12544467
 ALPHA OCC:   4   1   1   0
 BETA  OCC:   4   0   1   0
 
 ***HARTREE-FOCK ENERGY IN STEP  24 IS     -78.5285402315235359 [AU]
 ======================================================================
 
 SUCCESS...
 THE SCF ITERATION HAS CONVERGED!
 
                   A1  B1  B2  A2  
 FINAL ALPHA OCC:   4   1   1   0
 FINAL BETA  OCC:   4   0   1   0
 
 ***FINAL HARTREE-FOCK ENERGY:    -78.5285402315235359 [AU]
 
 ***SEMICANONICAL ROHF ENERGY:    -78.5285402315234933 [AU]
 
 Orbital energies [au]:
      Irrep         Alpha          Beta
    1   A1       -15.979771     -15.960718
    2   A1        -8.158207      -8.153313
    3   A1        -1.493380      -1.387818
    4   A1        -0.870941      -0.833071
    5   B2        -0.786679      -0.763380
 
    6   B1        -0.848435      -0.326827
 
    7   A1        -0.431027      -0.418574
    8   B1        -0.193568      -0.067642
    9   B2        -0.164038      -0.153504
   10   A1         0.001224       0.012292
   11   B1         0.121996       0.158265
   12   B2         0.134268       0.137791
   13   A1         0.154401       0.159632
   14   A1         0.437643       0.456816
   15   A2         0.506217       0.534484
   16   A1         0.506512       0.534429
   17   A1         0.600111       0.617905
   18   B1         0.651826       0.686575
   19   B2         0.674983       0.680049
   20   B1         0.736185       0.844802
   21   B2         0.782801       0.794586
   22   A1         1.141377       1.159672
   23   A1         1.365750       1.389286
   24   A2         1.777581       1.846446
   25   A1         1.777614       1.846530
   26   B1         2.126303       2.184813
   27   B2         2.166381       2.176022
   28   A1         2.580555       2.602656
 
 RETURNING FROM SCF ALGORITHM
 ======================================================================

 ************************ 2021-07-31 18:03:55 *************************
 Executing ovirt...

 ovirt, the routine of orbital optimization and integral transformation 
Sat Jul 31 18:03:55 EDT 2021
 memory =                  60416  Mb            7918845952  8 byte word
 mrccboot = T
 scftype  = rohf 
 localcc  = off 
 core     = frozen
 ovirt    = off  
 ccprog   = mrcc
 dfnbasis =                      0
 dfbasis_cor =none                
 lmp2dens = on 
 dens =                      0
 verblev =                      3
 task     =                      4
 epsilon =   0.975000000000000     
 lmp2= on 
 localNO  =  F
 localMP2 =  F
 localMP2_TEST =  F
 LMP2_shortcut =  F
 FOCKTR   =  T
 Allocated memory:                   60416  Mb
 onbasis=                    28
 UHF calculation! 
 integral transformation: AOs --- MOs (alpha-alpha)
 # of basis functions, # of int. blocks    28     1
100 % 
 second part
100 %
 integral transformation is completed! 
 integral transformation: AOs ------ MOs (beta-beta)
 # of basis functions, # of int. blocks    28     1
100 % 
 second part
100 %
 integral transformation is completed! 
 integral transformation: AOs ----- MOs (alpha-beta)
# of basis functions, # of int. blocks    28     1
 integral transformation
======================================== 
Sat Jul 31 18:03:56 EDT 2021
  ovirt terminated normally 

 ************************ 2021-07-31 18:03:56 *************************
 Executing goldstone...

 Generation of CC equations in terms of H and T...
 Generation of antisymmetrized Goldstone diagrams...
 Number of diagrams in T^1 equations:    15
 Number of diagrams in T^2 equations:    38
 Number of diagrams in T^3 equations:    54
 Number of diagrams in T^4 equations:    81
 Number of diagrams in T^5 equations:   106
 Number of diagrams in T^6 equations:   141
 Number of diagrams in T^7 equations:   169
 Translation of diagrams to factorized equations...
 Optimizing intermediate calculation...
 Number of floating-point operations per iteration step:   4.2118E+12
 Probable CPU time per iteration step (hours):     42.12
 Required memory (Mbytes):     298.4
 Number of intermediates:                                 240
 Number of intermediates to be stored:                     89
 Length of intermediate file (Mbytes):    1064.2

 ************************ 2021-07-31 18:04:12 *************************
 Executing xmrcc...

 **********************************************************************
 CC(                     7 ) calculation 
 
 
 Allocation of 298.4 Mbytes of memory...
 Number of spinorbitals:                    52
 Number of alpha electrons:                        4
 Number of beta electrons:                         3
 Spin multiplicity:                     2
 z-component of spin:  0.5
 Spatial symmetry:                      2
 Convergence criterion:  1.0E-05
 Construction of occupation graphs...
 Number of                     0 -fold excitations:                      1
 Number of                     1 -fold excitations:                     55
 Number of                     2 -fold excitations:                   2184
 Number of                     3 -fold excitations:                  42626
 Number of                     4 -fold excitations:                 409987
 Number of                     5 -fold excitations:                1909541
 Number of                     6 -fold excitations:                4115720
 Number of                     7 -fold excitations:                3237710
 Total number of configurations:                9717824
 Calculation of coupling coefficients...
 Length of intermediate file (Mbytes):     637.7
 
 ======================================================================
 
 Memory requirements /Mbyte/: 
               Minimal        Optimal
 Real*8:        378.1247       378.1247
 Integer:         4.0905
 Total:         382.2153       382.2153
 

 ************************ 2021-07-31 18:04:13 *************************
 Executing goldstone...

 Generation of CC equations in terms of H and T...
 Generation of antisymmetrized Goldstone diagrams...
 Number of diagrams in T^1 equations:    15
 Number of diagrams in T^2 equations:    34
 Number of diagrams in T^3 equations:     2
 Translation of diagrams to factorized equations...
 Optimizing intermediate calculation...
 Number of floating-point operations per iteration step:   2.1679E+07
 Probable CPU time per iteration step (hours):      0.00
 Required memory (Mbytes):      34.8
 Number of intermediates:                                  49
 Number of intermediates to be stored:                     20
 Length of intermediate file (Mbytes):       1.8

 ************************ 2021-07-31 18:04:13 *************************
 Executing xmrcc...

 **********************************************************************
 CC(2)(3) calculation 
 
 
 Allocation of 100.0 Mbytes of memory...
 Number of spinorbitals:                    52
 Number of alpha electrons:                        4
 Number of beta electrons:                         3
 Spin multiplicity:                     2
 z-component of spin:  0.5
 Spatial symmetry:                      2
 Convergence criterion:  1.0E-05
 Construction of occupation graphs...
 Number of                     0 -fold excitations:                      1
 Number of                     1 -fold excitations:                     55
 Number of                     2 -fold excitations:                   2184
 Total number of configurations:                   2240
 Calculation of coupling coefficients...
 Length of intermediate file (Mbytes):       1.6
 
 ======================================================================
 
 Spin case  1   Alpha:  0   Beta:  3
 Number of excitations:                    435
 Spin case  2   Alpha:  1   Beta:  2
 Number of excitations:                  16738
 Spin case  3   Alpha:  2   Beta:  1
 Number of excitations:                  23913
 Spin case  4   Alpha:  3   Beta:  0
 Number of excitations:                   1540
 Number of                     3 -fold excitations:                  42626
 
 Memory requirements /Mbyte/: 
               Minimal        Optimal
 Real*8:          1.2471         3.5976
 Integer:         0.3772
 Total:           1.6244         3.9748
 

 ************************ 2021-07-31 18:04:13 *************************
 Executing mrcc...

 **********************************************************************
 CCSD(T) calculation                                                    
 
 
 OpenMP parallel version is running.
 Number of CPU cores:   8
 Allocation of    3.6 Mbytes of memory...
 Number of spinorbitals:  52
 Number of alpha electrons:  4
 Number of beta  electrons:  3
 Spin multiplicity: 2
 z-component of spin:  0.5
 Spatial symmetry: 2
 Convergence criterion:  1.0E-05
 Construction of occupation graphs...
 Number of 0-fold excitations: 1
 Number of 1-fold excitations: 55
 Number of 2-fold excitations: 2184
 Total number of determinants: 2240
 Calculation of coupling coefficients...
 Initial cluster amplitudes are generated.
 Length of intermediate file (Mbytes):       1.6
 Reading integral list from unit 55...
 Sorting integrals...
 Sorting integrals...
 Sorting integrals...
 Sorting integrals...
 Calculation of MP denominators...
 
 Starting CC iteration...
 ======================================================================
 Norm of residual vector:     0.74683181
 CPU time [min]:     0.060                   Wall time [min]:     0.009
 
 Iteration  1  CC energy:   -78.73061215  Energy decrease:   0.20207191
 ======================================================================
 Norm of residual vector:     0.15860016
 CPU time [min]:     0.071                   Wall time [min]:     0.011
 
 Iteration  2  CC energy:   -78.72904867  Energy decrease:   0.00156347
 ======================================================================
 Norm of residual vector:     0.08152325
 CPU time [min]:     0.081                   Wall time [min]:     0.012
 
 Iteration  3  CC energy:   -78.74215737  Energy decrease:   0.01310870
 ======================================================================
 Norm of residual vector:     0.03974129
 CPU time [min]:     0.091                   Wall time [min]:     0.013
 
 Iteration  4  CC energy:   -78.74865661  Energy decrease:   0.00649923
 ======================================================================
 Norm of residual vector:     0.02533683
 CPU time [min]:     0.102                   Wall time [min]:     0.015
 
 Iteration  5  CC energy:   -78.75060885  Energy decrease:   0.00195225
 ======================================================================
 Norm of residual vector:     0.01509247
 CPU time [min]:     0.113                   Wall time [min]:     0.016
 
 Iteration  6  CC energy:   -78.75143061  Energy decrease:   0.00082176
 ======================================================================
 Norm of residual vector:     0.00826650
 CPU time [min]:     0.123                   Wall time [min]:     0.017
 
 Iteration  7  CC energy:   -78.75245629  Energy decrease:   0.00102568
 ======================================================================
 Norm of residual vector:     0.00450930
 CPU time [min]:     0.134                   Wall time [min]:     0.018
 
 Iteration  8  CC energy:   -78.75238788  Energy decrease:   0.00006841
 ======================================================================
 Norm of residual vector:     0.00292033
 CPU time [min]:     0.144                   Wall time [min]:     0.020
 
 Iteration  9  CC energy:   -78.75268997  Energy decrease:   0.00030209
 ======================================================================
 Norm of residual vector:     0.00193259
 CPU time [min]:     0.154                   Wall time [min]:     0.021
 
 Iteration 10  CC energy:   -78.75285336  Energy decrease:   0.00016340
 ======================================================================
 Norm of residual vector:     0.00149886
 CPU time [min]:     0.164                   Wall time [min]:     0.022
 
 Iteration 11  CC energy:   -78.75282922  Energy decrease:   0.00002415
 ======================================================================
 Norm of residual vector:     0.00109039
 CPU time [min]:     0.174                   Wall time [min]:     0.023
 
 Iteration 12  CC energy:   -78.75294441  Energy decrease:   0.00011519
 ======================================================================
 Norm of residual vector:     0.00088580
 CPU time [min]:     0.184                   Wall time [min]:     0.025
 
 Iteration 13  CC energy:   -78.75297285  Energy decrease:   0.00002844
 ======================================================================
 Norm of residual vector:     0.00047682
 CPU time [min]:     0.194                   Wall time [min]:     0.026
 
 Iteration 14  CC energy:   -78.75295621  Energy decrease:   0.00001663
 ======================================================================
 Norm of residual vector:     0.00022114
 CPU time [min]:     0.205                   Wall time [min]:     0.027
 
 Iteration 15  CC energy:   -78.75297333  Energy decrease:   0.00001712
 ======================================================================
 Norm of residual vector:     0.00009816
 CPU time [min]:     0.215                   Wall time [min]:     0.029
 
 Iteration 16  CC energy:   -78.75297785  Energy decrease:   0.00000452
 ======================================================================
 Norm of residual vector:     0.00004332
 CPU time [min]:     0.225                   Wall time [min]:     0.030
 
 Iteration 17  CC energy:   -78.75297526  Energy decrease:   0.00000259
 ======================================================================
 Norm of residual vector:     0.00001725
 CPU time [min]:     0.236                   Wall time [min]:     0.031
 
 Iteration 18  CC energy:   -78.75297574  Energy decrease:   0.00000047
 ======================================================================
 Norm of residual vector:     0.00000750
 CPU time [min]:     0.246                   Wall time [min]:     0.032
 
 Iteration 19  CC energy:   -78.75297554  Energy decrease:   0.00000019
 ======================================================================
 
 Iteration has converged in 19 steps.
 
 Final results:
 Total CCSD energy [au]:             -78.752975541901
 
 Perturbative corrections are calculated...
 ======================================================================
 Spin case  1   Alpha:  0   Beta:  3
 Number of excitations:        435
 CPU time [min]:     0.248                   Wall time [min]:     0.033
 ======================================================================
 Spin case  2   Alpha:  1   Beta:  2
 Number of excitations:        16738
 CPU time [min]:     0.253                   Wall time [min]:     0.033
 ======================================================================
 Spin case  3   Alpha:  2   Beta:  1
 Number of excitations:        23913
 CPU time [min]:     0.260                   Wall time [min]:     0.034
 ======================================================================
 Spin case  4   Alpha:  3   Beta:  0
 Number of excitations:        1540
 CPU time [min]:     0.262                   Wall time [min]:     0.034
 ======================================================================
 Number of 3-fold excitations: 42626
 
 
 CPU time [min]:     0.262                   Wall time [min]:     0.034
 
 Total CCSD[T] energy [au]:          -78.783468847149
 Total CCSD(T) energy [au]:          -78.773128389125
 
 Dominant cluster amplitudes
 Printing threshold:  1.00E-02
 
    1.000000  Reference determinant                                     
   -0.024475  3b -> 7b                                                  
    0.361393  4b -> 7b                                                  
   -0.014741  4b -> 10b                                                 
   -0.044790  4b -> 13b                                                 
   -0.011573  4b -> 22b                                                 
   -0.022211  5b -> 9b                                                  
   -0.015276  5b -> 12b                                                 
    0.023556  5b -> 21b                                                 
   -0.024340  3a -> 7a                                                  
   -0.012048  3a -> 14a                                                 
   -0.012629  3a -> 16a                                                 
    0.010335  3a -> 23a                                                 
    0.011863  3a -> 25a                                                 
   -0.151510  4a -> 7a                                                  
    0.010820  4a -> 10a                                                 
    0.020761  4a -> 13a                                                 
    0.013802  4a -> 22a                                                 
    0.020610  6a -> 20a                                                 
    0.036623  5a -> 9a                                                  
    0.032144  5a -> 21a                                                 
   -0.014958  3b 4b -> 6b 8b                                            
    0.013531  3b 4b -> 7b 14b                                           
    0.011760  3b 4b -> 7b 17b                                           
   -0.010136  3b 5b -> 7b 19b                                           
    0.043477  4b 5b -> 7b 9b                                            
    0.011382  4b 5b -> 7b 12b                                           
    0.010901  4b 5b -> 9b 13b                                           
    0.010384  4b 5b -> 9b 16b                                           
    0.012741  4b 5b -> 7b 21b                                           
   -0.010591  4b 5b -> 9b 22b                                           
   -0.015820  3a 3b -> 7a 7b                                            
   -0.012444  3a 3b -> 14a 14b                                          
    0.011143  3a 3b -> 23a 14b                                          
    0.011273  3a 3b -> 14a 23b                                          
   -0.015055  3a 3b -> 23a 23b                                          
    0.018345  4a 3b -> 7a 7b                                            
   -0.012231  4a 3b -> 17a 7b                                           
   -0.012516  4a 3b -> 22a 7b                                           
   -0.010242  4a 3b -> 28a 7b                                           
   -0.013094  4a 3b -> 7a 10b                                           
   -0.020641  3a 4b -> 7a 7b                                            
    0.015748  3a 4b -> 10a 7b                                           
   -0.010276  3a 4b -> 14a 7b                                           
    0.185135  4a 4b -> 7a 7b                                            
   -0.024038  4a 4b -> 13a 7b                                           
    0.046462  4a 4b -> 14a 7b                                           
    0.029849  4a 4b -> 22a 7b                                           
   -0.024514  4a 4b -> 7a 13b                                           
    0.034885  4a 4b -> 7a 14b                                           
    0.017954  4a 4b -> 14a 14b                                          
    0.012366  4a 4b -> 22a 14b                                          
    0.015680  4a 4b -> 17a 17b                                          
    0.022662  4a 4b -> 7a 22b                                           
    0.012508  4a 4b -> 14a 22b                                          
    0.017984  4a 4b -> 22a 22b                                          
   -0.050933  5a 5b -> 7a 7b                                            
    0.011302  5a 5b -> 10a 7b                                           
   -0.012128  5a 5b -> 14a 7b                                           
    0.012860  5a 5b -> 7a 10b                                           
   -0.014347  5a 5b -> 7a 14b                                           
   -0.011138  5a 5b -> 16a 16b                                          
   -0.011521  5a 5b -> 25a 25b                                          
   -0.011841  3a 3b -> 8a 6b                                            
    0.016296  3a 3b -> 8a 8b                                            
    0.010713  3a 3b -> 8a 20b                                           
   -0.031504  4a 3b -> 8a 6b                                            
   -0.013845  4a 3b -> 11a 6b                                           
   -0.011976  4a 3b -> 18a 6b                                           
    0.016936  4a 3b -> 8a 8b                                            
    0.021327  3a 4b -> 8a 6b                                            
   -0.037593  4a 4b -> 8a 8b                                            
   -0.010546  4a 4b -> 11a 8b                                           
    0.012570  4a 4b -> 26a 8b                                           
   -0.018283  4a 4b -> 8a 11b                                           
   -0.010756  4a 4b -> 8a 20b                                           
    0.013122  5a 5b -> 8a 8b                                            
    0.044184  4a 4b -> 9a 9b                                            
    0.015925  4a 4b -> 12a 9b                                           
   -0.011079  4a 4b -> 27a 9b                                           
    0.016007  4a 4b -> 9a 12b                                           
   -0.102375  5a 5b -> 9a 9b                                            
   -0.029206  5a 5b -> 12a 9b                                           
   -0.035840  5a 5b -> 21a 9b                                           
   -0.031187  5a 5b -> 9a 12b                                           
   -0.020784  5a 5b -> 12a 12b                                          
   -0.011035  5a 5b -> 19a 19b                                          
   -0.034557  5a 5b -> 9a 21b                                           
   -0.028801  5a 5b -> 21a 21b                                          
   -0.010807  5a 5b -> 15a 15b                                          
   -0.011546  5a 5b -> 24a 24b                                          
    0.016672  6a 3b -> 16a 6b                                           
    0.010534  6a 3b -> 17a 6b                                           
   -0.015636  6a 3b -> 25a 6b                                           
   -0.010348  6a 3b -> 17a 8b                                           
    0.014494  6a 3b -> 25a 8b                                           
    0.027545  6a 4b -> 7a 6b                                            
    0.011500  6a 4b -> 10a 6b                                           
   -0.012015  6a 4b -> 14a 6b                                           
   -0.059387  6a 4b -> 7a 8b                                            
    0.010925  6a 4b -> 17a 8b                                           
   -0.011622  6a 4b -> 25a 8b                                           
   -0.015448  6a 4b -> 7a 11b                                           
   -0.016859  6a 4b -> 7a 20b                                           
   -0.014967  6a 3b -> 18a 7b                                           
    0.014908  6a 3b -> 26a 7b                                           
   -0.013017  6a 3b -> 8a 10b                                           
   -0.011855  6a 3b -> 20a 10b                                          
    0.015546  6a 3b -> 8a 14b                                           
    0.010205  6a 3b -> 8a 17b                                           
   -0.013834  6a 3b -> 8a 23b                                           
   -0.015369  6a 3b -> 20a 23b                                          
    0.094878  6a 4b -> 8a 7b                                            
    0.022695  6a 4b -> 11a 7b                                           
    0.027802  6a 4b -> 20a 7b                                           
   -0.016278  6a 4b -> 8a 13b                                           
    0.022986  6a 4b -> 8a 14b                                           
    0.010735  6a 4b -> 20a 14b                                          
   -0.010969  6a 4b -> 20a 17b                                          
    0.011992  6a 4b -> 8a 22b                                           
    0.012845  6a 4b -> 20a 22b                                          
    0.012362  6a 3b -> 24a 9b                                           
   -0.014739  6a 4b -> 15a 9b                                           
   -0.010971  6a 4b -> 24a 9b                                           
   -0.014933  3a 5b -> 10a 9b                                           
    0.017352  3a 5b -> 14a 9b                                           
   -0.013626  3a 5b -> 23a 9b                                           
   -0.011779  3a 5b -> 7a 19b                                           
   -0.011810  3a 5b -> 10a 21b                                          
   -0.014179  3a 5b -> 23a 21b                                          
    0.011804  3a 5b -> 7a 27b                                           
   -0.080620  4a 5b -> 7a 9b                                            
    0.013256  4a 5b -> 13a 9b                                           
   -0.024338  4a 5b -> 14a 9b                                           
   -0.011982  4a 5b -> 22a 9b                                           
   -0.021012  4a 5b -> 7a 12b                                           
   -0.011417  4a 5b -> 14a 12b                                          
   -0.021549  4a 5b -> 7a 21b                                           
   -0.011425  4a 5b -> 14a 21b                                          
    0.010414  4a 5b -> 17a 21b                                          
   -0.012522  4a 5b -> 22a 21b                                          
    0.011410  5a 3b -> 14a 9b                                           
    0.013178  5a 3b -> 25a 9b                                           
    0.055973  5a 4b -> 7a 9b                                            
   -0.010434  5a 4b -> 10a 9b                                           
    0.012961  5a 4b -> 14a 9b                                           
    0.017814  5a 4b -> 16a 9b                                           
   -0.010493  5a 4b -> 17a 9b                                           
   -0.011000  5a 4b -> 25a 9b                                           
    0.015414  5a 4b -> 7a 12b                                           
    0.010676  5a 4b -> 7a 21b                                           
    0.010130  3a 5b -> 8a 24b                                           
    0.014637  4a 5b -> 8a 15b                                           
    0.011041  3a 5b -> 9a 14b                                           
   -0.053889  4a 5b -> 9a 7b                                            
   -0.013127  4a 5b -> 12a 7b                                           
   -0.012355  4a 5b -> 21a 7b                                           
   -0.014386  4a 5b -> 9a 14b                                           
   -0.015074  4a 5b -> 9a 16b                                           
   -0.015609  5a 3b -> 19a 7b                                           
    0.015269  5a 3b -> 27a 7b                                           
   -0.013441  5a 3b -> 9a 10b                                           
   -0.011790  5a 3b -> 21a 10b                                          
    0.015958  5a 3b -> 9a 14b                                           
   -0.013213  5a 3b -> 9a 23b                                           
   -0.014928  5a 3b -> 21a 23b                                          
    0.103158  5a 4b -> 9a 7b                                            
    0.025616  5a 4b -> 12a 7b                                           
    0.027688  5a 4b -> 21a 7b                                           
   -0.017559  5a 4b -> 9a 13b                                           
   -0.011154  5a 4b -> 12a 13b                                          
    0.022480  5a 4b -> 9a 14b                                           
    0.010275  5a 4b -> 12a 14b                                          
    0.010357  5a 4b -> 21a 14b                                          
   -0.010145  5a 4b -> 21a 17b                                          
    0.011019  5a 4b -> 9a 22b                                           
    0.012011  5a 4b -> 21a 22b                                          
    0.016128  5a 3b -> 15a 6b                                           
    0.015461  5a 3b -> 24a 6b                                           
   -0.014815  5a 3b -> 24a 8b                                           
    0.010781  5a 4b -> 15a 6b                                           
    0.011503  5a 4b -> 24a 8b                                           
   -0.062255  6a 5b -> 8a 9b                                            
   -0.017321  6a 5b -> 11a 9b                                           
   -0.023646  6a 5b -> 20a 9b                                           
   -0.019393  6a 5b -> 8a 12b                                           
   -0.014680  6a 5b -> 11a 12b                                          
   -0.023170  6a 5b -> 8a 21b                                           
   -0.021342  6a 5b -> 20a 21b                                          
   -0.020828  6a 5b -> 9a 6b                                            
    0.030763  6a 5b -> 9a 8b                                            
    0.011613  6a 5b -> 9a 20b                                           
   -0.010748  3a 4a -> 7a 14a                                           
   -0.010651  3a 4a -> 7a 17a                                           
   -0.032996  4a 6a -> 7a 8a                                            
    0.011931  4a 6a -> 8a 14a                                           
   -0.015528  4a 6a -> 7a 20a                                           
    0.012822  4a 6a -> 8a 22a                                           
    0.010869  4a 6a -> 20a 22a                                          
   -0.032312  4a 5a -> 7a 9a                                            
    0.012660  4a 5a -> 9a 14a                                           
   -0.013334  4a 5a -> 7a 21a                                           
    0.011734  4a 5a -> 9a 22a                                           
    0.010229  4a 5a -> 21a 22a                                          
    0.037982  5a 6a -> 8a 9a                                            
   -0.011050  5a 6a -> 9a 11a                                           
    0.011635  5a 6a -> 8a 12a                                           
    0.010881  5a 6a -> 11a 12a                                          
   -0.011925  5a 6a -> 15a 16a                                          
   -0.016538  5a 6a -> 9a 20a                                           
    0.016636  5a 6a -> 8a 21a                                           
    0.016973  5a 6a -> 20a 21a                                          
    0.013710  5a 6a -> 24a 25a                                          

 ************************ 2021-07-31 18:04:15 *************************
 Executing goldstone...

 Generation of CC equations in terms of H and T...
 Generation of antisymmetrized Goldstone diagrams...
 Number of diagrams in T^1 equations:    15
 Number of diagrams in T^2 equations:    38
 Number of diagrams in T^3 equations:    50
 Number of diagrams in T^4 equations:     5
 Translation of diagrams to factorized equations...
 Optimizing intermediate calculation...
 Number of floating-point operations per iteration step:   1.0102E+09
 Probable CPU time per iteration step (hours):      0.01
 Required memory (Mbytes):      34.8
 Number of intermediates:                                  80
 Number of intermediates to be stored:                     32
 Length of intermediate file (Mbytes):       2.7

 ************************ 2021-07-31 18:04:27 *************************
 Executing xmrcc...

 **********************************************************************
 CC(3)(4) calculation 
 
 
 Allocation of 100.0 Mbytes of memory...
 Number of spinorbitals:                    52
 Number of alpha electrons:                        4
 Number of beta electrons:                         3
 Spin multiplicity:                     2
 z-component of spin:  0.5
 Spatial symmetry:                      2
 Convergence criterion:  1.0E-05
 Construction of occupation graphs...
 Number of                     0 -fold excitations:                      1
 Number of                     1 -fold excitations:                     55
 Number of                     2 -fold excitations:                   2184
 Number of                     3 -fold excitations:                  42626
 Total number of configurations:                  44866
 Calculation of coupling coefficients...
 Length of intermediate file (Mbytes):       2.4
 
 ======================================================================
 
 Spin case  1   Alpha:  1   Beta:  3
 Number of excitations:                  38794
 Spin case  2   Alpha:  2   Beta:  2
 Number of excitations:                 263043
 Spin case  3   Alpha:  3   Beta:  1
 Number of excitations:                 106260
 Spin case  4   Alpha:  4   Beta:  0
 Number of excitations:                   1890
 Number of                     4 -fold excitations:                 409987
 
 Memory requirements /Mbyte/: 
               Minimal        Optimal
 Real*8:          8.7903         8.7903
 Integer:         1.0706
 Total:           9.8609         9.8609
 

 ************************ 2021-07-31 18:04:27 *************************
 Executing mrcc...

 **********************************************************************
 CCSDT(Q) calculation                                                   
 
 
 OpenMP parallel version is running.
 Number of CPU cores:   8
 Allocation of    8.8 Mbytes of memory...
 Number of spinorbitals:  52
 Number of alpha electrons:  4
 Number of beta  electrons:  3
 Spin multiplicity: 2
 z-component of spin:  0.5
 Spatial symmetry: 2
 Convergence criterion:  1.0E-05
 Construction of occupation graphs...
 Number of 0-fold excitations: 1
 Number of 1-fold excitations: 55
 Number of 2-fold excitations: 2184
 Number of 3-fold excitations: 42626
 Total number of determinants: 44866
 Calculation of coupling coefficients...
 Initial cluster amplitudes are read from unit 16.
 Length of intermediate file (Mbytes):       2.4
 Reading integral list from unit 55...
 Sorting integrals...
 Sorting integrals...
 Sorting integrals...
 Sorting integrals...
 Calculation of MP denominators...
 
 Starting CC iteration...
 ======================================================================
 Norm of residual vector:     0.25682259
 CPU time [min]:     0.104                   Wall time [min]:     0.019
 
 Iteration  1  CC energy:   -78.75297566  Energy decrease:   0.00000012
 ======================================================================
 Norm of residual vector:     0.11966207
 CPU time [min]:     0.154                   Wall time [min]:     0.026
 
 Iteration  2  CC energy:   -78.76294675  Energy decrease:   0.00997109
 ======================================================================
 Norm of residual vector:     0.04903088
 CPU time [min]:     0.200                   Wall time [min]:     0.032
 
 Iteration  3  CC energy:   -78.76730194  Energy decrease:   0.00435519
 ======================================================================
 Norm of residual vector:     0.02484715
 CPU time [min]:     0.245                   Wall time [min]:     0.039
 
 Iteration  4  CC energy:   -78.76920121  Energy decrease:   0.00189927
 ======================================================================
 Norm of residual vector:     0.01510578
 CPU time [min]:     0.291                   Wall time [min]:     0.045
 
 Iteration  5  CC energy:   -78.77114631  Energy decrease:   0.00194511
 ======================================================================
 Norm of residual vector:     0.00983448
 CPU time [min]:     0.338                   Wall time [min]:     0.052
 
 Iteration  6  CC energy:   -78.77225364  Energy decrease:   0.00110733
 ======================================================================
 Norm of residual vector:     0.00703250
 CPU time [min]:     0.385                   Wall time [min]:     0.059
 
 Iteration  7  CC energy:   -78.77279314  Energy decrease:   0.00053950
 ======================================================================
 Norm of residual vector:     0.00463524
 CPU time [min]:     0.433                   Wall time [min]:     0.066
 
 Iteration  8  CC energy:   -78.77293940  Energy decrease:   0.00014626
 ======================================================================
 Norm of residual vector:     0.00351942
 CPU time [min]:     0.481                   Wall time [min]:     0.072
 
 Iteration  9  CC energy:   -78.77308546  Energy decrease:   0.00014606
 ======================================================================
 Norm of residual vector:     0.00281768
 CPU time [min]:     0.529                   Wall time [min]:     0.079
 
 Iteration 10  CC energy:   -78.77312506  Energy decrease:   0.00003959
 ======================================================================
 Norm of residual vector:     0.00216419
 CPU time [min]:     0.578                   Wall time [min]:     0.086
 
 Iteration 11  CC energy:   -78.77314697  Energy decrease:   0.00002191
 ======================================================================
 Norm of residual vector:     0.00172075
 CPU time [min]:     0.627                   Wall time [min]:     0.093
 
 Iteration 12  CC energy:   -78.77327708  Energy decrease:   0.00013011
 ======================================================================
 Norm of residual vector:     0.00121888
 CPU time [min]:     0.676                   Wall time [min]:     0.100
 
 Iteration 13  CC energy:   -78.77329283  Energy decrease:   0.00001576
 ======================================================================
 Norm of residual vector:     0.00088338
 CPU time [min]:     0.725                   Wall time [min]:     0.107
 
 Iteration 14  CC energy:   -78.77329887  Energy decrease:   0.00000604
 ======================================================================
 Norm of residual vector:     0.00061246
 CPU time [min]:     0.774                   Wall time [min]:     0.115
 
 Iteration 15  CC energy:   -78.77329503  Energy decrease:   0.00000385
 ======================================================================
 Norm of residual vector:     0.00037960
 CPU time [min]:     0.818                   Wall time [min]:     0.122
 
 Iteration 16  CC energy:   -78.77327569  Energy decrease:   0.00001934
 ======================================================================
 Norm of residual vector:     0.00021173
 CPU time [min]:     0.862                   Wall time [min]:     0.129
 
 Iteration 17  CC energy:   -78.77327193  Energy decrease:   0.00000376
 ======================================================================
 Norm of residual vector:     0.00010510
 CPU time [min]:     0.906                   Wall time [min]:     0.137
 
 Iteration 18  CC energy:   -78.77327190  Energy decrease:   0.00000002
 ======================================================================
 Norm of residual vector:     0.00005605
 CPU time [min]:     0.951                   Wall time [min]:     0.144
 
 Iteration 19  CC energy:   -78.77327094  Energy decrease:   0.00000096
 ======================================================================
 Norm of residual vector:     0.00002912
 CPU time [min]:     0.996                   Wall time [min]:     0.152
 
 Iteration 20  CC energy:   -78.77327038  Energy decrease:   0.00000057
 ======================================================================
 Norm of residual vector:     0.00001469
 CPU time [min]:     1.048                   Wall time [min]:     0.159
 
 Iteration 21  CC energy:   -78.77327050  Energy decrease:   0.00000012
 ======================================================================
 Norm of residual vector:     0.00000734
 CPU time [min]:     1.090                   Wall time [min]:     0.164
 
 Iteration 22  CC energy:   -78.77327042  Energy decrease:   0.00000008
 ======================================================================
 
 Iteration has converged in 22 steps.
 
 Final results:
 Total CCSDT energy [au]:            -78.773270422021
 
 Perturbative corrections are calculated...
 ======================================================================
 Spin case  1   Alpha:  1   Beta:  3
 Number of excitations:        38794
 CPU time [min]:     1.184                   Wall time [min]:     0.176
 ======================================================================
 Spin case  2   Alpha:  2   Beta:  2
 Number of excitations:        263043
 CPU time [min]:     1.386                   Wall time [min]:     0.204
 ======================================================================
 Spin case  3   Alpha:  3   Beta:  1
 Number of excitations:        106260
 CPU time [min]:     1.499                   Wall time [min]:     0.218
 ======================================================================
 Spin case  4   Alpha:  4   Beta:  0
 Number of excitations:        1890
 CPU time [min]:     1.510                   Wall time [min]:     0.219
 ======================================================================
 Number of 4-fold excitations: 409987
 
 T_2^+ contribution:               0.003864313162
 T_3^+ contribution:              -0.007775990393
 T_1^+ * T_2^+ contribution:       0.006029113240
 T_1^+ * <ab||ij> contribution:    0.003189589111
 T_2^+ * f_ai contribution:        0.000007017578
 
 CPU time [min]:     1.514                   Wall time [min]:     0.220
 
 Total CCSDT[Q] energy [au]:         -78.769406108860
 Total CCSDT(Q)/A energy [au]:       -78.771152986013
 Total CCSDT(Q)/B energy [au]:       -78.773985492563
 
 Dominant cluster amplitudes
 Printing threshold:  1.00E-02
 
    1.000000  Reference determinant                                     
   -0.032558  3b -> 7b                                                  
    0.383830  4b -> 7b                                                  
   -0.015507  4b -> 10b                                                 
   -0.051002  4b -> 13b                                                 
   -0.010150  4b -> 17b                                                 
   -0.012465  4b -> 22b                                                 
    0.010119  4b -> 23b                                                 
   -0.011482  5b -> 12b                                                 
    0.010164  5b -> 19b                                                 
    0.023718  5b -> 21b                                                 
   -0.032184  3a -> 7a                                                  
   -0.012798  3a -> 14a                                                 
   -0.012709  3a -> 16a                                                 
    0.010269  3a -> 23a                                                 
    0.012056  3a -> 25a                                                 
   -0.212158  4a -> 7a                                                  
    0.013818  4a -> 10a                                                 
    0.029788  4a -> 13a                                                 
    0.014182  4a -> 22a                                                 
    0.020064  6a -> 8a                                                  
    0.022624  6a -> 20a                                                 
    0.045965  5a -> 9a                                                  
    0.031908  5a -> 21a                                                 
   -0.016956  3b 4b -> 6b 8b                                            
    0.014503  3b 4b -> 7b 14b                                           
    0.012280  3b 4b -> 7b 17b                                           
   -0.010584  3b 5b -> 7b 12b                                           
    0.010264  3b 5b -> 6b 15b                                           
   -0.011016  3b 5b -> 7b 19b                                           
    0.054672  4b 5b -> 7b 9b                                            
    0.016045  4b 5b -> 7b 12b                                           
    0.015501  4b 5b -> 9b 13b                                           
    0.012215  4b 5b -> 12b 13b                                          
    0.012281  4b 5b -> 9b 16b                                           
   -0.013756  3a 3b -> 7a 7b                                            
   -0.012870  3a 3b -> 14a 14b                                          
    0.011481  3a 3b -> 23a 14b                                          
    0.011609  3a 3b -> 14a 23b                                          
   -0.015474  3a 3b -> 23a 23b                                          
    0.015108  4a 3b -> 7a 7b                                            
   -0.013207  4a 3b -> 17a 7b                                           
   -0.013710  4a 3b -> 22a 7b                                           
   -0.010217  4a 3b -> 28a 7b                                           
   -0.014157  4a 3b -> 7a 10b                                           
   -0.018769  3a 4b -> 7a 7b                                            
    0.016240  3a 4b -> 10a 7b                                           
    0.293128  4a 4b -> 7a 7b                                            
   -0.011658  4a 4b -> 10a 7b                                           
   -0.037319  4a 4b -> 13a 7b                                           
    0.050318  4a 4b -> 14a 7b                                           
    0.029012  4a 4b -> 22a 7b                                           
   -0.011423  4a 4b -> 7a 10b                                           
   -0.038412  4a 4b -> 7a 13b                                           
   -0.010858  4a 4b -> 14a 13b                                          
    0.040685  4a 4b -> 7a 14b                                           
    0.016349  4a 4b -> 14a 14b                                          
    0.011863  4a 4b -> 22a 14b                                          
    0.014750  4a 4b -> 17a 17b                                          
    0.023452  4a 4b -> 7a 22b                                           
    0.011965  4a 4b -> 14a 22b                                          
    0.016976  4a 4b -> 22a 22b                                          
   -0.047433  5a 5b -> 7a 7b                                            
    0.010935  5a 5b -> 10a 7b                                           
    0.012852  5a 5b -> 7a 10b                                           
   -0.012677  5a 5b -> 7a 14b                                           
   -0.011470  5a 5b -> 16a 16b                                          
   -0.011910  5a 5b -> 25a 25b                                          
   -0.013216  3a 3b -> 8a 6b                                            
    0.016330  3a 3b -> 8a 8b                                            
    0.010387  3a 3b -> 8a 20b                                           
   -0.036818  4a 3b -> 8a 6b                                            
   -0.015648  4a 3b -> 11a 6b                                           
   -0.011476  4a 3b -> 18a 6b                                           
    0.018269  4a 3b -> 8a 8b                                            
    0.022899  3a 4b -> 8a 6b                                            
    0.010671  3a 4b -> 11a 6b                                           
   -0.039572  4a 4b -> 8a 8b                                            
   -0.011700  4a 4b -> 11a 8b                                           
    0.012060  4a 4b -> 26a 8b                                           
   -0.019858  4a 4b -> 8a 11b                                           
   -0.011016  4a 4b -> 8a 20b                                           
   -0.011957  5a 5b -> 8a 6b                                            
    0.012571  5a 5b -> 8a 8b                                            
    0.044376  4a 4b -> 9a 9b                                            
    0.016385  4a 4b -> 12a 9b                                           
   -0.010485  4a 4b -> 27a 9b                                           
    0.016549  4a 4b -> 9a 12b                                           
   -0.109027  5a 5b -> 9a 9b                                            
   -0.031468  5a 5b -> 12a 9b                                           
   -0.035592  5a 5b -> 21a 9b                                           
   -0.033604  5a 5b -> 9a 12b                                           
   -0.022422  5a 5b -> 12a 12b                                          
   -0.011178  5a 5b -> 19a 19b                                          
   -0.034586  5a 5b -> 9a 21b                                           
   -0.030233  5a 5b -> 21a 21b                                          
   -0.011142  5a 5b -> 15a 15b                                          
   -0.011908  5a 5b -> 24a 24b                                          
    0.017696  6a 3b -> 16a 6b                                           
    0.010497  6a 3b -> 17a 6b                                           
   -0.015765  6a 3b -> 25a 6b                                           
   -0.010691  6a 3b -> 17a 8b                                           
    0.014932  6a 3b -> 25a 8b                                           
    0.100088  6a 4b -> 7a 6b                                            
    0.010761  6a 4b -> 10a 6b                                           
   -0.012386  6a 4b -> 13a 6b                                           
   -0.010488  6a 4b -> 14a 6b                                           
    0.010902  6a 4b -> 16a 6b                                           
   -0.010091  6a 4b -> 17a 6b                                           
   -0.113465  6a 4b -> 7a 8b                                            
    0.014196  6a 4b -> 13a 8b                                           
    0.012578  6a 4b -> 17a 8b                                           
   -0.011694  6a 4b -> 25a 8b                                           
   -0.020658  6a 4b -> 7a 11b                                           
   -0.031396  6a 4b -> 7a 20b                                           
   -0.010659  6a 3b -> 11a 7b                                           
   -0.016973  6a 3b -> 18a 7b                                           
    0.015607  6a 3b -> 26a 7b                                           
   -0.012872  6a 3b -> 8a 10b                                           
   -0.012095  6a 3b -> 20a 10b                                          
    0.015834  6a 3b -> 8a 14b                                           
    0.010112  6a 3b -> 20a 14b                                          
    0.010345  6a 3b -> 8a 17b                                           
   -0.013603  6a 3b -> 8a 23b                                           
   -0.015899  6a 3b -> 20a 23b                                          
    0.120852  6a 4b -> 8a 7b                                            
    0.029958  6a 4b -> 11a 7b                                           
    0.027251  6a 4b -> 20a 7b                                           
   -0.010132  6a 4b -> 26a 7b                                           
   -0.021746  6a 4b -> 8a 13b                                           
   -0.012079  6a 4b -> 11a 13b                                          
    0.021880  6a 4b -> 8a 14b                                           
    0.010322  6a 4b -> 20a 14b                                          
   -0.011124  6a 4b -> 20a 17b                                          
    0.010262  6a 4b -> 8a 22b                                           
    0.013048  6a 4b -> 20a 22b                                          
    0.012567  6a 3b -> 24a 9b                                           
   -0.015943  6a 4b -> 15a 9b                                           
   -0.011248  6a 4b -> 24a 9b                                           
   -0.015015  3a 5b -> 10a 9b                                           
    0.017619  3a 5b -> 14a 9b                                           
   -0.013378  3a 5b -> 23a 9b                                           
   -0.013671  3a 5b -> 7a 19b                                           
   -0.011960  3a 5b -> 10a 21b                                          
   -0.014665  3a 5b -> 23a 21b                                          
    0.012629  3a 5b -> 7a 27b                                           
   -0.106940  4a 5b -> 7a 9b                                            
    0.018951  4a 5b -> 13a 9b                                           
   -0.022330  4a 5b -> 14a 9b                                           
   -0.010883  4a 5b -> 22a 9b                                           
   -0.028735  4a 5b -> 7a 12b                                           
    0.011460  4a 5b -> 13a 12b                                          
   -0.011221  4a 5b -> 14a 12b                                          
   -0.022024  4a 5b -> 7a 21b                                           
   -0.011271  4a 5b -> 14a 21b                                          
    0.010560  4a 5b -> 17a 21b                                          
   -0.012736  4a 5b -> 22a 21b                                          
    0.011649  5a 3b -> 14a 9b                                           
    0.013123  5a 3b -> 25a 9b                                           
    0.072340  5a 4b -> 7a 9b                                            
   -0.012375  5a 4b -> 10a 9b                                           
    0.013479  5a 4b -> 14a 9b                                           
    0.019129  5a 4b -> 16a 9b                                           
   -0.011353  5a 4b -> 17a 9b                                           
   -0.011143  5a 4b -> 25a 9b                                           
    0.018960  5a 4b -> 7a 12b                                           
    0.013719  5a 4b -> 7a 21b                                           
    0.016537  4a 5b -> 8a 15b                                           
    0.011406  3a 5b -> 9a 14b                                           
   -0.068765  4a 5b -> 9a 7b                                            
   -0.016325  4a 5b -> 12a 7b                                           
   -0.014400  4a 5b -> 21a 7b                                           
    0.011961  4a 5b -> 9a 10b                                           
   -0.015595  4a 5b -> 9a 14b                                           
   -0.016788  4a 5b -> 9a 16b                                           
   -0.010743  5a 3b -> 12a 7b                                           
   -0.017103  5a 3b -> 19a 7b                                           
    0.015422  5a 3b -> 27a 7b                                           
   -0.013636  5a 3b -> 9a 10b                                           
   -0.011949  5a 3b -> 21a 10b                                          
    0.016610  5a 3b -> 9a 14b                                           
    0.010148  5a 3b -> 9a 17b                                           
   -0.013232  5a 3b -> 9a 23b                                           
   -0.015427  5a 3b -> 21a 23b                                          
    0.126530  5a 4b -> 9a 7b                                            
    0.032500  5a 4b -> 12a 7b                                           
    0.026618  5a 4b -> 21a 7b                                           
   -0.023292  5a 4b -> 9a 13b                                           
   -0.013637  5a 4b -> 12a 13b                                          
    0.020302  5a 4b -> 9a 14b                                           
    0.010452  5a 4b -> 21a 14b                                          
   -0.010357  5a 4b -> 21a 17b                                          
    0.012429  5a 4b -> 21a 22b                                          
    0.017210  5a 3b -> 15a 6b                                           
    0.015834  5a 3b -> 24a 6b                                           
   -0.015312  5a 3b -> 24a 8b                                           
    0.012669  5a 4b -> 15a 6b                                           
    0.010797  5a 4b -> 15a 8b                                           
    0.011604  5a 4b -> 24a 8b                                           
   -0.068135  6a 5b -> 8a 9b                                            
   -0.019410  6a 5b -> 11a 9b                                           
   -0.023363  6a 5b -> 20a 9b                                           
   -0.022057  6a 5b -> 8a 12b                                           
   -0.016362  6a 5b -> 11a 12b                                          
   -0.022310  6a 5b -> 8a 21b                                           
   -0.022298  6a 5b -> 20a 21b                                          
   -0.035710  6a 5b -> 9a 6b                                            
    0.040867  6a 5b -> 9a 8b                                            
    0.014609  6a 5b -> 9a 20b                                           
   -0.013306  3a 4a -> 7a 14a                                           
   -0.011884  3a 4a -> 7a 17a                                           
   -0.010454  3a 6a -> 7a 18a                                           
   -0.049746  4a 6a -> 7a 8a                                            
   -0.011415  4a 6a -> 7a 11a                                           
   -0.012138  4a 6a -> 8a 13a                                           
   -0.016269  4a 6a -> 7a 20a                                           
    0.011844  4a 6a -> 8a 22a                                           
    0.010992  4a 6a -> 20a 22a                                          
   -0.044980  4a 5a -> 7a 9a                                            
   -0.011588  4a 5a -> 7a 12a                                           
   -0.011672  4a 5a -> 9a 13a                                           
    0.010186  4a 5a -> 9a 14a                                           
    0.010277  4a 5a -> 8a 15a                                           
[...]
    0.012045  3b 4b -> 7b 17b                                           
   -0.010838  3b 5b -> 7b 12b                                           
    0.010207  3b 5b -> 6b 15b                                           
   -0.010830  3b 5b -> 7b 19b                                           
    0.057492  4b 5b -> 7b 9b                                            
    0.016813  4b 5b -> 7b 12b                                           
    0.016261  4b 5b -> 9b 13b                                           
    0.012217  4b 5b -> 12b 13b                                          
    0.012134  4b 5b -> 9b 16b                                           
   -0.013631  3a 3b -> 7a 7b                                            
   -0.012900  3a 3b -> 14a 14b                                          
    0.011487  3a 3b -> 23a 14b                                          
    0.011612  3a 3b -> 14a 23b                                          
   -0.015476  3a 3b -> 23a 23b                                          
    0.015053  4a 3b -> 7a 7b                                            
   -0.013086  4a 3b -> 17a 7b                                           
   -0.013315  4a 3b -> 22a 7b                                           
   -0.010125  4a 3b -> 28a 7b                                           
   -0.014069  4a 3b -> 7a 10b                                           
   -0.018890  3a 4b -> 7a 7b                                            
    0.016106  3a 4b -> 10a 7b                                           
    0.296772  4a 4b -> 7a 7b                                            
   -0.012213  4a 4b -> 10a 7b                                           
   -0.037813  4a 4b -> 13a 7b                                           
    0.049843  4a 4b -> 14a 7b                                           
    0.028148  4a 4b -> 22a 7b                                           
   -0.011896  4a 4b -> 7a 10b                                           
   -0.038953  4a 4b -> 7a 13b                                           
   -0.010830  4a 4b -> 14a 13b                                          
    0.041110  4a 4b -> 7a 14b                                           
    0.016356  4a 4b -> 14a 14b                                          
    0.012110  4a 4b -> 22a 14b                                          
    0.014971  4a 4b -> 17a 17b                                          
    0.023170  4a 4b -> 7a 22b                                           
    0.012242  4a 4b -> 14a 22b                                          
    0.017160  4a 4b -> 22a 22b                                          
   -0.039294  5a 5b -> 7a 7b                                            
    0.010324  5a 5b -> 10a 7b                                           
    0.012044  5a 5b -> 7a 10b                                           
   -0.011859  5a 5b -> 7a 14b                                           
   -0.011434  5a 5b -> 16a 16b                                          
   -0.012012  5a 5b -> 25a 25b                                          
   -0.012909  3a 3b -> 8a 6b                                            
    0.016161  3a 3b -> 8a 8b                                            
    0.010300  3a 3b -> 8a 20b                                           
   -0.037144  4a 3b -> 8a 6b                                            
   -0.015744  4a 3b -> 11a 6b                                           
   -0.011512  4a 3b -> 18a 6b                                           
    0.018256  4a 3b -> 8a 8b                                            
    0.022602  3a 4b -> 8a 6b                                            
    0.010651  3a 4b -> 11a 6b                                           
   -0.039216  4a 4b -> 8a 8b                                            
   -0.011520  4a 4b -> 11a 8b                                           
   -0.010113  4a 4b -> 18a 8b                                           
    0.012091  4a 4b -> 26a 8b                                           
   -0.019445  4a 4b -> 8a 11b                                           
   -0.011264  4a 4b -> 8a 20b                                           
   -0.011363  5a 5b -> 8a 6b                                            
    0.013018  5a 5b -> 8a 8b                                            
    0.042509  4a 4b -> 9a 9b                                            
    0.015757  4a 4b -> 12a 9b                                           
   -0.010444  4a 4b -> 27a 9b                                           
    0.015938  4a 4b -> 9a 12b                                           
   -0.108618  5a 5b -> 9a 9b                                            
   -0.031176  5a 5b -> 12a 9b                                           
   -0.035705  5a 5b -> 21a 9b                                           
   -0.033223  5a 5b -> 9a 12b                                           
   -0.022184  5a 5b -> 12a 12b                                          
   -0.011349  5a 5b -> 19a 19b                                          
   -0.034822  5a 5b -> 9a 21b                                           
   -0.030617  5a 5b -> 21a 21b                                          
   -0.011117  5a 5b -> 15a 15b                                          
   -0.012010  5a 5b -> 24a 24b                                          
    0.017682  6a 3b -> 16a 6b                                           
    0.010505  6a 3b -> 17a 6b                                           
   -0.015828  6a 3b -> 25a 6b                                           
   -0.010742  6a 3b -> 17a 8b                                           
    0.014991  6a 3b -> 25a 8b                                           
    0.114600  6a 4b -> 7a 6b                                            
   -0.013953  6a 4b -> 13a 6b                                           
    0.010840  6a 4b -> 16a 6b                                           
   -0.010452  6a 4b -> 17a 6b                                           
   -0.120282  6a 4b -> 7a 8b                                            
    0.015055  6a 4b -> 13a 8b                                           
    0.012759  6a 4b -> 17a 8b                                           
   -0.011739  6a 4b -> 25a 8b                                           
   -0.020366  6a 4b -> 7a 11b                                           
   -0.033568  6a 4b -> 7a 20b                                           
   -0.010414  6a 3b -> 11a 7b                                           
   -0.016647  6a 3b -> 18a 7b                                           
    0.015355  6a 3b -> 26a 7b                                           
   -0.012877  6a 3b -> 8a 10b                                           
   -0.012201  6a 3b -> 20a 10b                                          
    0.015864  6a 3b -> 8a 14b                                           
    0.010170  6a 3b -> 20a 14b                                          
    0.010317  6a 3b -> 8a 17b                                           
   -0.013621  6a 3b -> 8a 23b                                           
   -0.015972  6a 3b -> 20a 23b                                          
    0.122133  6a 4b -> 8a 7b                                            
    0.030246  6a 4b -> 11a 7b                                           
    0.026888  6a 4b -> 20a 7b                                           
   -0.022068  6a 4b -> 8a 13b                                           
   -0.011918  6a 4b -> 11a 13b                                          
    0.021922  6a 4b -> 8a 14b                                           
    0.010528  6a 4b -> 20a 14b                                          
   -0.011233  6a 4b -> 20a 17b                                          
    0.010263  6a 4b -> 8a 22b                                           
    0.013217  6a 4b -> 20a 22b                                          
    0.012459  6a 3b -> 24a 9b                                           
   -0.015708  6a 4b -> 15a 9b                                           
   -0.011246  6a 4b -> 24a 9b                                           
   -0.014980  3a 5b -> 10a 9b                                           
    0.017591  3a 5b -> 14a 9b                                           
   -0.013401  3a 5b -> 23a 9b                                           
   -0.013550  3a 5b -> 7a 19b                                           
   -0.012095  3a 5b -> 10a 21b                                          
   -0.014765  3a 5b -> 23a 21b                                          
    0.012557  3a 5b -> 7a 27b                                           
   -0.108429  4a 5b -> 7a 9b                                            
    0.019558  4a 5b -> 13a 9b                                           
   -0.022031  4a 5b -> 14a 9b                                           
   -0.010866  4a 5b -> 22a 9b                                           
   -0.029148  4a 5b -> 7a 12b                                           
    0.011581  4a 5b -> 13a 12b                                          
   -0.010999  4a 5b -> 14a 12b                                          
   -0.021864  4a 5b -> 7a 21b                                           
   -0.011419  4a 5b -> 14a 21b                                          
    0.010646  4a 5b -> 17a 21b                                          
   -0.012854  4a 5b -> 22a 21b                                          
    0.011620  5a 3b -> 14a 9b                                           
    0.013011  5a 3b -> 25a 9b                                           
    0.070216  5a 4b -> 7a 9b                                            
   -0.012237  5a 4b -> 10a 9b                                           
    0.013330  5a 4b -> 14a 9b                                           
    0.018837  5a 4b -> 16a 9b                                           
   -0.011296  5a 4b -> 17a 9b                                           
   -0.011150  5a 4b -> 25a 9b                                           
    0.018221  5a 4b -> 7a 12b                                           
    0.013932  5a 4b -> 7a 21b                                           
    0.016512  4a 5b -> 8a 15b                                           
    0.011432  3a 5b -> 9a 14b                                           
   -0.066455  4a 5b -> 9a 7b                                            
   -0.015797  4a 5b -> 12a 7b                                           
   -0.014263  4a 5b -> 21a 7b                                           
    0.011864  4a 5b -> 9a 10b                                           
   -0.015458  4a 5b -> 9a 14b                                           
   -0.016729  4a 5b -> 9a 16b                                           
   -0.010586  5a 3b -> 12a 7b                                           
   -0.016673  5a 3b -> 19a 7b                                           
    0.015087  5a 3b -> 27a 7b                                           
   -0.013677  5a 3b -> 9a 10b                                           
   -0.012059  5a 3b -> 21a 10b                                          
    0.016712  5a 3b -> 9a 14b                                           
    0.010047  5a 3b -> 21a 14b                                          
    0.010194  5a 3b -> 9a 17b                                           
   -0.013308  5a 3b -> 9a 23b                                           
   -0.015495  5a 3b -> 21a 23b                                          
    0.126214  5a 4b -> 9a 7b                                            
    0.032403  5a 4b -> 12a 7b                                           
    0.026115  5a 4b -> 21a 7b                                           
   -0.023511  5a 4b -> 9a 13b                                           
   -0.013456  5a 4b -> 12a 13b                                          
    0.020198  5a 4b -> 9a 14b                                           
    0.010698  5a 4b -> 21a 14b                                          
   -0.010456  5a 4b -> 21a 17b                                          
    0.012617  5a 4b -> 21a 22b                                          
    0.017192  5a 3b -> 15a 6b                                           
    0.015879  5a 3b -> 24a 6b                                           
   -0.015345  5a 3b -> 24a 8b                                           
    0.012493  5a 4b -> 15a 6b                                           
    0.010575  5a 4b -> 15a 8b                                           
    0.011636  5a 4b -> 24a 8b                                           
   -0.067340  6a 5b -> 8a 9b                                            
   -0.019150  6a 5b -> 11a 9b                                           
   -0.023419  6a 5b -> 20a 9b                                           
   -0.021684  6a 5b -> 8a 12b                                           
   -0.016165  6a 5b -> 11a 12b                                          
   -0.022427  6a 5b -> 8a 21b                                           
   -0.022598  6a 5b -> 20a 21b                                          
   -0.036867  6a 5b -> 9a 6b                                            
    0.041255  6a 5b -> 9a 8b                                            
    0.014757  6a 5b -> 9a 20b                                           
   -0.013176  3a 4a -> 7a 14a                                           
   -0.011804  3a 4a -> 7a 17a                                           
   -0.010590  3a 6a -> 7a 18a                                           
   -0.053953  4a 6a -> 7a 8a                                            
   -0.012327  4a 6a -> 7a 11a                                           
   -0.012934  4a 6a -> 8a 13a                                           
   -0.016491  4a 6a -> 7a 20a                                           
    0.011847  4a 6a -> 8a 22a                                           
    0.011067  4a 6a -> 20a 22a                                          
   -0.048089  4a 5a -> 7a 9a                                            
   -0.012410  4a 5a -> 7a 12a                                           
   -0.012478  4a 5a -> 9a 13a                                           
    0.010097  4a 5a -> 9a 14a                                           
    0.010381  4a 5a -> 8a 15a                                           
   -0.010218  4a 5a -> 9a 16a                                           
   -0.011721  4a 5a -> 7a 21a                                           
    0.011191  4a 5a -> 9a 22a                                           
    0.010473  4a 5a -> 21a 22a                                          
    0.042986  5a 6a -> 8a 9a                                            
   -0.012936  5a 6a -> 9a 11a                                           
    0.013829  5a 6a -> 8a 12a                                           
    0.012437  5a 6a -> 11a 12a                                          
   -0.012752  5a 6a -> 15a 16a                                          
   -0.016568  5a 6a -> 9a 20a                                           
    0.015695  5a 6a -> 8a 21a                                           
    0.018017  5a 6a -> 20a 21a                                          
    0.014296  5a 6a -> 24a 25a                                          
    0.021318  5a 4b 5b -> 9a 7b 9b                                      
    0.073175  4a 4b 5b -> 7a 7b 9b                                      
   -0.013010  4a 4b 5b -> 13a 7b 9b                                     
    0.021320  4a 4b 5b -> 7a 7b 12b                                     
    0.013948  4a 4b 5b -> 7a 9b 13b                                     
    0.015252  6a 4b 5b -> 7a 6b 9b                                      
   -0.014277  6a 4b 5b -> 7a 8b 9b                                      
    0.020013  6a 4b 5b -> 8a 7b 9b                                      
   -0.018166  4a 5a 5b -> 7a 9a 9b                                      
   -0.011976  4a 6a 4b -> 7a 14a 6b                                     
    0.076622  4a 6a 4b -> 7a 8a 7b                                      
    0.019543  4a 6a 4b -> 7a 11a 7b                                     
    0.013273  4a 6a 4b -> 8a 13a 7b                                     
    0.013542  4a 6a 4b -> 7a 20a 7b                                     
   -0.013097  4a 6a 4b -> 7a 8a 13b                                     
    0.013727  5a 6a 5b -> 8a 9a 9b                                      
    0.070769  4a 5a 4b -> 7a 9a 7b                                      
    0.019400  4a 5a 4b -> 7a 12a 7b                                     
    0.012916  4a 5a 4b -> 9a 13a 7b                                     
   -0.012936  4a 5a 4b -> 7a 9a 13b                                     
   -0.017477  4a 6a 5b -> 7a 8a 9b                                      
    0.015022  5a 6a 4b -> 7a 8a 9b                                      
    0.013850  4a 6a 5b -> 8a 9a 7b                                      
   -0.027835  5a 6a 4b -> 8a 9a 7b                                      
    0.030080  4a 5a 4b 5b -> 7a 9a 7b 9b                                
    0.010272  4a 5a 4b 5b -> 7a 12a 7b 9b                               
    0.010958  4a 5a 4b 5b -> 7a 9a 7b 12b                               
    0.026803  4a 6a 4b 5b -> 7a 8a 7b 9b                                
   -0.020038  4a 5a 6a 4b -> 7a 8a 9a 7b                                

 ************************ 2021-07-31 18:27:20 *************************
 Executing goldstone...

 Generation of CC equations in terms of H and T...
 Generation of antisymmetrized Goldstone diagrams...
 Number of diagrams in T^1 equations:    15
 Number of diagrams in T^2 equations:    38
 Number of diagrams in T^3 equations:    54
 Number of diagrams in T^4 equations:    81
 Number of diagrams in T^5 equations:   106
 Number of diagrams in T^6 equations:   138
 Number of diagrams in T^7 equations:    20
 Translation of diagrams to factorized equations...
 Optimizing intermediate calculation...
 Number of floating-point operations per iteration step:   1.7220E+12
 Probable CPU time per iteration step (hours):     17.22
 Required memory (Mbytes):     298.4
 Number of intermediates:                                 219
 Number of intermediates to be stored:                     88
 Length of intermediate file (Mbytes):     896.7

 ************************ 2021-07-31 18:27:21 *************************
 Executing xmrcc...

 **********************************************************************
 CC(6)(7) calculation 
 
 
 Allocation of 298.4 Mbytes of memory...
 Number of spinorbitals:                    52
 Number of alpha electrons:                        4
 Number of beta electrons:                         3
 Spin multiplicity:                     2
 z-component of spin:  0.5
 Spatial symmetry:                      2
 Convergence criterion:  1.0E-05
 Construction of occupation graphs...
 Number of                     0 -fold excitations:                      1
 Number of                     1 -fold excitations:                     55
 Number of                     2 -fold excitations:                   2184
 Number of                     3 -fold excitations:                  42626
 Number of                     4 -fold excitations:                 409987
 Number of                     5 -fold excitations:                1909541
 Number of                     6 -fold excitations:                4115720
 Total number of configurations:                6480114
 Calculation of coupling coefficients...
 Length of intermediate file (Mbytes):     536.6
 
 ======================================================================
 
 Spin case  1   Alpha:  4   Beta:  3
 Number of excitations:                3237710
 
 Fatal error in exec xmrcc.
 Program will stop.
 
 ************************ 2021-07-31 18:27:21 *************************
                   Error at the termination of mrcc.
 **********************************************************************
