 **********************************************************************
                          MRCC program system
 **********************************************************************
 
                              Written by
 Mihaly Kallay, Peter R. Nagy, David Mester, Zoltan Rolik, Gyula Samu,
   Jozsef Csontos, Jozsef Csoka, P. Bernat Szabo, Laszlo Gyevi-Nagy,
    Bence Hegely, Istvan Ladjanszki, Lorant Szegedy, Bence Ladoczki,
       Klara Petrov, Mate Farkas, Pal D. Mezei, and Adam Ganyecz
 
        Department of Physical Chemistry and Materials Science
            Budapest University of Technology and Economics
                  Budapest P.O.Box 91, H-1521 Hungary
 
                              www.mrcc.hu
 
                    Release date: February 22, 2020

 ************************ 2021-07-31 19:03:25 *************************
 Executing minp...

 Reading input from MINP...
 
 Input file:
 
#
#TITLE
basis=VDZ-EMSL
uncontract=off
#iface=cfour
calc=CI(8)
mem=80GB
#core=1
core=frozen
itol=18
scftol=13
cctol=5
ccmaxit=999
scfmaxit=9999
scftype=ROHF
rohftype=semicanonical
scfiguess=ao
rest=2
charge=+1
mult=2
#symm=1
#occ=3,0,0,0,0,1,2,2/3,0,0,0,0,1,1,1

#refdet=serialno
#1
#2,3

unit=angs
geom=xyz
2

B 0.0000 0.0000 0.0000
N 0.0000 0.0000 1.281

#Li 1 R

#R=3.065


tprint=0.01
verbosity=3
#nstate=4


 
 
 Checking keyword combinations...
 
 Keywords:
 
 active=none
 agrid=ld0006-ld0590
 basis=vdz-emsl
 basis_sm=none
 basopt=off
 bfbasis=none
 bfgsmem=10
 bfgstol=1.0d-3
 bpcompo=0.985
 bpcompv=0.98
 bpdfo=0.985
 bpocc=0.985
 bppdo=0.985
 bppdv=0.98
 bpedo=0.985
 bpedv=0.98
 calc=ci(8)
 ccmaxit=999
 ccprog=mrcc
 ccsdalg=disk
 ccsdmkl=seq
 ccsdrest=off
 ccsdthreads=2
 cctol=5
 charge=+1
 cialg=disk
 ciguess=off
 cmpgrp=auto
 core=frozen
 corembed=off
 csapprox=off
 dboc=off
 dendec=cholesky
 dens=0
 dfalg=lineq
 dfbasis_cor=none
 dfbasis_scf=none
 dfintran=ovirt
 dft=off
 dhexc=adc(2)
 diag=david
 docc=
 domrad=10.d0
 drpaalg=fit
 dual=off
 ecp=auto
 edisp=off
 edisp_embed=off
 embed=off
 epert=none
 eps=0.975
 excrad=0.d0
 excrad_fin=0.000000000D+00
 fmm=off
 fmmord=8
 freq=off
 gauss=spher
 geom=xyz
 gopt=off
 ghost=none
 gtol=7
 grdens=off
 grtol=10
 hamilton=dc
 iface=none
 intalg=auto
 itol=18
 laptol=1.d-2
 lccoporder=trffirst
 lcorthr=normal
 lccrest=off
 lmp2dens=on
 lnoepso=0.d0
 lnoepsv=1e-6
 localcc=off
 localcorrsymm=off
 locintrf=disk
 mact=
 maxact=off
 maxdim=100
 maxex=0
 maxmicroit=100
 mcscfiguess=hf
 mem=80gb
 molden=on
 mpitasks=1
 mulmet=0
 mult=2
 nacto=0
 nactv=0
 naf_cor=off
 naf_scf=off
 nafalg=albe
 naftyp=
 nchol=auto
 ndeps=1e-3
 nstate=1
 nsing=0
 ntrip=0
 occ=
 oniom=off
 oniom_eechg=off
 oniom_pcm=off
 optalg=
 optmaxit=50
 optetol=1e-6
 optex=   0
 optgtol=1e-4
 optstol=1e-3
 orblocc=off
 orbloce=off
 orbloco=off
 orblocv=off
 orblocguess=cholesky
 osveps=1e-3
 ovirt=off
 ovltol=1e-7
 ovosnorb=80.0
 pcm=off
 popul=off
 pressure=100000
 pssp=off
 ptfreq=0.0
 ptthreads=2
 qscf=off
 qmmm=off
 redcost_exc=off
 redcost_tddft=off
 refdet=none
 rest=2
 rgrid=log3
 rohfcore=semicanonical
 rohftype=semicanonical
 scfalg=auto
 scfdamp=off
 scfdiis=on
 scfdiis_end=9999
 scfdiis_start=1
 scfdiis_step=1
 scfdtol=14
 scfext=10
 scfguessdens=
 scfiguess=ao
 scflshift=off
 scfmaxit=9999
 scftype=rohf
 scftol=13
 scspe=1.d0
 scsph=1.d0
 scsps=1.2d0
 scspt=0.33333333333333
 scspv=1.d0
 spairtol=1e-4
 subminp=top
 symm=
 talg=occ
 temp=298.15
 test=off
 theodore=off
 tlmo=0.999
 tpao=0.94
 tprint=0.01
 uncontract=off
 unit=angs
 usedisk=2
 verbosity=3
 wpairtol=0.100000000E-05

 ************************ 2021-07-31 19:03:26 *************************
 Executing integ...

 Allocation of 80.0 Gbytes of memory...
 
 
 Number of atoms:                  2
 Charge:                           1
 Number of electrons:             11
 Number of core electrons:         4
 Spin multiplicity:                2
 
                 Cartesian coordinates [bohr]      Atomic mass [AMU]  Z
   1  B     0.00000000    0.00000000    0.00000000    11.009305       5
   2  N     0.00000000    0.00000000    2.42073917    14.003074       7
 
 This molecule is linear.
 
 Rotational constants [cm-1]: 
      1.666747998989
 
 Point group: Cxv 
 Computational point group: C2v 
 
 Cartesian coordinates in standard orientation [bohr]
   1  B     0.00000000    0.00000000   -1.35524050
   2  N     0.00000000    0.00000000    1.06549866
 
 Nuclear repulsion energy [au]:         14.458393734153
 
 
 Basis set information:
 
 Maximum angular momentum: d
 Maximum number of contracted Gaussians:    3
 Maximum number of primitive Gaussians:     9
 Spherical harmonic GTOs are used.
 
    1  B  vdz-emsl [ 9s 4p 1d | 3s 2p 1d ]
    2  N  vdz-emsl [ 9s 4p 1d | 3s 2p 1d ]
 
 Basis functions:
            1             2             3             4             5             6             7             8             9            10
    0    1B1s          1B2s          1B3s          1B1pz         1B1py         1B1px         1B2pz         1B2py         1B2px         1B1d-2    
    1    1B1d-1        1B1d0         1B1d+1        1B1d+2        2N1s          2N2s          2N3s          2N1pz         2N1py         2N1px     
    2    2N2pz         2N2py         2N2px         2N1d-2        2N1d-1        2N1d0         2N1d+1        2N1d+2    
 
 Maximum number of basis functions per shell:    6
 Total number of basis functions:     28
 
 
 Character table for point group C2v:
 
          E  C2  Qh  Qv  
    A1    1   1   1   1
    B1    1  -1   1  -1
    B2    1  -1  -1   1
    A2    1   1  -1  -1
 
 Number of basis functions per irrep:
    A1     14
    B1      6
    B2      6
    A2      2
 
 
 Calculation of overlap integrals...
 CPU time [min]:     0.079                   Wall time [min]:     0.026
 
 Calculation of the square root of the overlap matrix...
 Minimum eigenvalue of the overlap matrix: 0.126997E-01
 CPU time [min]:     0.130                   Wall time [min]:     0.049
 
 Calculation of kinetic energy integrals...
 CPU time [min]:     0.150                   Wall time [min]:     0.050
 Calculation of nuclear attraction integrals...
 CPU time [min]:     0.150                   Wall time [min]:     0.050
 
 Calculation of prescreening integrals...
 CPU time [min]:     0.156                   Wall time [min]:     0.051
 
 Calculation of two-electron integrals...
   1% done.
  14% done.
  46% done.
 100% done.
 CPU time [min]:     0.197                   Wall time [min]:     0.054

 ************************ 2021-07-31 19:03:30 *************************
 Executing scf...

 @scfsetup: integrals taken from disk
            mrcc/integ binary format
 @scfsetup: calc on blockdiagonal matrices
            using symmetry adapted basis
 @scfsetup: diis switched on
 @scfsetup: number of steps to extrapolate from  10
 @scfsetup: tolerance in energy deviation    0.100000E-12
            tolerance in density deviation    0.100000E-13
 @scfsetup: maximum number of iterations:9999
 @scfsetup: restricted open shell hf calc
            semicanonical orbitals
 @scfsetup: starting scf from diagonal ao guess
 @scfsetup: occupation set:
            from initial orbitals
 @scfsetup: diis runs from iteration:   1
 @scfsetup: diis runs to iteration:9999
 @scfsetup: diis runs in every iteration
 Allocation of 80.0 Gbytes of memory...
 ======================================================================
 ITERATION STEP   1
 CPU time [min]:     0.004                   Wall time [min]:     0.006
 
 Gradient norm:      0.0000E+00
 RMS of total difference density:                      0.22510532175610
 RMS of open-shell difference density:                 0.06879160119773
 Gap [au]:  0.29153324
 ALPHA OCC:   4   1   1   0
 BETA  OCC:   4   0   1   0
 
 ***HARTREE-FOCK ENERGY IN STEP   1 IS     -73.8726884290727099 [AU]
 ======================================================================
 ITERATION STEP   2
 CPU time [min]:     0.005                   Wall time [min]:     0.013
 
 Gradient norm:      0.0000E+00
 DIIS is running in this iteration step.
 RMS of [F,P]:                                         0.08968513464838
 RMS of total difference density:                      0.28308549074054
 RMS of open-shell difference density:                 0.08655741879502
 Gap [au]:  0.00643791
 ALPHA OCC:   4   1   1   0
 BETA  OCC:   4   0   1   0
 
 ***HARTREE-FOCK ENERGY IN STEP   2 IS     -78.1693195473254576 [AU]
 ======================================================================
 ITERATION STEP   3
 CPU time [min]:     0.006                   Wall time [min]:     0.013
 
 Gradient norm:      0.0000E+00
 DIIS is running in this iteration step.
 RMS of [F,P]:                                         0.17613840917118
 RMS of total difference density:                      0.18095990480272
 RMS of open-shell difference density:                 0.05693256565129
 Gap [au]:  0.01988171
 ALPHA OCC:   4   1   1   0
 BETA  OCC:   4   0   1   0
 
 ***HARTREE-FOCK ENERGY IN STEP   3 IS     -76.7773259737642348 [AU]
 ======================================================================
 ITERATION STEP   4
 CPU time [min]:     0.006                   Wall time [min]:     0.014
 
 Gradient norm:      0.0000E+00
 DIIS is running in this iteration step.
 RMS of [F,P]:                                         0.01351848567580
 RMS of total difference density:                      0.02348629277151
 RMS of open-shell difference density:                 0.00716597590740
 Gap [au]:  0.12794383
 ALPHA OCC:   4   1   1   0
 BETA  OCC:   4   0   1   0
 
 ***HARTREE-FOCK ENERGY IN STEP   4 IS     -78.5097496388595886 [AU]
 ======================================================================
 ITERATION STEP   5
 CPU time [min]:     0.007                   Wall time [min]:     0.015
 
 Gradient norm:      0.0000E+00
 DIIS is running in this iteration step.
 RMS of [F,P]:                                         0.00337271593636
 RMS of total difference density:                      0.00924645123818
 RMS of open-shell difference density:                 0.00397876875803
 Gap [au]:  0.13202281
 ALPHA OCC:   4   1   1   0
 BETA  OCC:   4   0   1   0
 
 ***HARTREE-FOCK ENERGY IN STEP   5 IS     -78.5249936070298418 [AU]
 ======================================================================
 ITERATION STEP   6
 CPU time [min]:     0.007                   Wall time [min]:     0.015
 
 Gradient norm:      0.0000E+00
 DIIS is running in this iteration step.
 RMS of [F,P]:                                         0.00211272020489
 RMS of total difference density:                      0.00491474433443
 RMS of open-shell difference density:                 0.00122550816749
 Gap [au]:  0.12962613
 ALPHA OCC:   4   1   1   0
 BETA  OCC:   4   0   1   0
 
 ***HARTREE-FOCK ENERGY IN STEP   6 IS     -78.5271548783050690 [AU]
 ======================================================================
 ITERATION STEP   7
 CPU time [min]:     0.008                   Wall time [min]:     0.016
 
 Gradient norm:      0.0000E+00
 DIIS is running in this iteration step.
 RMS of [F,P]:                                         0.00153060773949
 RMS of total difference density:                      0.00612867120303
 RMS of open-shell difference density:                 0.00065374423754
 Gap [au]:  0.12624991
 ALPHA OCC:   4   1   1   0
 BETA  OCC:   4   0   1   0
 
 ***HARTREE-FOCK ENERGY IN STEP   7 IS     -78.5278161351744473 [AU]
 ======================================================================
 ITERATION STEP   8
 CPU time [min]:     0.008                   Wall time [min]:     0.016
 
 Gradient norm:      0.0000E+00
 DIIS is running in this iteration step.
 RMS of [F,P]:                                         0.00059949017555
 RMS of total difference density:                      0.00541010988477
 RMS of open-shell difference density:                 0.00009154623778
 Gap [au]:  0.12552430
 ALPHA OCC:   4   1   1   0
 BETA  OCC:   4   0   1   0
 
 ***HARTREE-FOCK ENERGY IN STEP   8 IS     -78.5283378576829847 [AU]
 ======================================================================
 ITERATION STEP   9
 CPU time [min]:     0.009                   Wall time [min]:     0.017
 
 Gradient norm:      0.0000E+00
 DIIS is running in this iteration step.
 RMS of [F,P]:                                         0.00045245784878
 RMS of total difference density:                      0.00179430218286
 RMS of open-shell difference density:                 0.00016857651367
 Gap [au]:  0.12590493
 ALPHA OCC:   4   1   1   0
 BETA  OCC:   4   0   1   0
 
 ***HARTREE-FOCK ENERGY IN STEP   9 IS     -78.5285097723506311 [AU]
 ======================================================================
 ITERATION STEP  10
 CPU time [min]:     0.009                   Wall time [min]:     0.017
 
 Gradient norm:      0.0000E+00
 DIIS is running in this iteration step.
 RMS of [F,P]:                                         0.00007645521390
 RMS of total difference density:                      0.00065797312349
 RMS of open-shell difference density:                 0.00016889426628
 Gap [au]:  0.12559032
 ALPHA OCC:   4   1   1   0
 BETA  OCC:   4   0   1   0
 
 ***HARTREE-FOCK ENERGY IN STEP  10 IS     -78.5285371784632531 [AU]
 ======================================================================
 ITERATION STEP  11
 CPU time [min]:     0.010                   Wall time [min]:     0.018
 
 Gradient norm:      0.0000E+00
 DIIS is running in this iteration step.
 RMS of [F,P]:                                         0.00002599864509
 RMS of total difference density:                      0.00021397412051
 RMS of open-shell difference density:                 0.00011890142441
 Gap [au]:  0.12544984
 ALPHA OCC:   4   1   1   0
 BETA  OCC:   4   0   1   0
 
 ***HARTREE-FOCK ENERGY IN STEP  11 IS     -78.5285399233154777 [AU]
 ======================================================================
 ITERATION STEP  12
 CPU time [min]:     0.010                   Wall time [min]:     0.019
 
 Gradient norm:      0.0000E+00
 DIIS is running in this iteration step.
 RMS of [F,P]:                                         0.00000435005943
 RMS of total difference density:                      0.00003044234103
 RMS of open-shell difference density:                 0.00001984416983
 Gap [au]:  0.12544029
 ALPHA OCC:   4   1   1   0
 BETA  OCC:   4   0   1   0
 
 ***HARTREE-FOCK ENERGY IN STEP  12 IS     -78.5285402252676334 [AU]
 ======================================================================
 ITERATION STEP  13
 CPU time [min]:     0.011                   Wall time [min]:     0.019
 
 Gradient norm:      0.0000E+00
 DIIS is running in this iteration step.
 RMS of [F,P]:                                         0.00000214473600
 RMS of total difference density:                      0.00000415621339
 RMS of open-shell difference density:                 0.00000097150683
 Gap [au]:  0.12544511
 ALPHA OCC:   4   1   1   0
 BETA  OCC:   4   0   1   0
 
 ***HARTREE-FOCK ENERGY IN STEP  13 IS     -78.5285402313045324 [AU]
 ======================================================================
 ITERATION STEP  14
 CPU time [min]:     0.011                   Wall time [min]:     0.020
 
 Gradient norm:      0.0000E+00
 DIIS is running in this iteration step.
 RMS of [F,P]:                                         0.00000033615795
 RMS of total difference density:                      0.00000069625096
 RMS of open-shell difference density:                 0.00000019883798
 Gap [au]:  0.12544461
 ALPHA OCC:   4   1   1   0
 BETA  OCC:   4   0   1   0
 
 ***HARTREE-FOCK ENERGY IN STEP  14 IS     -78.5285402315171694 [AU]
 ======================================================================
 ITERATION STEP  15
 CPU time [min]:     0.012                   Wall time [min]:     0.020
 
 Gradient norm:      0.0000E+00
 DIIS is running in this iteration step.
 RMS of [F,P]:                                         0.00000002735328
 RMS of total difference density:                      0.00000007017644
 RMS of open-shell difference density:                 0.00000000275606
 Gap [au]:  0.12544467
 ALPHA OCC:   4   1   1   0
 BETA  OCC:   4   0   1   0
 
 ***HARTREE-FOCK ENERGY IN STEP  15 IS     -78.5285402315235075 [AU]
 ======================================================================
 ITERATION STEP  16
 CPU time [min]:     0.012                   Wall time [min]:     0.021
 
 Gradient norm:      0.0000E+00
 DIIS is running in this iteration step.
 RMS of [F,P]:                                         0.00000000146777
 RMS of total difference density:                      0.00000000802710
 RMS of open-shell difference density:                 0.00000000525586
 Gap [au]:  0.12544467
 ALPHA OCC:   4   1   1   0
 BETA  OCC:   4   0   1   0
 
 ***HARTREE-FOCK ENERGY IN STEP  16 IS     -78.5285402315235359 [AU]
 ======================================================================
 ITERATION STEP  17
 CPU time [min]:     0.013                   Wall time [min]:     0.021
 
 Gradient norm:      0.0000E+00
 DIIS is running in this iteration step.
 RMS of [F,P]:                                         0.00000000031785
 RMS of total difference density:                      0.00000000070569
 RMS of open-shell difference density:                 0.00000000017091
 Gap [au]:  0.12544467
 ALPHA OCC:   4   1   1   0
 BETA  OCC:   4   0   1   0
 
 ***HARTREE-FOCK ENERGY IN STEP  17 IS     -78.5285402315235501 [AU]
 ======================================================================
 ITERATION STEP  18
 CPU time [min]:     0.013                   Wall time [min]:     0.022
 
 Gradient norm:      0.0000E+00
 DIIS is running in this iteration step.
 RMS of [F,P]:                                         0.00000000008035
 RMS of total difference density:                      0.00000000018082
 RMS of open-shell difference density:                 0.00000000006625
 Gap [au]:  0.12544467
 ALPHA OCC:   4   1   1   0
 BETA  OCC:   4   0   1   0
 
 ***HARTREE-FOCK ENERGY IN STEP  18 IS     -78.5285402315235217 [AU]
 ======================================================================
 ITERATION STEP  19
 CPU time [min]:     0.013                   Wall time [min]:     0.022
 
 Gradient norm:      0.0000E+00
 DIIS is running in this iteration step.
 RMS of [F,P]:                                         0.00000000000243
 RMS of total difference density:                      0.00000000001053
 RMS of open-shell difference density:                 0.00000000000129
 Gap [au]:  0.12544467
 ALPHA OCC:   4   1   1   0
 BETA  OCC:   4   0   1   0
 
 ***HARTREE-FOCK ENERGY IN STEP  19 IS     -78.5285402315234933 [AU]
 ======================================================================
 ITERATION STEP  20
 CPU time [min]:     0.014                   Wall time [min]:     0.023
 
 Gradient norm:      0.0000E+00
 DIIS is running in this iteration step.
 RMS of [F,P]:                                         0.00000000000058
 RMS of total difference density:                      0.00000000000207
 RMS of open-shell difference density:                 0.00000000000033
 Gap [au]:  0.12544467
 ALPHA OCC:   4   1   1   0
 BETA  OCC:   4   0   1   0
 
 ***HARTREE-FOCK ENERGY IN STEP  20 IS     -78.5285402315235359 [AU]
 ======================================================================
 ITERATION STEP  21
 CPU time [min]:     0.015                   Wall time [min]:     0.024
 
 Gradient norm:      0.0000E+00
 DIIS is running in this iteration step.
 RMS of [F,P]:                                         0.00000000000025
 RMS of total difference density:                      0.00000000000057
 RMS of open-shell difference density:                 0.00000000000010
 Gap [au]:  0.12544467
 ALPHA OCC:   4   1   1   0
 BETA  OCC:   4   0   1   0
 
 ***HARTREE-FOCK ENERGY IN STEP  21 IS     -78.5285402315234791 [AU]
 ======================================================================
 ITERATION STEP  22
 CPU time [min]:     0.015                   Wall time [min]:     0.024
 
 Gradient norm:      0.0000E+00
 DIIS is running in this iteration step.
 RMS of [F,P]:                                         0.00000000000002
 RMS of total difference density:                      0.00000000000006
 RMS of open-shell difference density:                 0.00000000000003
 Gap [au]:  0.12544467
 ALPHA OCC:   4   1   1   0
 BETA  OCC:   4   0   1   0
 
 ***HARTREE-FOCK ENERGY IN STEP  22 IS     -78.5285402315235217 [AU]
 ======================================================================
 ITERATION STEP  23
 CPU time [min]:     0.016                   Wall time [min]:     0.025
 
 Gradient norm:      0.0000E+00
 DIIS is running in this iteration step.
 RMS of [F,P]:                                         0.00000000000000
 RMS of total difference density:                      0.00000000000001
 RMS of open-shell difference density:                 0.00000000000000
 Gap [au]:  0.12544467
 ALPHA OCC:   4   1   1   0
 BETA  OCC:   4   0   1   0
 
 ***HARTREE-FOCK ENERGY IN STEP  23 IS     -78.5285402315235217 [AU]
 ======================================================================
 
 SUCCESS...
 THE SCF ITERATION HAS CONVERGED!
 
                   A1  B1  B2  A2  
 FINAL ALPHA OCC:   4   1   1   0
 FINAL BETA  OCC:   4   0   1   0
 
 ***FINAL HARTREE-FOCK ENERGY:    -78.5285402315235217 [AU]
 
 ***SEMICANONICAL ROHF ENERGY:    -78.5285402315234649 [AU]
 
 Orbital energies [au]:
      Irrep         Alpha          Beta
    1   A1       -15.979771     -15.960718
    2   A1        -8.158207      -8.153313
    3   A1        -1.493380      -1.387818
    4   A1        -0.870941      -0.833071
    5   B2        -0.786679      -0.763380
 
    6   B1        -0.848435      -0.326827
 
    7   A1        -0.431027      -0.418574
    8   B1        -0.193568      -0.067642
    9   B2        -0.164038      -0.153504
   10   A1         0.001224       0.012292
   11   B1         0.121996       0.158265
   12   B2         0.134268       0.137791
   13   A1         0.154401       0.159632
   14   A1         0.437643       0.456816
   15   A2         0.506217       0.534484
   16   A1         0.506512       0.534429
   17   A1         0.600111       0.617905
   18   B1         0.651826       0.686575
   19   B2         0.674983       0.680049
   20   B1         0.736185       0.844802
   21   B2         0.782801       0.794586
   22   A1         1.141377       1.159672
   23   A1         1.365750       1.389286
   24   A2         1.777581       1.846446
   25   A1         1.777614       1.846530
   26   B1         2.126303       2.184813
   27   B2         2.166381       2.176022
   28   A1         2.580555       2.602656
 
 RETURNING FROM SCF ALGORITHM
 ======================================================================

 ************************ 2021-07-31 19:03:35 *************************
 Executing ovirt...

 ovirt, the routine of orbital optimization and integral transformation 
Sat Jul 31 19:03:35 EDT 2021
 memory =                  81920  Mb           10737418240  8 byte word
 mrccboot = T
 scftype  = rohf 
 localcc  = off 
 core     = frozen
 ovirt    = off  
 ccprog   = mrcc
 dfnbasis =                      0
 dfbasis_cor =none                
 lmp2dens = on 
 dens =                      0
 verblev =                      3
 task     =                      4
 epsilon =   0.975000000000000     
 lmp2= on 
 localNO  =  F
 localMP2 =  F
 localMP2_TEST =  F
 LMP2_shortcut =  F
 FOCKTR   =  T
 Allocated memory:                   81920  Mb
 onbasis=                    28
 UHF calculation! 
 integral transformation: AOs --- MOs (alpha-alpha)
 # of basis functions, # of int. blocks    28     1
100 % 
 second part
100 %
 integral transformation is completed! 
 integral transformation: AOs ------ MOs (beta-beta)
 # of basis functions, # of int. blocks    28     1
100 % 
 second part
100 %
 integral transformation is completed! 
 integral transformation: AOs ----- MOs (alpha-beta)
# of basis functions, # of int. blocks    28     1
 integral transformation
======================================== 
Sat Jul 31 19:03:55 EDT 2021
  ovirt terminated normally 

 ************************ 2021-07-31 19:03:55 *************************
 Executing goldstone...

 Generation of CI equations in terms of H and C...
 Generation of antisymmetrized Goldstone diagrams...
 Number of diagrams in T^1 equations:     8
 Number of diagrams in T^2 equations:    13
 Number of diagrams in T^3 equations:    13
 Number of diagrams in T^4 equations:    13
 Number of diagrams in T^5 equations:    13
 Number of diagrams in T^6 equations:    12
 Number of diagrams in T^7 equations:     9
 Translation of diagrams to factorized equations...
 Optimizing intermediate calculation...
 Number of floating-point operations per iteration step:   2.8216E+11
 Probable CPU time per iteration step (hours):      2.82
 Required memory (Mbytes):     109.7
 Number of intermediates:                                  92
 Number of intermediates to be stored:                     11
 Length of intermediate file (Mbytes):       1.7

 ************************ 2021-07-31 19:03:55 *************************
 Executing xmrcc...

 **********************************************************************
 CI(                     7 ) calculation 
 
 
 Allocation of 109.7 Mbytes of memory...
 Number of spinorbitals:                    52
 Number of alpha electrons:                        4
 Number of beta electrons:                         3
 Spin multiplicity:                     2
 z-component of spin:  0.5
 Spatial symmetry:                      2
 Convergence criterion:  1.0E-05
 Construction of occupation graphs...
 Number of                     0 -fold excitations:                      1
 Number of                     1 -fold excitations:                     55
 Number of                     2 -fold excitations:                   2184
 Number of                     3 -fold excitations:                  42626
 Number of                     4 -fold excitations:                 409987
 Number of                     5 -fold excitations:                1909541
 Number of                     6 -fold excitations:                4115720
 Number of                     7 -fold excitations:                3237710
 Total number of configurations:                9717824
 Calculation of coupling coefficients...
 Length of intermediate file (Mbytes):       1.4
 
 ======================================================================
 
 Memory requirements /Mbyte/: 
               Minimal        Optimal
 Real*8:        420.4537       420.4537
 Integer:         2.8745
 Total:         423.3282       423.3282
 

 ************************ 2021-07-31 19:03:56 *************************
 Executing goldstone...

 Generation of CI equations in terms of H and C...
 Generation of antisymmetrized Goldstone diagrams...
 Number of diagrams in T^1 equations:     7
 Number of diagrams in T^2 equations:     9
 Translation of diagrams to factorized equations...
 Optimizing intermediate calculation...
 Number of floating-point operations per iteration step:   1.7010E+06
 Probable CPU time per iteration step (hours):      0.00
 Required memory (Mbytes):      34.8
 Number of intermediates:                                  27
 Number of intermediates to be stored:                     11
 Length of intermediate file (Mbytes):       1.7

 ************************ 2021-07-31 19:04:05 *************************
 Executing xmrcc...

 **********************************************************************
 CI(                     2 ) calculation 
 
 
 Allocation of 100.0 Mbytes of memory...
 Number of spinorbitals:                    52
 Number of alpha electrons:                        4
 Number of beta electrons:                         3
 Spin multiplicity:                     2
 z-component of spin:  0.5
 Spatial symmetry:                      2
 Convergence criterion:  1.0E-05
 Construction of occupation graphs...
 Number of                     0 -fold excitations:                      1
 Number of                     1 -fold excitations:                     55
 Number of                     2 -fold excitations:                   2184
 Total number of configurations:                   2240
 Calculation of coupling coefficients...
 Length of intermediate file (Mbytes):       1.4
 
 ======================================================================
 
 Memory requirements /Mbyte/: 
               Minimal        Optimal
 Real*8:          0.7361         3.7166
 Integer:         0.3354
 Total:           1.0715         4.0520
 

 ************************ 2021-07-31 19:04:05 *************************
 Executing mrcc...

 **********************************************************************
 CISD calculation                                                       
 
 
 OpenMP parallel version is running.
 Number of CPU cores:  16
 Allocation of    3.7 Mbytes of memory...
 Number of spinorbitals:  52
 Number of alpha electrons:  4
 Number of beta  electrons:  3
 Spin multiplicity: 2
 z-component of spin:  0.5
 Spatial symmetry: 2
 Convergence criterion:  1.0E-05
 Construction of occupation graphs...
 Number of 0-fold excitations: 1
 Number of 1-fold excitations: 55
 Number of 2-fold excitations: 2184
 Total number of determinants: 2240
 Calculation of coupling coefficients...
 Initial cluster amplitudes are generated.
 Length of intermediate file (Mbytes):       1.4
 Reading integral list from unit 55...
 Sorting integrals...
 Sorting integrals...
 Sorting integrals...
 Sorting integrals...
 Calculation of diagonal elements of Hamiltonian...
 
 Starting CI iteration for root                      1 ...
 ======================================================================
 Norm of residual vector:     0.74683181      Convergence:   1.00000000
 CPU time [min]:     0.115                   Wall time [min]:     0.015
 
 Iteration  1  CI energy:   -78.52854023  Energy decrease:   0.0000E+00
 ======================================================================
 Norm of residual vector:     0.27745300      Convergence:   0.21630532
 CPU time [min]:     0.126                   Wall time [min]:     0.015
 
 Iteration  2  CI energy:   -78.69398075  Energy decrease:   0.16544052
 ======================================================================
 Norm of residual vector:     0.14449656      Convergence:   0.08760272
 CPU time [min]:     0.137                   Wall time [min]:     0.016
 
 Iteration  3  CI energy:   -78.71838854  Energy decrease:   0.02440778
 ======================================================================
 Norm of residual vector:     0.09791008      Convergence:   0.05398844
 CPU time [min]:     0.147                   Wall time [min]:     0.017
 
 Iteration  4  CI energy:   -78.72620312  Energy decrease:   0.00781458
 ======================================================================
 Norm of residual vector:     0.07376666      Convergence:   0.03831321
 CPU time [min]:     0.158                   Wall time [min]:     0.017
 
 Iteration  5  CI energy:   -78.72995788  Energy decrease:   0.00375476
 ======================================================================
 Norm of residual vector:     0.05695389      Convergence:   0.03095863
 CPU time [min]:     0.168                   Wall time [min]:     0.018
 
 Iteration  6  CI energy:   -78.73224317  Energy decrease:   0.00228530
 ======================================================================
 Norm of residual vector:     0.04592352      Convergence:   0.02576864
 CPU time [min]:     0.179                   Wall time [min]:     0.019
 
 Iteration  7  CI energy:   -78.73371154  Energy decrease:   0.00146837
 ======================================================================
 Norm of residual vector:     0.03689147      Convergence:   0.02230838
 CPU time [min]:     0.190                   Wall time [min]:     0.019
 
 Iteration  8  CI energy:   -78.73473646  Energy decrease:   0.00102491
 ======================================================================
 Norm of residual vector:     0.02953777      Convergence:   0.01789992
 CPU time [min]:     0.201                   Wall time [min]:     0.020
 
 Iteration  9  CI energy:   -78.73539696  Energy decrease:   0.00066051
 ======================================================================
 Norm of residual vector:     0.02569192      Convergence:   0.01598479
 CPU time [min]:     0.212                   Wall time [min]:     0.021
 
 Iteration 10  CI energy:   -78.73586920  Energy decrease:   0.00047224
 ======================================================================
 Norm of residual vector:     0.01920320      Convergence:   0.01287997
 CPU time [min]:     0.224                   Wall time [min]:     0.022
 
 Iteration 11  CI energy:   -78.73620015  Energy decrease:   0.00033095
 ======================================================================
 Norm of residual vector:     0.01127295      Convergence:   0.00799672
 CPU time [min]:     0.236                   Wall time [min]:     0.022
 
 Iteration 12  CI energy:   -78.73635370  Energy decrease:   0.00015356
 ======================================================================
 Norm of residual vector:     0.00679092      Convergence:   0.00428088
 CPU time [min]:     0.247                   Wall time [min]:     0.023
 
 Iteration 13  CI energy:   -78.73640195  Energy decrease:   0.00004825
 ======================================================================
 Norm of residual vector:     0.00457629      Convergence:   0.00309999
 CPU time [min]:     0.257                   Wall time [min]:     0.024
 
 Iteration 14  CI energy:   -78.73642300  Energy decrease:   0.00002105
 ======================================================================
 Norm of residual vector:     0.00317990      Convergence:   0.00211623
 CPU time [min]:     0.268                   Wall time [min]:     0.024
 
 Iteration 15  CI energy:   -78.73643268  Energy decrease:   0.00000968
 ======================================================================
 Norm of residual vector:     0.00245533      Convergence:   0.00148677
 CPU time [min]:     0.278                   Wall time [min]:     0.025
 
 Iteration 16  CI energy:   -78.73643741  Energy decrease:   0.00000473
 ======================================================================
 Norm of residual vector:     0.00212568      Convergence:   0.00123527
 CPU time [min]:     0.288                   Wall time [min]:     0.026
 
 Iteration 17  CI energy:   -78.73644044  Energy decrease:   0.00000303
 ======================================================================
 Norm of residual vector:     0.00185733      Convergence:   0.00112444
 CPU time [min]:     0.299                   Wall time [min]:     0.026
 
 Iteration 18  CI energy:   -78.73644283  Energy decrease:   0.00000239
 ======================================================================
 Norm of residual vector:     0.00149592      Convergence:   0.00094747
 CPU time [min]:     0.309                   Wall time [min]:     0.027
 
 Iteration 19  CI energy:   -78.73644459  Energy decrease:   0.00000176
 ======================================================================
 Norm of residual vector:     0.00126713      Convergence:   0.00077754
 CPU time [min]:     0.320                   Wall time [min]:     0.028
 
 Iteration 20  CI energy:   -78.73644576  Energy decrease:   0.00000116
 ======================================================================
 Norm of residual vector:     0.00108746      Convergence:   0.00064526
 CPU time [min]:     0.331                   Wall time [min]:     0.028
 
 Iteration 21  CI energy:   -78.73644657  Energy decrease:   0.00000082
 ======================================================================
 Norm of residual vector:     0.0000E+00      Convergence:   5.4695E-04
 CPU time [min]:     0.342                   Wall time [min]:     0.029
 
 Iteration 22  CI energy:   -78.73644717  Energy decrease:   0.00000059
 ======================================================================
 
 Iteration has converged in 22 steps.
 
 Final results:
 Total CISD energy [au]:             -78.736447167700
 
 Dominant CI coefficients
 Printing threshold:  1.00E-02
 
   -0.928640  Reference determinant                                     
    0.018551  3b -> 7b                                                  
   -0.148829  4b -> 7b                                                  
    0.023476  4b -> 13b                                                 
    0.012445  5b -> 9b                                                  
    0.010304  5b -> 12b                                                 
   -0.017868  5b -> 21b                                                 
    0.015478  3a -> 7a                                                  
    0.010395  3a -> 16a                                                 
   -0.010530  3a -> 25a                                                 
    0.097149  4a -> 7a                                                  
   -0.016250  4a -> 13a                                                 
    0.011572  6a -> 8a                                                  
   -0.013005  6a -> 20a                                                 
   -0.013815  5a -> 9a                                                  
   -0.022089  5a -> 21a                                                 
    0.011659  3b 4b -> 6b 8b                                            
   -0.034907  4b 5b -> 7b 9b                                            
   -0.011872  4b 5b -> 7b 21b                                           
    0.012107  3a 3b -> 7a 7b                                            
    0.011194  3a 3b -> 14a 14b                                          
   -0.010009  3a 3b -> 14a 23b                                          
    0.013383  3a 3b -> 23a 23b                                          
   -0.016425  4a 3b -> 7a 7b                                            
    0.011227  4a 3b -> 7a 10b                                           
    0.018158  3a 4b -> 7a 7b                                            
   -0.012489  3a 4b -> 10a 7b                                           
   -0.098159  4a 4b -> 7a 7b                                            
    0.013327  4a 4b -> 13a 7b                                           
   -0.032489  4a 4b -> 14a 7b                                           
   -0.021157  4a 4b -> 22a 7b                                           
    0.013714  4a 4b -> 7a 13b                                           
   -0.029441  4a 4b -> 7a 14b                                           
   -0.016792  4a 4b -> 14a 14b                                          
   -0.012636  4a 4b -> 22a 14b                                          
   -0.015892  4a 4b -> 17a 17b                                          
   -0.018960  4a 4b -> 7a 22b                                           
   -0.012910  4a 4b -> 14a 22b                                          
   -0.018267  4a 4b -> 22a 22b                                          
    0.031395  5a 5b -> 7a 7b                                            
   -0.010535  5a 5b -> 7a 10b                                           
    0.011385  5a 5b -> 7a 14b                                           
    0.010671  5a 5b -> 16a 16b                                          
    0.010359  5a 5b -> 25a 25b                                          
    0.010749  3a 3b -> 8a 6b                                            
   -0.014873  3a 3b -> 8a 8b                                            
    0.027447  4a 3b -> 8a 6b                                            
    0.012294  4a 3b -> 11a 6b                                           
    0.010833  4a 3b -> 18a 6b                                           
   -0.015124  4a 3b -> 8a 8b                                            
   -0.017166  3a 4b -> 8a 6b                                            
    0.030817  4a 4b -> 8a 8b                                            
   -0.011741  4a 4b -> 26a 8b                                           
    0.014288  4a 4b -> 8a 11b                                           
    0.010056  4a 4b -> 8a 20b                                           
   -0.010619  5a 5b -> 8a 8b                                            
   -0.033372  4a 4b -> 9a 9b                                            
   -0.012004  4a 4b -> 12a 9b                                           
    0.010214  4a 4b -> 27a 9b                                           
   -0.012388  4a 4b -> 9a 12b                                           
    0.087877  5a 5b -> 9a 9b                                            
    0.025956  5a 5b -> 12a 9b                                           
    0.029591  5a 5b -> 21a 9b                                           
    0.027614  5a 5b -> 9a 12b                                           
    0.019394  5a 5b -> 12a 12b                                          
    0.010196  5a 5b -> 19a 19b                                          
    0.028969  5a 5b -> 9a 21b                                           
    0.024820  5a 5b -> 21a 21b                                          
    0.010325  5a 5b -> 15a 15b                                          
    0.010359  5a 5b -> 24a 24b                                          
   -0.014848  6a 3b -> 16a 6b                                           
    0.013752  6a 3b -> 25a 6b                                           
   -0.012808  6a 3b -> 25a 8b                                           
   -0.018171  6a 4b -> 7a 6b                                            
    0.040043  6a 4b -> 7a 8b                                            
    0.010375  6a 4b -> 25a 8b                                           
    0.010750  6a 4b -> 7a 11b                                           
    0.012312  6a 4b -> 7a 20b                                           
    0.010596  6a 3b -> 18a 7b                                           
   -0.010719  6a 3b -> 26a 7b                                           
    0.011720  6a 3b -> 8a 10b                                           
    0.010379  6a 3b -> 20a 10b                                          
   -0.014428  6a 3b -> 8a 14b                                           
    0.012497  6a 3b -> 8a 23b                                           
    0.013534  6a 3b -> 20a 23b                                          
   -0.067427  6a 4b -> 8a 7b                                            
   -0.015965  6a 4b -> 11a 7b                                           
   -0.021793  6a 4b -> 20a 7b                                           
    0.011981  6a 4b -> 8a 13b                                           
   -0.020944  6a 4b -> 8a 14b                                           
   -0.010638  6a 4b -> 20a 14b                                          
    0.010245  6a 4b -> 20a 17b                                          
   -0.011340  6a 4b -> 8a 22b                                           
   -0.012348  6a 4b -> 20a 22b                                          
   -0.010886  6a 3b -> 24a 9b                                           
    0.011550  6a 4b -> 15a 9b                                           
    0.012849  3a 5b -> 10a 9b                                           
   -0.015099  3a 5b -> 14a 9b                                           
    0.011831  3a 5b -> 23a 9b                                           
    0.010120  3a 5b -> 7a 19b                                           
    0.010459  3a 5b -> 10a 21b                                          
    0.012576  3a 5b -> 23a 21b                                          
   -0.010064  3a 5b -> 7a 27b                                           
    0.067436  4a 5b -> 7a 9b                                            
   -0.011918  4a 5b -> 13a 9b                                           
    0.020778  4a 5b -> 14a 9b                                           
    0.010370  4a 5b -> 22a 9b                                           
    0.017440  4a 5b -> 7a 12b                                           
    0.019103  4a 5b -> 7a 21b                                           
    0.010265  4a 5b -> 14a 21b                                          
    0.011375  4a 5b -> 22a 21b                                          
   -0.010057  5a 3b -> 14a 9b                                           
   -0.011457  5a 3b -> 25a 9b                                           
   -0.037526  5a 4b -> 7a 9b                                            
   -0.013921  5a 4b -> 16a 9b                                           
   -0.010729  5a 4b -> 7a 12b                                           
   -0.012790  4a 5b -> 8a 15b                                           
   -0.010048  3a 5b -> 9a 14b                                           
    0.036280  4a 5b -> 9a 7b                                            
    0.011773  4a 5b -> 9a 14b                                           
    0.013057  4a 5b -> 9a 16b                                           
    0.011180  5a 3b -> 19a 7b                                           
   -0.010923  5a 3b -> 27a 7b                                           
    0.011985  5a 3b -> 9a 10b                                           
    0.010263  5a 3b -> 21a 10b                                          
   -0.014647  5a 3b -> 9a 14b                                           
    0.011815  5a 3b -> 9a 23b                                           
    0.013051  5a 3b -> 21a 23b                                          
   -0.076590  5a 4b -> 9a 7b                                            
   -0.018354  5a 4b -> 12a 7b                                           
   -0.022509  5a 4b -> 21a 7b                                           
    0.013586  5a 4b -> 9a 13b                                           
   -0.019996  5a 4b -> 9a 14b                                           
   -0.010122  5a 4b -> 21a 14b                                          
   -0.010204  5a 4b -> 9a 22b                                           
   -0.011499  5a 4b -> 21a 22b                                          
   -0.014667  5a 3b -> 15a 6b                                           
   -0.013403  5a 3b -> 24a 6b                                           
    0.012891  5a 3b -> 24a 8b                                           
   -0.010186  5a 4b -> 24a 8b                                           
    0.054269  6a 5b -> 8a 9b                                            
    0.015707  6a 5b -> 11a 9b                                           
    0.019906  6a 5b -> 20a 9b                                           
    0.017328  6a 5b -> 8a 12b                                           
    0.013588  6a 5b -> 11a 12b                                          
    0.020179  6a 5b -> 8a 21b                                           
    0.018651  6a 5b -> 20a 21b                                          
    0.015541  6a 5b -> 9a 6b                                            
   -0.024244  6a 5b -> 9a 8b                                            
    0.033780  4a 6a -> 7a 8a                                            
   -0.011249  4a 6a -> 8a 14a                                           
    0.014447  4a 6a -> 7a 20a                                           
   -0.011570  4a 6a -> 8a 22a                                           
    0.034771  4a 5a -> 7a 9a                                            
   -0.011573  4a 5a -> 9a 14a                                           
    0.013097  4a 5a -> 7a 21a                                           
   -0.010441  4a 5a -> 9a 22a                                           
   -0.035831  5a 6a -> 8a 9a                                            
    0.010913  5a 6a -> 9a 11a                                           
   -0.011353  5a 6a -> 8a 12a                                           
   -0.010653  5a 6a -> 11a 12a                                          
    0.011519  5a 6a -> 15a 16a                                          
    0.014092  5a 6a -> 9a 20a                                           
   -0.014475  5a 6a -> 8a 21a                                           
   -0.014354  5a 6a -> 20a 21a                                          
   -0.012019  5a 6a -> 24a 25a                                          

 ************************ 2021-07-31 19:04:07 *************************
 Executing goldstone...

 Generation of CI equations in terms of H and C...
 Generation of antisymmetrized Goldstone diagrams...
 Number of diagrams in T^1 equations:     8
 Number of diagrams in T^2 equations:    12
 Number of diagrams in T^3 equations:     9
 Translation of diagrams to factorized equations...
 Optimizing intermediate calculation...
 Number of floating-point operations per iteration step:   1.1347E+08
 Probable CPU time per iteration step (hours):      0.00
 Required memory (Mbytes):      34.8
 Number of intermediates:                                  40
 Number of intermediates to be stored:                     11
 Length of intermediate file (Mbytes):       1.7

 ************************ 2021-07-31 19:04:15 *************************
 Executing xmrcc...

 **********************************************************************
 CI(                     3 ) calculation 
 
 
 Allocation of 100.0 Mbytes of memory...
 Number of spinorbitals:                    52
 Number of alpha electrons:                        4
 Number of beta electrons:                         3
 Spin multiplicity:                     2
 z-component of spin:  0.5
 Spatial symmetry:                      2
 Convergence criterion:  1.0E-05
 Construction of occupation graphs...
 Number of                     0 -fold excitations:                      1
 Number of                     1 -fold excitations:                     55
 Number of                     2 -fold excitations:                   2184
 Number of                     3 -fold excitations:                  42626
 Total number of configurations:                  44866
 Calculation of coupling coefficients...
 Length of intermediate file (Mbytes):       1.4
 
 ======================================================================
 
 Memory requirements /Mbyte/: 
               Minimal        Optimal
 Real*8:          3.6252         6.2658
 Integer:         0.9536
 Total:           4.5787         7.2194
 

 ************************ 2021-07-31 19:04:15 *************************
 Executing mrcc...

 **********************************************************************
 CISDT calculation                                                      
 
 
 OpenMP parallel version is running.
 Number of CPU cores:  16
 Allocation of    6.3 Mbytes of memory...
 Number of spinorbitals:  52
 Number of alpha electrons:  4
 Number of beta  electrons:  3
 Spin multiplicity: 2
 z-component of spin:  0.5
 Spatial symmetry: 2
 Convergence criterion:  1.0E-05
 Construction of occupation graphs...
 Number of 0-fold excitations: 1
 Number of 1-fold excitations: 55
 Number of 2-fold excitations: 2184
 Number of 3-fold excitations: 42626
 Total number of determinants: 44866
 Calculation of coupling coefficients...
 Initial cluster amplitudes are read from unit 16.
 Length of intermediate file (Mbytes):       1.4
 Reading integral list from unit 55...
 Sorting integrals...
 Sorting integrals...
 Sorting integrals...
 Sorting integrals...
 Calculation of diagonal elements of Hamiltonian...
 
 Starting CI iteration for root                      1 ...
 ======================================================================
 Norm of residual vector:     0.21264732      Convergence:   1.00000000
 CPU time [min]:     0.153                   Wall time [min]:     0.011
 
 Iteration  1  CI energy:   -78.73644717  Energy decrease:   0.20790694
 ======================================================================
 Norm of residual vector:     0.08413533      Convergence:   0.05479466
 CPU time [min]:     0.218                   Wall time [min]:     0.015
 
 Iteration  2  CI energy:   -78.74811522  Energy decrease:   0.01166805
 ======================================================================
 Norm of residual vector:     0.05463463      Convergence:   0.02601522
 CPU time [min]:     0.280                   Wall time [min]:     0.019
 
 Iteration  3  CI energy:   -78.75030434  Energy decrease:   0.00218912
 ======================================================================
 Norm of residual vector:     0.04221833      Convergence:   0.01943939
 CPU time [min]:     0.338                   Wall time [min]:     0.023
 
 Iteration  4  CI energy:   -78.75136641  Energy decrease:   0.00106206
 ======================================================================
 Norm of residual vector:     0.03414377      Convergence:   0.01525127
 CPU time [min]:     0.397                   Wall time [min]:     0.026
 
 Iteration  5  CI energy:   -78.75201024  Energy decrease:   0.00064384
 ======================================================================
 Norm of residual vector:     0.03086834      Convergence:   0.01285163
 CPU time [min]:     0.458                   Wall time [min]:     0.030
 
 Iteration  6  CI energy:   -78.75244898  Energy decrease:   0.00043873
 ======================================================================
 Norm of residual vector:     0.03176415      Convergence:   0.01282063
 CPU time [min]:     0.520                   Wall time [min]:     0.034
 
 Iteration  7  CI energy:   -78.75284467  Energy decrease:   0.00039569
 ======================================================================
 Norm of residual vector:     0.03266153      Convergence:   0.01326021
 CPU time [min]:     0.584                   Wall time [min]:     0.038
 
 Iteration  8  CI energy:   -78.75326586  Energy decrease:   0.00042119
 ======================================================================
 Norm of residual vector:     0.03094405      Convergence:   0.01285926
 CPU time [min]:     0.649                   Wall time [min]:     0.042
 
 Iteration  9  CI energy:   -78.75368589  Energy decrease:   0.00042004
 ======================================================================
 Norm of residual vector:     0.02527324      Convergence:   0.01080710
 CPU time [min]:     0.716                   Wall time [min]:     0.046
 
 Iteration 10  CI energy:   -78.75402031  Energy decrease:   0.00033441
 ======================================================================
 Norm of residual vector:     0.01904485      Convergence:   0.00815913
 CPU time [min]:     0.784                   Wall time [min]:     0.050
 
 Iteration 11  CI energy:   -78.75422648  Energy decrease:   0.00020617
 ======================================================================
 Norm of residual vector:     0.01433538      Convergence:   0.00618584
 CPU time [min]:     0.854                   Wall time [min]:     0.055
 
 Iteration 12  CI energy:   -78.75434426  Energy decrease:   0.00011778
 ======================================================================
 Norm of residual vector:     0.01070551      Convergence:   0.00488463
 CPU time [min]:     0.924                   Wall time [min]:     0.059
 
 Iteration 13  CI energy:   -78.75441426  Energy decrease:   0.00007000
 ======================================================================
 Norm of residual vector:     0.00811016      Convergence:   0.00356911
 CPU time [min]:     0.997                   Wall time [min]:     0.064
 
 Iteration 14  CI energy:   -78.75445246  Energy decrease:   0.00003820
 ======================================================================
 Norm of residual vector:     0.00627894      Convergence:   0.00268088
 CPU time [min]:     1.071                   Wall time [min]:     0.068
 
 Iteration 15  CI energy:   -78.75447419  Energy decrease:   0.00002173
 ======================================================================
 Norm of residual vector:     0.00486455      Convergence:   0.00199133
 CPU time [min]:     1.146                   Wall time [min]:     0.073
 
 Iteration 16  CI energy:   -78.75448669  Energy decrease:   0.00001250
 ======================================================================
 Norm of residual vector:     0.00426026      Convergence:   0.00166513
 CPU time [min]:     1.223                   Wall time [min]:     0.078
 
 Iteration 17  CI energy:   -78.75449479  Energy decrease:   0.00000810
 ======================================================================
 Norm of residual vector:     0.00413061      Convergence:   0.00167692
 CPU time [min]:     1.301                   Wall time [min]:     0.083
 
 Iteration 18  CI energy:   -78.75450193  Energy decrease:   0.00000714
 ======================================================================
 Norm of residual vector:     0.00411016      Convergence:   0.00177969
 CPU time [min]:     1.384                   Wall time [min]:     0.088
 
 Iteration 19  CI energy:   -78.75450928  Energy decrease:   0.00000735
 ======================================================================
 Norm of residual vector:     0.00405371      Convergence:   0.00174123
 CPU time [min]:     1.480                   Wall time [min]:     0.094
 
 Iteration 20  CI energy:   -78.75451643  Energy decrease:   0.00000715
 ======================================================================
 Norm of residual vector:     0.00395798      Convergence:   0.00165881
 CPU time [min]:     1.598                   Wall time [min]:     0.102
 
 Iteration 21  CI energy:   -78.75452315  Energy decrease:   0.00000672
 ======================================================================
 Norm of residual vector:     0.00381113      Convergence:   0.00166549
 CPU time [min]:     1.698                   Wall time [min]:     0.109
 
 Iteration 22  CI energy:   -78.75452974  Energy decrease:   0.00000659
 ======================================================================
 Norm of residual vector:     0.00362777      Convergence:   0.00162131
 CPU time [min]:     1.804                   Wall time [min]:     0.116
 
 Iteration 23  CI energy:   -78.75453592  Energy decrease:   0.00000618
 ======================================================================
 Norm of residual vector:     0.00323004      Convergence:   0.00145417
 CPU time [min]:     1.890                   Wall time [min]:     0.121
 
 Iteration 24  CI energy:   -78.75454119  Energy decrease:   0.00000527
 ======================================================================
 Norm of residual vector:     0.00261426      Convergence:   0.00112917
 CPU time [min]:     1.979                   Wall time [min]:     0.127
 
 Iteration 25  CI energy:   -78.75454484  Energy decrease:   0.00000365
 ======================================================================
 Norm of residual vector:     0.00213752      Convergence:   0.00092515
 CPU time [min]:     2.068                   Wall time [min]:     0.132
 
 Iteration 26  CI energy:   -78.75454726  Energy decrease:   0.00000242
 ======================================================================
 Norm of residual vector:     0.00180792      Convergence:   0.00074164
 CPU time [min]:     2.159                   Wall time [min]:     0.138
 
 Iteration 27  CI energy:   -78.75454884  Energy decrease:   0.00000158
 ======================================================================
 Norm of residual vector:     0.00164086      Convergence:   0.00066914
 CPU time [min]:     2.251                   Wall time [min]:     0.144
 
 Iteration 28  CI energy:   -78.75455005  Energy decrease:   0.00000121
 ======================================================================
 Norm of residual vector:     0.00149675      Convergence:   0.00062427
 CPU time [min]:     2.345                   Wall time [min]:     0.150
 
 Iteration 29  CI energy:   -78.75455108  Energy decrease:   0.00000102
 ======================================================================
 Norm of residual vector:     0.00125787      Convergence:   0.00054146
 CPU time [min]:     2.440                   Wall time [min]:     0.156
 
 Iteration 30  CI energy:   -78.75455189  Energy decrease:   0.00000081
 ======================================================================
 Norm of residual vector:     0.00096993      Convergence:   0.00042250
 CPU time [min]:     2.537                   Wall time [min]:     0.162
 
 Iteration 31  CI energy:   -78.75455242  Energy decrease:   0.00000053
 ======================================================================
 Norm of residual vector:     0.0000E+00      Convergence:   3.2943E-04
 CPU time [min]:     2.635                   Wall time [min]:     0.168
 
 Iteration 32  CI energy:   -78.75455274  Energy decrease:   0.00000032
 ======================================================================
 
 Iteration has converged in 32 steps.
 
 Final results:
 Total CISDT energy [au]:            -78.754552737422
 
 Dominant CI coefficients
 Printing threshold:  1.00E-02
 
   -0.866189  Reference determinant                                     
    0.021987  3b -> 7b                                                  
   -0.284926  4b -> 7b                                                  
    0.011800  4b -> 10b                                                 
    0.038552  4b -> 13b                                                 
   -0.016820  5b -> 21b                                                 
    0.022118  3a -> 7a                                                  
    0.010997  3a -> 16a                                                 
   -0.010404  3a -> 25a                                                 
    0.127940  4a -> 7a                                                  
   -0.019704  4a -> 13a                                                 
   -0.010118  4a -> 22a                                                 
   -0.014184  6a -> 8a                                                  
   -0.016076  6a -> 20a                                                 
   -0.042694  5a -> 9a                                                  
   -0.024044  5a -> 21a                                                 
    0.013723  3b 4b -> 6b 8b                                            
   -0.013148  3b 4b -> 7b 14b                                           
   -0.046750  4b 5b -> 7b 9b                                            
   -0.011713  4b 5b -> 7b 12b                                           
   -0.013467  4b 5b -> 9b 13b                                           
   -0.010122  4b 5b -> 9b 16b                                           
   -0.012945  4b 5b -> 7b 21b                                           
    0.011126  3a 3b -> 7a 7b                                            
    0.010581  3a 3b -> 14a 14b                                          
    0.012785  3a 3b -> 23a 23b                                          
   -0.014370  4a 3b -> 7a 7b                                            
    0.010795  4a 3b -> 17a 7b                                           
    0.010743  4a 3b -> 22a 7b                                           
    0.010826  4a 3b -> 7a 10b                                           
    0.022143  3a 4b -> 7a 7b                                            
   -0.014035  3a 4b -> 10a 7b                                           
    0.010247  3a 4b -> 14a 7b                                           
   -0.154317  4a 4b -> 7a 7b                                            
    0.019943  4a 4b -> 13a 7b                                           
   -0.039752  4a 4b -> 14a 7b                                           
   -0.025486  4a 4b -> 22a 7b                                           
    0.021292  4a 4b -> 7a 13b                                           
   -0.030014  4a 4b -> 7a 14b                                           
   -0.014259  4a 4b -> 14a 14b                                          
   -0.010692  4a 4b -> 22a 14b                                          
   -0.013297  4a 4b -> 17a 17b                                          
   -0.018191  4a 4b -> 7a 22b                                           
   -0.010743  4a 4b -> 14a 22b                                          
   -0.015188  4a 4b -> 22a 22b                                          
    0.024222  5a 5b -> 7a 7b                                            
    0.010283  5a 5b -> 25a 25b                                          
    0.010720  3a 3b -> 8a 6b                                            
   -0.013368  3a 3b -> 8a 8b                                            
    0.029397  4a 3b -> 8a 6b                                            
    0.012874  4a 3b -> 11a 6b                                           
   -0.014825  4a 3b -> 8a 8b                                            
   -0.019152  3a 4b -> 8a 6b                                            
    0.031170  4a 4b -> 8a 8b                                            
   -0.010339  4a 4b -> 26a 8b                                           
    0.015511  4a 4b -> 8a 11b                                           
   -0.033321  4a 4b -> 9a 9b                                            
   -0.012623  4a 4b -> 12a 9b                                           
   -0.012641  4a 4b -> 9a 12b                                           
    0.083191  5a 5b -> 9a 9b                                            
    0.024626  5a 5b -> 12a 9b                                           
    0.028009  5a 5b -> 21a 9b                                           
    0.026712  5a 5b -> 9a 12b                                           
    0.018556  5a 5b -> 12a 12b                                          
    0.026136  5a 5b -> 9a 21b                                           
    0.025009  5a 5b -> 21a 21b                                          
    0.010262  5a 5b -> 24a 24b                                          
   -0.014371  6a 3b -> 16a 6b                                           
    0.013209  6a 3b -> 25a 6b                                           
   -0.012534  6a 3b -> 25a 8b                                           
   -0.041086  6a 4b -> 7a 6b                                            
   -0.010056  6a 4b -> 10a 6b                                           
    0.010037  6a 4b -> 14a 6b                                           
    0.061476  6a 4b -> 7a 8b                                            
    0.013867  6a 4b -> 7a 11b                                           
    0.016393  6a 4b -> 7a 20b                                           
    0.013568  6a 3b -> 18a 7b                                           
   -0.012486  6a 3b -> 26a 7b                                           
    0.010210  6a 3b -> 8a 10b                                           
   -0.012830  6a 3b -> 8a 14b                                           
    0.011034  6a 3b -> 8a 23b                                           
    0.013067  6a 3b -> 20a 23b                                          
   -0.096670  6a 4b -> 8a 7b                                            
   -0.023279  6a 4b -> 11a 7b                                           
   -0.025769  6a 4b -> 20a 7b                                           
    0.018089  6a 4b -> 8a 13b                                           
   -0.017425  6a 4b -> 8a 14b                                           
   -0.011101  6a 4b -> 20a 22b                                          
   -0.010381  6a 3b -> 24a 9b                                           
    0.012867  6a 4b -> 15a 9b                                           
    0.011849  3a 5b -> 10a 9b                                           
   -0.014266  3a 5b -> 14a 9b                                           
    0.010984  3a 5b -> 23a 9b                                           
    0.010592  3a 5b -> 7a 19b                                           
    0.012099  3a 5b -> 23a 21b                                          
    0.076943  4a 5b -> 7a 9b                                            
   -0.014504  4a 5b -> 13a 9b                                           
    0.017986  4a 5b -> 14a 9b                                           
    0.020145  4a 5b -> 7a 12b                                           
    0.018210  4a 5b -> 7a 21b                                           
    0.010844  4a 5b -> 22a 21b                                          
   -0.010827  5a 3b -> 25a 9b                                           
   -0.047727  5a 4b -> 7a 9b                                            
   -0.010057  5a 4b -> 14a 9b                                           
   -0.015423  5a 4b -> 16a 9b                                           
   -0.013099  5a 4b -> 7a 12b                                           
   -0.013146  4a 5b -> 8a 15b                                           
    0.045915  4a 5b -> 9a 7b                                            
    0.011169  4a 5b -> 12a 7b                                           
    0.010407  4a 5b -> 21a 7b                                           
    0.011755  4a 5b -> 9a 14b                                           
    0.013246  4a 5b -> 9a 16b                                           
    0.013612  5a 3b -> 19a 7b                                           
   -0.012196  5a 3b -> 27a 7b                                           
    0.010658  5a 3b -> 9a 10b                                           
   -0.013170  5a 3b -> 9a 14b                                           
    0.010563  5a 3b -> 9a 23b                                           
    0.012747  5a 3b -> 21a 23b                                          
   -0.109046  5a 4b -> 9a 7b                                            
   -0.025555  5a 4b -> 12a 7b                                           
   -0.027572  5a 4b -> 21a 7b                                           
    0.020490  5a 4b -> 9a 13b                                           
    0.010998  5a 4b -> 12a 13b                                          
   -0.016187  5a 4b -> 9a 14b                                           
   -0.010545  5a 4b -> 21a 22b                                          
   -0.014186  5a 3b -> 15a 6b                                           
   -0.013167  5a 3b -> 24a 6b                                           
    0.012811  5a 3b -> 24a 8b                                           
   -0.010245  5a 4b -> 15a 6b                                           
    0.053289  6a 5b -> 8a 9b                                            
    0.015687  6a 5b -> 11a 9b                                           
    0.018571  6a 5b -> 20a 9b                                           
    0.017849  6a 5b -> 8a 12b                                           
    0.013615  6a 5b -> 11a 12b                                          
    0.017487  6a 5b -> 8a 21b                                           
    0.018355  6a 5b -> 20a 21b                                          
    0.020404  6a 5b -> 9a 6b                                            
   -0.026666  6a 5b -> 9a 8b                                            
    0.011098  3a 4a -> 7a 14a                                           
    0.010102  3a 4a -> 7a 17a                                           
    0.039717  4a 6a -> 7a 8a                                            
    0.013921  4a 6a -> 7a 20a                                           
    0.041500  4a 5a -> 7a 9a                                            
    0.010393  4a 5a -> 9a 13a                                           
    0.012418  4a 5a -> 7a 21a                                           
   -0.033509  5a 6a -> 8a 9a                                            
    0.010788  5a 6a -> 9a 11a                                           
   -0.011385  5a 6a -> 8a 12a                                           
   -0.010464  5a 6a -> 11a 12a                                          
    0.010843  5a 6a -> 15a 16a                                          
    0.012224  5a 6a -> 9a 20a                                           
   -0.012194  5a 6a -> 8a 21a                                           
   -0.014450  5a 6a -> 20a 21a                                          
   -0.012103  5a 6a -> 24a 25a                                          
    0.010829  5a 4b 5b -> 21a 7b 9b                                     
    0.012724  5a 4b 5b -> 21a 7b 21b                                    
   -0.019345  4a 4b 5b -> 7a 7b 9b                                      
   -0.025306  4a 6a 4b -> 7a 8a 7b                                      
   -0.014728  5a 6a 5b -> 8a 9a 9b                                      
   -0.029864  4a 5a 4b -> 7a 9a 7b                                      
    0.018058  5a 6a 4b -> 8a 9a 7b                                      

 ************************ 2021-07-31 19:04:25 *************************
 Executing goldstone...

 Generation of CI equations in terms of H and C...
 Generation of antisymmetrized Goldstone diagrams...
 Number of diagrams in T^1 equations:     8
 Number of diagrams in T^2 equations:    13
 Number of diagrams in T^3 equations:    12
 Number of diagrams in T^4 equations:     9
 Translation of diagrams to factorized equations...
 Optimizing intermediate calculation...
 Number of floating-point operations per iteration step:   2.5551E+09
 Probable CPU time per iteration step (hours):      0.03
 Required memory (Mbytes):      34.8
 Number of intermediates:                                  53
 Number of intermediates to be stored:                     11
 Length of intermediate file (Mbytes):       1.7

 ************************ 2021-07-31 19:04:40 *************************
 Executing xmrcc...

 **********************************************************************
 CI(                     4 ) calculation 
 
 
 Allocation of 100.0 Mbytes of memory...
 Number of spinorbitals:                    52
 Number of alpha electrons:                        4
 Number of beta electrons:                         3
 Spin multiplicity:                     2
 z-component of spin:  0.5
 Spatial symmetry:                      2
 Convergence criterion:  1.0E-05
 Construction of occupation graphs...
 Number of                     0 -fold excitations:                      1
 Number of                     1 -fold excitations:                     55
 Number of                     2 -fold excitations:                   2184
 Number of                     3 -fold excitations:                  42626
 Number of                     4 -fold excitations:                 409987
 Total number of configurations:                 454853
 Calculation of coupling coefficients...
 Length of intermediate file (Mbytes):       1.4
 
 ======================================================================
 
 Memory requirements /Mbyte/: 
               Minimal        Optimal
 Real*8:         34.6402        34.6402
 Integer:         2.7674
 Total:          37.4076        37.4076
 

 ************************ 2021-07-31 19:04:40 *************************
 Executing mrcc...

 **********************************************************************
 CISDTQ calculation                                                     
 
 
 OpenMP parallel version is running.
 Number of CPU cores:  16
 Allocation of   34.6 Mbytes of memory...
 Number of spinorbitals:  52
 Number of alpha electrons:  4
 Number of beta  electrons:  3
 Spin multiplicity: 2
 z-component of spin:  0.5
 Spatial symmetry: 2
 Convergence criterion:  1.0E-05
 Construction of occupation graphs...
 Number of 0-fold excitations: 1
 Number of 1-fold excitations: 55
 Number of 2-fold excitations: 2184
 Number of 3-fold excitations: 42626
 Number of 4-fold excitations: 409987
 Total number of determinants: 454853
 Calculation of coupling coefficients...
 Initial cluster amplitudes are read from unit 16.
 Length of intermediate file (Mbytes):       1.4
 Reading integral list from unit 55...
 Sorting integrals...
 Sorting integrals...
 Sorting integrals...
 Sorting integrals...
 Calculation of diagonal elements of Hamiltonian...
 
 Starting CI iteration for root                      1 ...
 ======================================================================
 Norm of residual vector:     0.25328918      Convergence:   1.00000000
 CPU time [min]:     0.737                   Wall time [min]:     0.055
 
 Iteration  1  CI energy:   -78.75455274  Energy decrease:   0.22601251
 ======================================================================
 Norm of residual vector:     0.09758463      Convergence:   0.05407938
 CPU time [min]:     1.308                   Wall time [min]:     0.092
 
 Iteration  2  CI energy:   -78.76826874  Energy decrease:   0.01371601
 ======================================================================
 Norm of residual vector:     0.05421219      Convergence:   0.02241562
 CPU time [min]:     1.894                   Wall time [min]:     0.128
 
 Iteration  3  CI energy:   -78.77045607  Energy decrease:   0.00218733
 ======================================================================
 Norm of residual vector:     0.03537738      Convergence:   0.01278901
 CPU time [min]:     2.473                   Wall time [min]:     0.165
 
 Iteration  4  CI energy:   -78.77114915  Energy decrease:   0.00069308
 ======================================================================
 Norm of residual vector:     0.02543967      Convergence:   0.00849729
 CPU time [min]:     3.069                   Wall time [min]:     0.202
 
 Iteration  5  CI energy:   -78.77144962  Energy decrease:   0.00030047
 ======================================================================
 Norm of residual vector:     0.02005521      Convergence:   0.00644403
 CPU time [min]:     3.690                   Wall time [min]:     0.241
 
 Iteration  6  CI energy:   -78.77161346  Energy decrease:   0.00016384
 ======================================================================
 Norm of residual vector:     0.01712776      Convergence:   0.00546488
 CPU time [min]:     4.329                   Wall time [min]:     0.281
 
 Iteration  7  CI energy:   -78.77172300  Energy decrease:   0.00010954
 ======================================================================
 Norm of residual vector:     0.01589044      Convergence:   0.00520495
 CPU time [min]:     4.985                   Wall time [min]:     0.322
 
 Iteration  8  CI energy:   -78.77181210  Energy decrease:   0.00008910
 ======================================================================
 Norm of residual vector:     0.01481824      Convergence:   0.00489860
 CPU time [min]:     5.671                   Wall time [min]:     0.365
 
 Iteration  9  CI energy:   -78.77188990  Energy decrease:   0.00007780
 ======================================================================
 Norm of residual vector:     0.01293920      Convergence:   0.00442091
 CPU time [min]:     6.352                   Wall time [min]:     0.408
 
 Iteration 10  CI energy:   -78.77195538  Energy decrease:   0.00006548
 ======================================================================
 Norm of residual vector:     0.01081158      Convergence:   0.00363575
 CPU time [min]:     7.158                   Wall time [min]:     0.459
 
 Iteration 11  CI energy:   -78.77200240  Energy decrease:   0.00004702
 ======================================================================
 Norm of residual vector:     0.00972502      Convergence:   0.00312563
 CPU time [min]:     7.964                   Wall time [min]:     0.512
 
 Iteration 12  CI energy:   -78.77203617  Energy decrease:   0.00003377
 ======================================================================
 Norm of residual vector:     0.00971322      Convergence:   0.00314175
[...]
   -0.010486  5a 6a -> 15a 16a                                          
   -0.012747  5a 6a -> 9a 20a                                           
    0.012348  5a 6a -> 8a 21a                                           
    0.014263  5a 6a -> 20a 21a                                          
    0.011766  5a 6a -> 24a 25a                                          
   -0.013132  5a 4b 5b -> 9a 7b 9b                                      
   -0.012737  5a 4b 5b -> 21a 7b 9b                                     
   -0.013186  5a 4b 5b -> 21a 7b 21b                                    
    0.017191  4a 4b 5b -> 7a 7b 9b                                      
    0.011738  6a 4b 5b -> 7a 6b 9b                                      
   -0.011267  6a 4b 5b -> 7a 8b 9b                                      
    0.012395  6a 4b 5b -> 9a 6b 7b                                      
    0.012859  6a 4b 5b -> 9a 7b 8b                                      
    0.029672  4a 6a 4b -> 7a 8a 7b                                      
    0.015828  5a 6a 5b -> 8a 9a 9b                                      
    0.030722  4a 5a 4b -> 7a 9a 7b                                      
    0.013527  5a 6a 4b -> 7a 8a 9b                                      
   -0.010607  4a 6a 5b -> 7a 9a 8b                                      
    0.012544  4a 6a 5b -> 8a 9a 7b                                      
   -0.017484  5a 6a 4b -> 8a 9a 7b                                      
   -0.021852  4a 5a 4b 5b -> 7a 9a 7b 9b                                
    0.011107  4a 5a 4b 5b -> 9a 14a 7b 9b                               
   -0.010398  5a 6a 4b 5b -> 7a 9a 8b 9b                                
    0.019490  5a 6a 4b 5b -> 8a 9a 7b 9b                                
   -0.011871  4a 6a 4b 5b -> 7a 8a 7b 9b                                
    0.010177  4a 6a 4b 5b -> 7a 9a 7b 8b                                
   -0.012739  4a 5a 6a 5b -> 7a 8a 9a 9b                                
    0.012000  4a 5a 6a 4b 5b -> 7a 8a 9a 7b 9b                          

 ************************ 2021-07-31 19:24:32 *************************
 Executing goldstone...

 Generation of CI equations in terms of H and C...
 Generation of antisymmetrized Goldstone diagrams...
 Number of diagrams in T^1 equations:     8
 Number of diagrams in T^2 equations:    13
 Number of diagrams in T^3 equations:    13
 Number of diagrams in T^4 equations:    13
 Number of diagrams in T^5 equations:    13
 Number of diagrams in T^6 equations:    12
 Number of diagrams in T^7 equations:     9
 Translation of diagrams to factorized equations...
 Optimizing intermediate calculation...
 Number of floating-point operations per iteration step:   2.8216E+11
 Probable CPU time per iteration step (hours):      2.82
 Required memory (Mbytes):     109.7
 Number of intermediates:                                  92
 Number of intermediates to be stored:                     11
 Length of intermediate file (Mbytes):       1.7

 ************************ 2021-07-31 19:24:33 *************************
 Executing xmrcc...

 **********************************************************************
 CI(                     7 ) calculation 
 
 
 Allocation of 109.7 Mbytes of memory...
 Number of spinorbitals:                    52
 Number of alpha electrons:                        4
 Number of beta electrons:                         3
 Spin multiplicity:                     2
 z-component of spin:  0.5
 Spatial symmetry:                      2
 Convergence criterion:  1.0E-05
 Construction of occupation graphs...
 Number of                     0 -fold excitations:                      1
 Number of                     1 -fold excitations:                     55
 Number of                     2 -fold excitations:                   2184
 Number of                     3 -fold excitations:                  42626
 Number of                     4 -fold excitations:                 409987
 Number of                     5 -fold excitations:                1909541
 Number of                     6 -fold excitations:                4115720
 Number of                     7 -fold excitations:                3237710
 Total number of configurations:                9717824
 Calculation of coupling coefficients...
 Length of intermediate file (Mbytes):       1.4
 
 ======================================================================
 
 Memory requirements /Mbyte/: 
               Minimal        Optimal
 Real*8:        420.4537       420.4537
 Integer:         2.8745
 Total:         423.3282       423.3282
 

 ************************ 2021-07-31 19:24:33 *************************
 Executing mrcc...

 **********************************************************************
 CI(8) calculation                                                      
 
 
 OpenMP parallel version is running.
 Number of CPU cores:  16
 Allocation of  420.5 Mbytes of memory...
 Number of spinorbitals:  52
 Number of alpha electrons:  4
 Number of beta  electrons:  3
 Spin multiplicity: 2
 z-component of spin:  0.5
 Spatial symmetry: 2
 Convergence criterion:  1.0E-05
 Construction of occupation graphs...
 Number of 0-fold excitations: 1
 Number of 1-fold excitations: 55
 Number of 2-fold excitations: 2184
 Number of 3-fold excitations: 42626
 Number of 4-fold excitations: 409987
 Number of 5-fold excitations: 1909541
 Number of 6-fold excitations: 4115720
 Number of 7-fold excitations: 3237710
 Total number of determinants: 9717824
 Calculation of coupling coefficients...
 Initial cluster amplitudes are read from unit 16.
 Length of intermediate file (Mbytes):       1.4
 Reading integral list from unit 55...
 Sorting integrals...
 Sorting integrals...
 Sorting integrals...
 Sorting integrals...
 Calculation of diagonal elements of Hamiltonian...
 
 Starting CI iteration for root                      1 ...
 ======================================================================
 Norm of residual vector:     0.0000E+00      Convergence:   1.0000E+00
 CPU time [min]:    20.623                   Wall time [min]:     1.441
 
 Iteration  1  CI energy:   -78.77448701  Energy decrease:   0.24594678
 ======================================================================
 
 Iteration has converged in  1 steps.
 
 Final results:
 Total CI(8) energy [au]:            -78.774487009379
 
 Dominant CI coefficients
 Printing threshold:  1.00E-02
 
    0.822706  Reference determinant                                     
   -0.026383  3b -> 7b                                                  
    0.301920  4b -> 7b                                                  
   -0.011742  4b -> 10b                                                 
   -0.040963  4b -> 13b                                                 
    0.019171  5b -> 21b                                                 
   -0.026236  3a -> 7a                                                  
   -0.010227  3a -> 14a                                                 
   -0.010427  3a -> 16a                                                 
   -0.170807  4a -> 7a                                                  
    0.011220  4a -> 10a                                                 
    0.024480  4a -> 13a                                                 
    0.011227  4a -> 22a                                                 
    0.018253  6a -> 8a                                                  
    0.018175  6a -> 20a                                                 
    0.039746  5a -> 9a                                                  
    0.025692  5a -> 21a                                                 
   -0.013883  3b 4b -> 6b 8b                                            
    0.014103  3b 4b -> 7b 14b                                           
    0.046738  4b 5b -> 7b 9b                                            
    0.010935  4b 5b -> 7b 12b                                           
    0.013331  4b 5b -> 9b 13b                                           
    0.010025  4b 5b -> 9b 16b                                           
    0.014762  4b 5b -> 7b 21b                                           
   -0.010369  3a 3b -> 7a 7b                                            
   -0.010534  3a 3b -> 14a 14b                                          
   -0.012669  3a 3b -> 23a 23b                                          
    0.017833  4a 3b -> 7a 7b                                            
   -0.010674  4a 3b -> 17a 7b                                           
   -0.011358  4a 3b -> 22a 7b                                           
   -0.012030  4a 3b -> 7a 10b                                           
   -0.025232  3a 4b -> 7a 7b                                            
    0.015440  3a 4b -> 10a 7b                                           
   -0.011401  3a 4b -> 14a 7b                                           
    0.180653  4a 4b -> 7a 7b                                            
   -0.022045  4a 4b -> 13a 7b                                           
    0.043585  4a 4b -> 14a 7b                                           
    0.027350  4a 4b -> 22a 7b                                           
   -0.023443  4a 4b -> 7a 13b                                           
    0.035138  4a 4b -> 7a 14b                                           
    0.013411  4a 4b -> 14a 14b                                          
    0.012365  4a 4b -> 17a 17b                                          
    0.021019  4a 4b -> 7a 22b                                           
    0.013990  4a 4b -> 22a 22b                                          
   -0.032368  5a 5b -> 7a 7b                                            
   -0.010612  3a 3b -> 8a 6b                                            
    0.013299  3a 3b -> 8a 8b                                            
   -0.030500  4a 3b -> 8a 6b                                            
   -0.012946  4a 3b -> 11a 6b                                           
    0.015021  4a 3b -> 8a 8b                                            
    0.018666  3a 4b -> 8a 6b                                            
   -0.032240  4a 4b -> 8a 8b                                            
   -0.015984  4a 4b -> 8a 11b                                           
    0.010681  5a 5b -> 8a 8b                                            
    0.034948  4a 4b -> 9a 9b                                            
    0.012966  4a 4b -> 12a 9b                                           
    0.013097  4a 4b -> 9a 12b                                           
   -0.089387  5a 5b -> 9a 9b                                            
   -0.025623  5a 5b -> 12a 9b                                           
   -0.029457  5a 5b -> 21a 9b                                           
   -0.027712  5a 5b -> 9a 12b                                           
   -0.018245  5a 5b -> 12a 12b                                          
   -0.027702  5a 5b -> 9a 21b                                           
   -0.024595  5a 5b -> 21a 21b                                          
    0.014543  6a 3b -> 16a 6b                                           
   -0.013029  6a 3b -> 25a 6b                                           
    0.012337  6a 3b -> 25a 8b                                           
    0.091222  6a 4b -> 7a 6b                                            
   -0.011174  6a 4b -> 13a 6b                                           
   -0.097094  6a 4b -> 7a 8b                                            
    0.012157  6a 4b -> 13a 8b                                           
    0.010456  6a 4b -> 17a 8b                                           
   -0.016674  6a 4b -> 7a 11b                                           
   -0.027054  6a 4b -> 7a 20b                                           
   -0.013941  6a 3b -> 18a 7b                                           
    0.012836  6a 3b -> 26a 7b                                           
   -0.010534  6a 3b -> 8a 10b                                           
    0.012901  6a 3b -> 8a 14b                                           
   -0.011064  6a 3b -> 8a 23b                                           
   -0.013000  6a 3b -> 20a 23b                                          
    0.107363  6a 4b -> 8a 7b                                            
    0.025022  6a 4b -> 11a 7b                                           
    0.028858  6a 4b -> 20a 7b                                           
   -0.010067  6a 4b -> 26a 7b                                           
   -0.019114  6a 4b -> 8a 13b                                           
    0.017846  6a 4b -> 8a 14b                                           
    0.010648  6a 4b -> 20a 22b                                          
    0.010254  6a 3b -> 24a 9b                                           
   -0.012935  6a 4b -> 15a 9b                                           
   -0.012348  3a 5b -> 10a 9b                                           
    0.014514  3a 5b -> 14a 9b                                           
   -0.011055  3a 5b -> 23a 9b                                           
   -0.011362  3a 5b -> 7a 19b                                           
   -0.011955  3a 5b -> 23a 21b                                          
    0.010476  3a 5b -> 7a 27b                                           
   -0.088222  4a 5b -> 7a 9b                                            
    0.015936  4a 5b -> 13a 9b                                           
   -0.018171  4a 5b -> 14a 9b                                           
   -0.022152  4a 5b -> 7a 12b                                           
   -0.021902  4a 5b -> 7a 21b                                           
   -0.010328  4a 5b -> 22a 21b                                          
    0.010710  5a 3b -> 25a 9b                                           
    0.057544  5a 4b -> 7a 9b                                            
   -0.010073  5a 4b -> 10a 9b                                           
    0.010960  5a 4b -> 14a 9b                                           
    0.015523  5a 4b -> 16a 9b                                           
    0.014962  5a 4b -> 7a 12b                                           
    0.011375  5a 4b -> 7a 21b                                           
    0.013545  4a 5b -> 8a 15b                                           
   -0.054552  4a 5b -> 9a 7b                                            
   -0.012948  4a 5b -> 12a 7b                                           
   -0.011753  4a 5b -> 21a 7b                                           
   -0.012694  4a 5b -> 9a 14b                                           
   -0.013721  4a 5b -> 9a 16b                                           
   -0.013946  5a 3b -> 19a 7b                                           
    0.012596  5a 3b -> 27a 7b                                           
   -0.011130  5a 3b -> 9a 10b                                           
    0.013431  5a 3b -> 9a 14b                                           
   -0.010642  5a 3b -> 9a 23b                                           
   -0.012555  5a 3b -> 21a 23b                                          
    0.118664  5a 4b -> 9a 7b                                            
    0.026722  5a 4b -> 12a 7b                                           
    0.030967  5a 4b -> 21a 7b                                           
   -0.021377  5a 4b -> 9a 13b                                           
   -0.011104  5a 4b -> 12a 13b                                          
    0.016272  5a 4b -> 9a 14b                                           
    0.010061  5a 4b -> 21a 22b                                          
    0.014140  5a 3b -> 15a 6b                                           
    0.013069  5a 3b -> 24a 6b                                           
   -0.012629  5a 3b -> 24a 8b                                           
    0.010289  5a 4b -> 15a 6b                                           
   -0.055472  6a 5b -> 8a 9b                                            
   -0.015760  6a 5b -> 11a 9b                                           
   -0.019331  6a 5b -> 20a 9b                                           
   -0.018029  6a 5b -> 8a 12b                                           
   -0.013304  6a 5b -> 11a 12b                                          
   -0.018026  6a 5b -> 8a 21b                                           
   -0.018166  6a 5b -> 20a 21b                                          
   -0.029987  6a 5b -> 9a 6b                                            
    0.033726  6a 5b -> 9a 8b                                            
    0.012072  6a 5b -> 9a 20b                                           
   -0.013107  3a 4a -> 7a 14a                                           
   -0.011060  3a 4a -> 7a 17a                                           
   -0.047808  4a 6a -> 7a 8a                                            
   -0.010113  4a 6a -> 7a 11a                                           
   -0.011118  4a 6a -> 8a 13a                                           
   -0.017255  4a 6a -> 7a 20a                                           
   -0.047526  4a 5a -> 7a 9a                                            
   -0.010119  4a 5a -> 7a 12a                                           
   -0.011383  4a 5a -> 9a 13a                                           
   -0.014953  4a 5a -> 7a 21a                                           
    0.034432  5a 6a -> 8a 9a                                            
   -0.010621  5a 6a -> 9a 11a                                           
    0.011363  5a 6a -> 8a 12a                                           
    0.010225  5a 6a -> 11a 12a                                          
   -0.010486  5a 6a -> 15a 16a                                          
   -0.012747  5a 6a -> 9a 20a                                           
    0.012348  5a 6a -> 8a 21a                                           
    0.014263  5a 6a -> 20a 21a                                          
    0.011766  5a 6a -> 24a 25a                                          
   -0.013132  5a 4b 5b -> 9a 7b 9b                                      
   -0.012737  5a 4b 5b -> 21a 7b 9b                                     
   -0.013186  5a 4b 5b -> 21a 7b 21b                                    
    0.017191  4a 4b 5b -> 7a 7b 9b                                      
    0.011738  6a 4b 5b -> 7a 6b 9b                                      
   -0.011267  6a 4b 5b -> 7a 8b 9b                                      
    0.012395  6a 4b 5b -> 9a 6b 7b                                      
    0.012859  6a 4b 5b -> 9a 7b 8b                                      
    0.029672  4a 6a 4b -> 7a 8a 7b                                      
    0.015828  5a 6a 5b -> 8a 9a 9b                                      
    0.030722  4a 5a 4b -> 7a 9a 7b                                      
    0.013527  5a 6a 4b -> 7a 8a 9b                                      
   -0.010607  4a 6a 5b -> 7a 9a 8b                                      
    0.012544  4a 6a 5b -> 8a 9a 7b                                      
   -0.017484  5a 6a 4b -> 8a 9a 7b                                      
   -0.021852  4a 5a 4b 5b -> 7a 9a 7b 9b                                
    0.011107  4a 5a 4b 5b -> 9a 14a 7b 9b                               
   -0.010398  5a 6a 4b 5b -> 7a 9a 8b 9b                                
    0.019490  5a 6a 4b 5b -> 8a 9a 7b 9b                                
   -0.011871  4a 6a 4b 5b -> 7a 8a 7b 9b                                
    0.010177  4a 6a 4b 5b -> 7a 9a 7b 8b                                
   -0.012739  4a 5a 6a 5b -> 7a 8a 9a 9b                                
    0.012000  4a 5a 6a 4b 5b -> 7a 8a 9a 7b 9b                          
 
 ************************ 2021-07-31 19:26:00 *************************
                      Normal termination of mrcc.
 **********************************************************************
