 **********************************************************************
                          MRCC program system
 **********************************************************************
 
                              Written by
  Mihaly Kallay, Zoltan Rolik, Jozsef Csontos, Peter Nagy, Gyula Samu,
    David Mester, Istvan Ladjanszki, Lorant Szegedy, Bence Ladoczki,
              Klara Petrov, Mate Farkas, and Bence Hegely
 
        Department of Physical Chemistry and Materials Science
            Budapest University of Technology and Economics
                  Budapest P.O.Box 91, H-1521 Hungary
 
                              www.mrcc.hu
 
                      Release date: April 12, 2017

 ************************ 2021-07-13 17:34:30 *************************
 Executing minp...

 Reading input from MINP...
 
 Input file:
 
#
#TITLE
basis=def2-TZVPP
uncontract=off
iface=cfour
calc=CC(4)
mem=265GB
#core=1
core=frozen
itol=18
scftol=12
cctol=5
ccmaxit=999
scfmaxit=9999
scftype=RHF
rohftype=semicanonical
scfiguess=ao
rest=2
charge=+0
mult=1
#symm=1
#occ=3,0,0,0,0,1,2,2/3,0,0,0,0,1,1,1

#refdet=serialno
#1
#2,3

unit=angs
geom=xyz
4

C  1.2247  0.0000 0.0000
C -1.2247  0.0000 0.0000
C  0.0000 -0.7286 0.0000
C  0.0000  0.7286 0.0000


#Li 1 R

#R=3.065


tprint=0.01
verbosity=3
#nstate=4


 
 
 Checking keyword combinations...
 
 Keywords:
 
 active=none
 agrid=ld0006-ld0590
 basis=def2-tzvpp
 basopt=off
 bpcompo=0.985
 bpcompv=0.98
 bpdfo=0.985
 bpocc=0.985
 bppdo=0.985
 bppdv=0.98
 bpedo=0.985
 bpedv=0.98
 calc=cc(4)
 ccmaxit=999
 ccprog=mrcc
 cctol=5
 charge=+0
 cialg=disk
 ciguess=off
 cmpgrp=auto
 core=frozen
 corembed=off
 dboc=off
 dendec=cholesky
 dens=0
 dfalg=invsqrt
 dfbasis_cor=none
 dfbasis_scf=none
 dfintran=ovirt
 dft=off
 diag=david
 domrad=10.d0
 drpaalg=fit
 ecp=auto
 edisp=off
 embed=off
 epert=none
 eps=0.975
 excrad=0.d0
 excrad_fin=0.000000000D+00
 freq=off
 gauss=spher
 geom=xyz
 gopt=off
 ghost=none
 gtol=7
 grdens=off
 grtol=10
 hamilton=dc
 iface=cfour
 intalg=auto
 itol=18
 laptol=1.d-2
 lcorthr=loose
 lccrest=off
 lmp2dens=on
 lnoepso=3e-5
 lnoepsv=1e-6
 localcc=off
 locintrf=disk
 maxact=off
 maxex=0
 bfbasis=none
 mem=265gb
 molden=on
 mulmet=0
 mult=1
 nacto=0
 nactv=0
 naf_cor=off
 naf_scf=off
 nafalg=albe
 naftyp=
 nchol=auto
 ndeps=1e-3
 nstate=1
 nsing=0
 ntrip=0
 occ=
 optalg=
 optmaxit=50
 optetol=1e-6
 optgtol=1e-4
 optstol=1e-3
 orblocc=off
 orbloco=off
 orblocv=off
 osveps=1e-3
 ovirt=off
 ovosnorb=80.0
 ptfreq=0.0
 popul=off
 pressure=100000
 qmmm=off
 refdet=none
 rest=2
 rgrid=log3
 rohftype=semicanonical
 scfalg=auto
 scfdamp=off
 scfdiis=on
 scfdiis_end=9999
 scfdiis_start=1
 scfdiis_step=1
 scfdtol=16
 scfext=10
 scfiguess=ao
 scflshift=off
 scfmaxit=9999
 scftype=rhf
 scftol=12
 scspe=1.d0
 scsps=1.2d0
 scspt=0.33333333333333
 scspv=1.d0
 spairtol=1e-4
 symm=
 talg=occ
 temp=298.15
 test=off
 tprint=0.01
 uncontract=off
 unit=angs
 verbosity=3
 wpairtol=0.100000000E-05

 ************************ 2021-07-13 17:34:31 *************************
 Executing goldstone...

 Generation of CC equations in terms of H and T...
 Generation of antisymmetrized Goldstone diagrams...
 Number of diagrams in T^1 equations:    15
 Number of diagrams in T^2 equations:    38
 Number of diagrams in T^3 equations:    53
 Number of diagrams in T^4 equations:    74
 Translation of diagrams to factorized equations...
 Optimizing intermediate calculation...
 Number of floating-point operations per iteration step:   5.7336E+14
 Probable CPU time per iteration step (hours):   5733.59
 Required memory (Mbytes):  177536.1
 Number of intermediates:                                 105
 Number of intermediates to be stored:                     44
 Length of intermediate file (Mbytes):   14206.1

 ************************ 2021-07-13 17:34:44 *************************
 Executing xmrcc...

 **********************************************************************
 CC(                     4 ) calculation 
 
 
 Allocation of****** Mbytes of memory...
 Number of spinorbitals:                   240
 Number of alpha electrons:                        8
 Number of beta electrons:                         8
 Spin multiplicity:                     1
 z-component of spin:  0.0
 Spatial symmetry:                      1
 Convergence criterion:  1.0E-05
 Construction of occupation graphs...
 Number of                     0 -fold excitations:                      1
 Number of                     1 -fold excitations:                    276
 Number of                     2 -fold excitations:                 147696
 Number of                     3 -fold excitations:               42261924
 Number of                     4 -fold excitations:             6754184304
 Total number of configurations:             6796594201
 Calculation of coupling coefficients...
 Length of intermediate file (Mbytes):    8972.8
 
 ======================================================================
 
 Memory requirements /Mbyte/: 
               Minimal        Optimal
 Real*8:     491371.9492    491371.9492
 Integer:      2364.4043
 Total:      493736.3536    493736.3536
 

 ************************ 2021-07-13 17:36:38 *************************
 Executing goldstone...

 Generation of MRCC equations in terms of H and T...
 Generation of antisymmetrized Goldstone diagrams...
 Number of diagrams in T^1 equations:    15
 Number of diagrams in T^2 equations:    38
 Number of diagrams in T^3 equations:    53
 Number of diagrams in T^4 equations:    74
 Translation of diagrams to factorized equations...
 Number of restricted diagrams in T^1 equations:     30
 Number of restricted diagrams in T^2 equations:    129
 Number of restricted diagrams in T^3 equations:    302
 Number of restricted diagrams in T^4 equations:    633
 Optimizing intermediate calculation...
 Number of floating-point operations per iteration step:   2.2075E+14
 Probable CPU time per iteration step (hours):   2207.54
 Required memory (Mbytes):   67083.1
 Number of intermediates:                                 414
 Number of intermediates to be stored:                    153
 Length of intermediate file (Mbytes):  132751.5

 ************************ 2021-07-13 17:36:41 *************************
 Executing xmrcc...

 **********************************************************************
 MRCC(                     4 ) calculation 
 
 
 Allocation of****** Mbytes of memory...
 Number of spinorbitals:                   240
 Number of alpha electrons:                        8
 Number of beta electrons:                         8
 Number of active particles:                   112
 Number of active holes:                         0
 Spin multiplicity:                     1
 z-component of spin:  0.0
 Spatial symmetry:                      1
 Convergence criterion:  1.0E-05
 Construction of occupation graphs...
 Number of                     0 -fold excitations:                      1
 Number of                     1 -fold excitations:                    276
 Number of                     2 -fold excitations:                 147696
 Number of                     3 -fold excitations:               42261924
 Number of                     4 -fold excitations:             6754184304
 Total number of configurations:             6796594201
 Calculation of coupling coefficients...
 Length of intermediate file (Mbytes):   98232.1
 
 ======================================================================
 
 Memory requirements /Mbyte/: 
               Minimal        Optimal
 Real*8:     125041.0338    125041.0338
 Integer:      2400.5994
 Total:      127441.6331    127441.6331
 

 ************************ 2021-07-13 17:41:58 *************************
 Executing goldstone...

 Generation of MRCC equations in terms of H and T...
 Generation of antisymmetrized Goldstone diagrams...
 Number of diagrams in T^1 equations:    15
 Number of diagrams in T^2 equations:    33
 Number of diagrams in T^3 equations:     2
 Translation of diagrams to factorized equations...
 Number of restricted diagrams in T^1 equations:     78
 Number of restricted diagrams in T^2 equations:    293
 Number of restricted diagrams in T^3 equations:     18
 Optimizing intermediate calculation...
 Number of floating-point operations per iteration step:   3.9088E+10
 Probable CPU time per iteration step (hours):      0.39
 Required memory (Mbytes):   20790.5
 Number of intermediates:                                 233
 Number of intermediates to be stored:                    105
 Length of intermediate file (Mbytes):     410.0

 ************************ 2021-07-13 17:41:58 *************************
 Executing xmrcc...

 **********************************************************************
 MRCC(                     3 ) calculation 
 
 
 Allocation of****** Mbytes of memory...
 Number of spinorbitals:                   240
 Number of alpha electrons:                        8
 Number of beta electrons:                         8
 Number of active particles:                   112
 Number of active holes:                         0
 Spin multiplicity:                     1
 z-component of spin:  0.0
 Spatial symmetry:                      1
 Convergence criterion:  1.0E-05
 Construction of occupation graphs...
 Number of                     0 -fold excitations:                      1
 Number of                     1 -fold excitations:                    276
 Number of                     2 -fold excitations:                 147696
 Total number of configurations:                 147973
 Calculation of coupling coefficients...
 Length of intermediate file (Mbytes):     313.6
 
 ======================================================================
 
 Spin case  1   Alpha:  0   Beta:  3
 Number of excitations:                 193705
 Spin case  2   Alpha:  1   Beta:  2
 Number of excitations:                2422040
 Spin case  3   Alpha:  0   Beta:  3
 Number of excitations:                 602238
 Spin case  4   Alpha:  1   Beta:  2
 Number of excitations:                2420488
 Spin case  5   Alpha:  1   Beta:  2
 Number of excitations:                4931248
 Spin case  6   Alpha:  0   Beta:  3
 Number of excitations:                 602730
 Spin case  7   Alpha:  1   Beta:  2
 Number of excitations:                4928208
 Spin case  8   Alpha:  1   Beta:  2
 Number of excitations:                2418520
 Spin case  9   Alpha:  0   Beta:  3
 Number of excitations:                 193985
 Spin case 10   Alpha:  1   Beta:  2
 Number of excitations:                2417800
 Number of                     3 -fold excitations:               42261924
 
 Memory requirements /Mbyte/: 
               Minimal        Optimal
 Real*8:         31.5667      1585.8001
 Integer:        56.4838
 Total:          88.0504      1642.2839
 

 ************************ 2021-07-13 17:42:02 *************************
 Executing mrcc...

 **********************************************************************
 CCSD(T) calculation                                                    
 
 
 OpenMP parallel version is running.
 Number of CPUs:  16
 Allocation of 1585.8 Mbytes of memory...
 Number of spinorbitals: 240
 Number of alpha electrons:  8
 Number of beta  electrons:  8
 Number of active particles:                   112
 Number of active holes:                         0
 Spin multiplicity: 1
 z-component of spin:  0.0
 Spatial symmetry: 1
 Convergence criterion:  1.0E-05
 Construction of occupation graphs...
 Number of 0-fold excitations: 1
 Number of 1-fold excitations: 276
 Number of 2-fold excitations: 147696
 Total number of determinants: 147973
 Calculation of coupling coefficients...
 Initial cluster amplitudes are generated.
 Length of intermediate file (Mbytes):     313.6
 Reading integral list from unit 55...
 Sorting integrals...
 Energy of reference determinant [au]:    -150.900521281479
 Calculation of MP denominators...
 
 Starting CC iteration...
 ======================================================================
 Norm of residual vector:     1.40827970
 CPU time [min]:     4.512                   Wall time [min]:     0.518
 
 Iteration  1  CC energy:  -151.56527143  Energy decrease:   0.66475014
 ======================================================================
 Norm of residual vector:     0.35337366
 CPU time [min]:     7.691                   Wall time [min]:     0.749
 
 Iteration  2  CC energy:  -151.50269903  Energy decrease:   0.06257239
 ======================================================================
 Norm of residual vector:     0.13683869
 CPU time [min]:    10.899                   Wall time [min]:     0.981
 
 Iteration  3  CC energy:  -151.52704948  Energy decrease:   0.02435045
 ======================================================================
 Norm of residual vector:     0.06637362
 CPU time [min]:    14.107                   Wall time [min]:     1.213
 
 Iteration  4  CC energy:  -151.54304078  Energy decrease:   0.01599129
 ======================================================================
 Norm of residual vector:     0.05261764
 CPU time [min]:    17.349                   Wall time [min]:     1.445
 
 Iteration  5  CC energy:  -151.54805596  Energy decrease:   0.00501518
 ======================================================================
 Norm of residual vector:     0.04174408
 CPU time [min]:    20.645                   Wall time [min]:     1.678
 
 Iteration  6  CC energy:  -151.54345570  Energy decrease:   0.00460026
 ======================================================================
 Norm of residual vector:     0.04790452
 CPU time [min]:    23.832                   Wall time [min]:     1.910
 
 Iteration  7  CC energy:  -151.53870888  Energy decrease:   0.00474682
 ======================================================================
 Norm of residual vector:     0.04667981
 CPU time [min]:    27.072                   Wall time [min]:     2.142
 
 Iteration  8  CC energy:  -151.53717800  Energy decrease:   0.00153088
 ======================================================================
 Norm of residual vector:     0.03594153
 CPU time [min]:    30.362                   Wall time [min]:     2.376
 
 Iteration  9  CC energy:  -151.53768707  Energy decrease:   0.00050907
 ======================================================================
 Norm of residual vector:     0.01988203
 CPU time [min]:    33.823                   Wall time [min]:     2.624
 
 Iteration 10  CC energy:  -151.53853273  Energy decrease:   0.00084566
 ======================================================================
 Norm of residual vector:     0.01286190
 CPU time [min]:    37.047                   Wall time [min]:     2.858
 
 Iteration 11  CC energy:  -151.54012366  Energy decrease:   0.00159093
 ======================================================================
 Norm of residual vector:     0.00757253
 CPU time [min]:    40.307                   Wall time [min]:     3.093
 
 Iteration 12  CC energy:  -151.53671288  Energy decrease:   0.00341078
 ======================================================================
 Norm of residual vector:     0.00641092
 CPU time [min]:    43.598                   Wall time [min]:     3.327
 
 Iteration 13  CC energy:  -151.53870344  Energy decrease:   0.00199056
 ======================================================================
 Norm of residual vector:     0.00259172
 CPU time [min]:    46.904                   Wall time [min]:     3.561
 
 Iteration 14  CC energy:  -151.53825987  Energy decrease:   0.00044357
 ======================================================================
 Norm of residual vector:     0.00089417
 CPU time [min]:    50.173                   Wall time [min]:     3.796
 
 Iteration 15  CC energy:  -151.53827433  Energy decrease:   0.00001446
 ======================================================================
 Norm of residual vector:     0.00048982
 CPU time [min]:    53.441                   Wall time [min]:     4.030
 
 Iteration 16  CC energy:  -151.53813242  Energy decrease:   0.00014192
 ======================================================================
 Norm of residual vector:     0.00019052
 CPU time [min]:    56.728                   Wall time [min]:     4.264
 
 Iteration 17  CC energy:  -151.53813249  Energy decrease:   0.00000008
 ======================================================================
 Norm of residual vector:     0.00007674
 CPU time [min]:    60.047                   Wall time [min]:     4.498
 
 Iteration 18  CC energy:  -151.53814510  Energy decrease:   0.00001261
 ======================================================================
 Norm of residual vector:     0.00002483
 CPU time [min]:    63.315                   Wall time [min]:     4.733
 
 Iteration 19  CC energy:  -151.53814277  Energy decrease:   0.00000233
 ======================================================================
 Norm of residual vector:     0.00000725
 CPU time [min]:    66.593                   Wall time [min]:     4.969
 
 Iteration 20  CC energy:  -151.53814266  Energy decrease:   0.00000011
 ======================================================================
 
 Iteration has converged in 20 steps.
 
 Final results:
 Total CCSD energy [au]:            -151.538142661165
 Total MP2 energy [au]:             -151.565271425824
 
 Perturbative corrections are calculated...
 ======================================================================
 Spin case  1   Alpha:  0   Beta:  3
 Number of excitations:        193705
 CPU time [min]:    66.762                   Wall time [min]:     4.987
 ======================================================================
 Spin case  2   Alpha:  1   Beta:  2
 Number of excitations:        2422040
 CPU time [min]:    67.140                   Wall time [min]:     5.011
 ======================================================================
 Spin case  3   Alpha:  0   Beta:  3
 Number of excitations:        602238
 CPU time [min]:    67.294                   Wall time [min]:     5.020
 ======================================================================
 Spin case  4   Alpha:  1   Beta:  2
 Number of excitations:        2420488
 CPU time [min]:    67.676                   Wall time [min]:     5.044
 ======================================================================
 Spin case  5   Alpha:  1   Beta:  2
 Number of excitations:        4931248
 CPU time [min]:    68.399                   Wall time [min]:     5.095
 ======================================================================
 Spin case  6   Alpha:  0   Beta:  3
 Number of excitations:        602730
 CPU time [min]:    68.581                   Wall time [min]:     5.106
 ======================================================================
 Spin case  7   Alpha:  1   Beta:  2
 Number of excitations:        4928208
 CPU time [min]:    69.332                   Wall time [min]:     5.163
 ======================================================================
 Spin case  8   Alpha:  1   Beta:  2
 Number of excitations:        2418520
 CPU time [min]:    69.738                   Wall time [min]:     5.189
 ======================================================================
 Spin case  9   Alpha:  0   Beta:  3
 Number of excitations:        193985
 CPU time [min]:    69.794                   Wall time [min]:     5.193
 ======================================================================
 Spin case 10   Alpha:  1   Beta:  2
 Number of excitations:        2417800
 CPU time [min]:    70.184                   Wall time [min]:     5.218
 ======================================================================
 Number of 3-fold excitations: 42261924
 CPU time [min]:    70.185                   Wall time [min]:     5.218
 
 Total CCSD[T] energy [au]:         -152.131343645728
 Total CCSD(T) energy [au]:         -152.116149262094
 
 Dominant cluster amplitudes
 Printing threshold:  1.00E-02
 
    1.000000  Reference determinant                                     
    0.032180  1b -> 9b                                                  
    0.251483  6b -> 9b                                                  
    0.018343  6b -> 14b                                                 
    0.014524  6b -> 19b                                                 
   -0.015042  5b -> 17b                                                 
    0.020649  5b -> 26b                                                 
   -0.035954  5b -> 31b                                                 
    0.018543  8b -> 22b                                                 
   -0.011067  8b -> 35b                                                 
    0.011698  8b -> 59b                                                 
    0.050078  4b -> 12b                                                 
    0.014607  4b -> 27b                                                 
    0.012695  4b -> 34b                                                 
    0.011354  4b -> 54b                                                 
   -0.015123  3b -> 11b                                                 
    0.010569  3b -> 30b                                                 
    0.012793  2b -> 32b                                                 
    0.037938  7b -> 15b                                                 
   -0.027059  7b -> 23b                                                 
    0.019632  7b -> 39b                                                 
   -0.011990  7b -> 48b                                                 
   -0.010741  7b -> 56b                                                 
    0.032180  1a -> 9a                                                  
    0.251483  6a -> 9a                                                  
    0.018343  6a -> 14a                                                 
    0.014524  6a -> 19a                                                 
   -0.015042  5a -> 17a                                                 
    0.020649  5a -> 26a                                                 
   -0.035954  5a -> 31a                                                 
    0.018543  8a -> 22a                                                 
   -0.011067  8a -> 35a                                                 
    0.011698  8a -> 59a                                                 
    0.050078  4a -> 12a                                                 
    0.014607  4a -> 27a                                                 
    0.012695  4a -> 34a                                                 
    0.011354  4a -> 54a                                                 
   -0.015123  3a -> 11a                                                 
    0.010569  3a -> 30a                                                 
    0.012793  2a -> 32a                                                 
    0.037938  7a -> 15a                                                 
   -0.027059  7a -> 23a                                                 
    0.019632  7a -> 39a                                                 
   -0.011990  7a -> 48a                                                 
   -0.010741  7a -> 56a                                                 
    0.011488  2b 7b -> 9b 28b                                           
    0.014229  2b 7b -> 9b 29b                                           
    0.014984  5b 6b -> 9b 31b                                           
   -0.014589  5b 6b -> 11b 32b                                          
   -0.011174  4b 7b -> 10b 31b                                          
    0.010220  6b 8b -> 12b 32b                                          
   -0.023860  3b 4b -> 9b 10b                                           
   -0.012022  3b 4b -> 10b 16b                                          
   -0.024201  5b 8b -> 11b 12b                                          
    0.013190  5b 8b -> 12b 13b                                          
   -0.010650  5b 8b -> 11b 18b                                          
   -0.012852  5b 8b -> 11b 27b                                          
   -0.013431  5b 8b -> 9b 38b                                           
   -0.011891  4b 5b -> 12b 31b                                          
   -0.016621  4b 5b -> 10b 32b                                          
   -0.016633  3b 8b -> 9b 33b                                           
    0.015523  4b 6b -> 10b 11b                                          
    0.018586  4b 6b -> 9b 12b                                           
    0.011081  4b 6b -> 10b 24b                                          
   -0.016739  4b 6b -> 10b 30b                                          
    0.058683  7b 8b -> 9b 12b                                           
    0.016605  7b 8b -> 9b 18b                                           
    0.015717  7b 8b -> 9b 27b                                           
   -0.012823  7b 8b -> 12b 28b                                          
   -0.015684  7b 8b -> 12b 29b                                          
   -0.012623  7b 8b -> 9b 34b                                           
   -0.015889  7b 8b -> 9b 47b                                           
   -0.013375  3b 6b -> 9b 30b                                           
    0.013609  5b 7b -> 9b 11b                                           
   -0.012357  3b 5b -> 9b 32b                                           
    0.010562  6b 7b -> 9b 15b                                           
    0.012464  6b 7b -> 9b 39b                                           
   -0.012161  4b 8b -> 9b 15b                                           
   -0.013899  4b 8b -> 9b 32b                                           
   -0.010933  4b 8b -> 12b 35b                                          
   -0.011907  1a 1b -> 29a 29b                                          
    0.027124  6a 1b -> 9a 9b                                            
    0.027124  1a 6b -> 9a 9b                                            
   -0.071932  6a 6b -> 9a 9b                                            
   -0.016982  6a 6b -> 19a 9b                                           
   -0.011457  6a 6b -> 14a 14b                                          
   -0.016982  6a 6b -> 9a 19b                                           
   -0.033478  5a 5b -> 9a 9b                                            
    1.427119  8a 8b -> 9a 9b                                            
   -0.061596  8a 8b -> 14a 9b                                           
    0.064535  8a 8b -> 16a 9b                                           
    0.056058  8a 8b -> 19a 9b                                           
   -0.042621  8a 8b -> 28a 9b                                           
    0.020053  8a 8b -> 36a 9b                                           
    0.035131  8a 8b -> 37a 9b                                           
   -0.031164  8a 8b -> 55a 9b                                           
   -0.061596  8a 8b -> 9a 14b                                           
   -0.011051  8a 8b -> 14a 14b                                          
    0.064535  8a 8b -> 9a 16b                                           
    0.056058  8a 8b -> 9a 19b                                           
   -0.016286  8a 8b -> 19a 19b                                          
   -0.042621  8a 8b -> 9a 28b                                           
   -0.012213  8a 8b -> 28a 28b                                          
   -0.014043  8a 8b -> 29a 29b                                          
    0.020053  8a 8b -> 9a 36b                                           
    0.035131  8a 8b -> 9a 37b                                           
   -0.031164  8a 8b -> 9a 55b                                           
   -0.174635  4a 4b -> 9a 9b                                            
   -0.015543  4a 4b -> 19a 9b                                           
   -0.013126  4a 4b -> 16a 16b                                          
   -0.015543  4a 4b -> 9a 19b                                           
   -0.053593  3a 3b -> 9a 9b                                            
   -0.014599  3a 3b -> 19a 9b                                           
   -0.014599  3a 3b -> 9a 19b                                           
   -0.035806  2a 2b -> 9a 9b                                            
   -0.013696  2a 2b -> 29a 29b                                          
   -0.044518  7a 2b -> 9a 9b                                            
    0.011391  7a 2b -> 14a 9b                                           
    0.014988  7a 2b -> 28a 9b                                           
    0.010242  7a 2b -> 29a 9b                                           
    0.013915  7a 2b -> 9a 14b                                           
   -0.044518  2a 7b -> 9a 9b                                            
    0.013915  2a 7b -> 14a 9b                                           
    0.011391  2a 7b -> 9a 14b                                           
    0.014988  2a 7b -> 9a 28b                                           
    0.010242  2a 7b -> 9a 29b                                           
   -0.620261  7a 7b -> 9a 9b                                            
    0.033244  7a 7b -> 14a 9b                                           
   -0.029841  7a 7b -> 16a 9b                                           
   -0.019906  7a 7b -> 19a 9b                                           
    0.081928  7a 7b -> 28a 9b                                           
    0.050341  7a 7b -> 29a 9b                                           
   -0.021038  7a 7b -> 37a 9b                                           
    0.011160  7a 7b -> 49a 9b                                           
    0.021534  7a 7b -> 55a 9b                                           
    0.033244  7a 7b -> 9a 14b                                           
   -0.029841  7a 7b -> 9a 16b                                           
   -0.019906  7a 7b -> 9a 19b                                           
    0.081928  7a 7b -> 9a 28b                                           
   -0.017356  7a 7b -> 28a 28b                                          
   -0.011801  7a 7b -> 29a 28b                                          
    0.050341  7a 7b -> 9a 29b                                           
   -0.011801  7a 7b -> 28a 29b                                          
   -0.021038  7a 7b -> 9a 37b                                           
    0.011160  7a 7b -> 9a 49b                                           
    0.021534  7a 7b -> 9a 55b                                           
   -0.010831  5a 5b -> 17a 17b                                          
   -0.010089  5a 5b -> 31a 17b                                          
   -0.010089  5a 5b -> 17a 31b                                          
   -0.020983  5a 5b -> 31a 31b                                          
   -0.011111  8a 8b -> 31a 31b                                          
   -0.022917  8a 8b -> 22a 22b                                          
   -0.017489  8a 8b -> 35a 35b                                          
   -0.015596  6a 6b -> 10a 10b                                          
   -0.036388  8a 8b -> 10a 10b                                          
   -0.063296  4a 4b -> 10a 10b                                          
   -0.025263  4a 4b -> 21a 10b                                          
   -0.025263  4a 4b -> 10a 21b                                          
   -0.012383  4a 4b -> 21a 21b                                          
   -0.039815  3a 3b -> 10a 10b                                          
   -0.014672  3a 3b -> 21a 10b                                          
   -0.014672  3a 3b -> 10a 21b                                          
    0.010188  7a 7b -> 10a 10b                                          
   -0.010948  5a 5b -> 33a 33b                                          
   -0.015386  8a 8b -> 33a 33b                                          
   -0.158061  8a 8b -> 12a 12b                                          
   -0.060267  8a 8b -> 18a 12b                                          
   -0.057538  8a 8b -> 27a 12b                                          
   -0.060267  8a 8b -> 12a 18b                                          
   -0.030880  8a 8b -> 18a 18b                                          
   -0.027893  8a 8b -> 27a 18b                                          
   -0.057538  8a 8b -> 12a 27b                                          
   -0.027893  8a 8b -> 18a 27b                                          
   -0.028524  8a 8b -> 27a 27b                                          
   -0.012789  8a 8b -> 34a 34b                                          
   -0.012037  4a 4b -> 12a 12b                                          
   -0.010739  7a 7b -> 12a 12b                                          
   -0.012680  1a 1b -> 30a 30b                                          
   -0.034691  6a 6b -> 11a 11b                                          
   -0.012277  6a 6b -> 13a 11b                                          
   -0.015359  6a 6b -> 24a 11b                                          
   -0.012277  6a 6b -> 11a 13b                                          
   -0.011956  6a 6b -> 13a 13b                                          
   -0.015359  6a 6b -> 11a 24b                                          
   -0.012578  6a 6b -> 30a 30b                                          
   -0.029116  5a 5b -> 11a 11b                                          
   -0.011162  5a 5b -> 13a 11b                                          
   -0.013283  5a 5b -> 24a 11b                                          
   -0.011162  5a 5b -> 11a 13b                                          
   -0.013283  5a 5b -> 11a 24b                                          
   -0.162677  8a 8b -> 11a 11b                                          
   -0.065535  8a 8b -> 13a 11b                                          
   -0.048691  8a 8b -> 24a 11b                                          
    0.014866  8a 8b -> 25a 11b                                          
   -0.065535  8a 8b -> 11a 13b                                          
   -0.031807  8a 8b -> 13a 13b                                          
   -0.024633  8a 8b -> 24a 13b                                          
   -0.048691  8a 8b -> 11a 24b                                          
   -0.024633  8a 8b -> 13a 24b                                          
   -0.019498  8a 8b -> 24a 24b                                          
    0.014866  8a 8b -> 11a 25b                                          
    0.011903  4a 4b -> 11a 11b                                          
   -0.023883  3a 3b -> 11a 11b                                          
   -0.012173  3a 3b -> 24a 11b                                          
   -0.010960  3a 3b -> 13a 13b                                          
   -0.012173  3a 3b -> 11a 24b                                          
    0.030051  7a 7b -> 11a 11b                                          
    0.012656  7a 7b -> 24a 11b                                          
   -0.010456  7a 7b -> 30a 11b                                          
    0.012656  7a 7b -> 11a 24b                                          
   -0.010456  7a 7b -> 11a 30b                                          
   -0.016811  5a 5b -> 32a 32b                                          
   -0.020302  8a 8b -> 15a 15b                                          
   -0.016007  8a 8b -> 32a 15b                                          
   -0.016299  8a 8b -> 23a 23b                                          
   -0.016007  8a 8b -> 15a 32b                                          
   -0.023158  8a 8b -> 32a 32b                                          
   -0.011303  3a 3b -> 32a 32b                                          
   -0.012564  2a 2b -> 32a 32b                                          
   -0.014212  6a 5b -> 9a 17b                                           
    0.018041  6a 5b -> 9a 26b                                           
   -0.032526  6a 5b -> 9a 31b                                           
    0.010672  5a 6b -> 9a 26b                                           
   -0.017542  5a 6b -> 9a 31b                                           
    0.014218  3a 2b -> 9a 31b                                           
    0.011591  2a 3b -> 9a 31b                                           
    0.010461  7a 3b -> 9a 31b                                           
    0.010672  6a 5b -> 26a 9b                                           
   -0.017542  6a 5b -> 31a 9b                                           
   -0.014212  5a 6b -> 17a 9b                                           
    0.018041  5a 6b -> 26a 9b                                           
   -0.032526  5a 6b -> 31a 9b                                           
    0.011591  3a 2b -> 31a 9b                                           
    0.010461  3a 7b -> 31a 9b                                           
    0.014218  2a 3b -> 31a 9b                                           
    0.012779  6a 5b -> 11a 32b                                          
    0.012779  5a 6b -> 32a 11b                                          
   -0.015272  4a 7b -> 9a 35b                                           
    0.011309  2a 4b -> 31a 10b                                          
   -0.011616  7a 4b -> 17a 10b                                          
   -0.013105  7a 4b -> 31a 10b                                          
   -0.015272  7a 4b -> 35a 9b                                           
    0.011309  4a 2b -> 10a 31b                                          
   -0.011616  4a 7b -> 10a 17b                                          
   -0.013105  4a 7b -> 10a 31b                                          
    0.012293  6a 8b -> 12a 15b                                          
    0.012293  8a 6b -> 15a 12b                                          
   -0.036017  5a 8b -> 9a 10b                                           
   -0.044934  8a 5b -> 9a 10b                                           
    0.012234  8a 5b -> 9a 38b                                           
   -0.027812  4a 3b -> 9a 10b                                           
   -0.012015  4a 3b -> 16a 10b                                          
   -0.011678  4a 3b -> 36a 10b                                          
   -0.010581  4a 3b -> 9a 21b                                           
   -0.051672  3a 4b -> 9a 10b                                           
   -0.012186  3a 4b -> 19a 10b                                          
   -0.019764  3a 4b -> 9a 21b                                           
   -0.044934  5a 8b -> 10a 9b                                           
    0.012234  5a 8b -> 38a 9b                                           
   -0.036017  8a 5b -> 10a 9b                                           
   -0.051672  4a 3b -> 10a 9b                                           
   -0.019764  4a 3b -> 21a 9b                                           
   -0.012186  4a 3b -> 10a 19b                                          
   -0.027812  3a 4b -> 10a 9b                                           
   -0.010581  3a 4b -> 21a 9b                                           
   -0.012015  3a 4b -> 10a 16b                                          
   -0.011678  3a 4b -> 10a 36b                                          
   -0.011842  5a 8b -> 12a 11b                                          
   -0.036043  8a 5b -> 12a 11b                                          
   -0.016615  8a 5b -> 18a 11b                                          
   -0.018861  8a 5b -> 27a 11b                                          
   -0.020394  8a 5b -> 12a 13b                                          
   -0.011427  8a 5b -> 12a 24b                                          
   -0.014966  8a 5b -> 12a 30b                                          
    0.010546  4a 3b -> 12a 13b                                          
   -0.036043  5a 8b -> 11a 12b                                          
   -0.020394  5a 8b -> 13a 12b                                          
   -0.011427  5a 8b -> 24a 12b                                          
   -0.014966  5a 8b -> 30a 12b                                          
   -0.016615  5a 8b -> 11a 18b                                          
   -0.018861  5a 8b -> 11a 27b                                          
   -0.011842  8a 5b -> 11a 12b                                          
    0.010546  3a 4b -> 13a 12b                                          
    0.013943  8a 3b -> 9a 33b                                           
   -0.016348  5a 4b -> 31a 12b                                          
    0.010498  3a 8b -> 31a 12b                                          
   -0.010838  8a 3b -> 22a 11b                                          
   -0.019058  4a 5b -> 10a 32b                                          
    0.013943  3a 8b -> 33a 9b                                           
    0.010498  8a 3b -> 12a 31b                                          
   -0.016348  4a 5b -> 12a 31b                                          
   -0.010838  3a 8b -> 11a 22b                                          
   -0.019058  5a 4b -> 32a 10b                                          
    0.013771  1a 4b -> 9a 12b                                           
   -0.030393  6a 4b -> 9a 12b                                           
   -0.014678  6a 4b -> 9a 27b                                           
   -0.097893  8a 7b -> 9a 12b                                           
   -0.027574  8a 7b -> 9a 18b                                           
   -0.029665  8a 7b -> 9a 27b                                           
    0.017040  8a 7b -> 9a 34b                                           
    0.013482  8a 7b -> 9a 47b                                           
   -0.011807  4a 6b -> 9a 12b                                           
   -0.016223  2a 8b -> 29a 12b                                          
   -0.011436  2a 8b -> 29a 27b                                          
   -0.039210  7a 8b -> 9a 12b                                           
    0.018872  7a 8b -> 28a 12b                                          
    0.017942  7a 8b -> 29a 12b                                          
   -0.010969  7a 8b -> 9a 18b                                           
   -0.013948  7a 8b -> 9a 27b                                           
    0.010132  7a 8b -> 28a 27b                                          
   -0.010349  1a 4b -> 10a 30b                                          
   -0.010020  8a 7b -> 10a 11b                                          
   -0.016510  4a 1b -> 10a 30b                                          
    0.023336  4a 6b -> 10a 11b                                          
    0.015165  4a 6b -> 10a 24b                                          
   -0.014636  4a 6b -> 10a 30b                                          
   -0.011807  6a 4b -> 12a 9b                                           
   -0.016223  8a 2b -> 12a 29b                                          
   -0.011436  8a 2b -> 27a 29b                                          
   -0.039210  8a 7b -> 12a 9b                                           
   -0.010969  8a 7b -> 18a 9b                                           
   -0.013948  8a 7b -> 27a 9b                                           
    0.018872  8a 7b -> 12a 28b                                          
    0.010132  8a 7b -> 27a 28b                                          
    0.017942  8a 7b -> 12a 29b                                          
    0.013771  4a 1b -> 12a 9b                                           
   -0.030393  4a 6b -> 12a 9b                                           
   -0.014678  4a 6b -> 27a 9b                                           
   -0.097893  7a 8b -> 12a 9b                                           
   -0.027574  7a 8b -> 18a 9b                                           
   -0.029665  7a 8b -> 27a 9b                                           
    0.017040  7a 8b -> 34a 9b                                           
    0.013482  7a 8b -> 47a 9b                                           
   -0.016510  1a 4b -> 30a 10b                                          
    0.023336  6a 4b -> 11a 10b                                          
    0.015165  6a 4b -> 24a 10b                                          
   -0.014636  6a 4b -> 30a 10b                                          
   -0.010349  4a 1b -> 30a 10b                                          
   -0.010020  7a 8b -> 11a 10b                                          
    0.038397  6a 3b -> 9a 11b                                           
    0.025021  6a 3b -> 9a 13b                                           
    0.018610  6a 3b -> 9a 24b                                           
   -0.010468  5a 2b -> 9a 11b                                           
   -0.015548  5a 7b -> 9a 11b                                           
   -0.017233  5a 7b -> 9a 30b                                           
    0.042117  3a 6b -> 9a 11b                                           
    0.017748  3a 6b -> 9a 13b                                           
    0.022462  3a 6b -> 9a 24b                                           
   -0.012134  3a 6b -> 9a 30b                                           
   -0.020130  2a 5b -> 9a 11b                                           
   -0.014418  2a 5b -> 29a 11b                                          
   -0.012049  2a 5b -> 9a 13b                                           
   -0.029157  7a 5b -> 9a 11b                                           
    0.010585  7a 5b -> 28a 11b                                          
   -0.016516  7a 5b -> 9a 13b                                           
   -0.021009  7a 5b -> 9a 30b                                           
   -0.015132  3a 6b -> 10a 34b                                          
   -0.015132  6a 3b -> 34a 10b                                          
    0.042117  6a 3b -> 11a 9b                                           
    0.017748  6a 3b -> 13a 9b                                           
    0.022462  6a 3b -> 24a 9b                                           
   -0.012134  6a 3b -> 30a 9b                                           
   -0.020130  5a 2b -> 11a 9b                                           
   -0.012049  5a 2b -> 13a 9b                                           
   -0.014418  5a 2b -> 11a 29b                                          
   -0.029157  5a 7b -> 11a 9b                                           
   -0.016516  5a 7b -> 13a 9b                                           
   -0.021009  5a 7b -> 30a 9b                                           
    0.010585  5a 7b -> 11a 28b                                          
    0.038397  3a 6b -> 11a 9b                                           
    0.025021  3a 6b -> 13a 9b                                           
    0.018610  3a 6b -> 24a 9b                                           
   -0.010468  2a 5b -> 11a 9b                                           
   -0.015548  7a 5b -> 11a 9b                                           
   -0.017233  7a 5b -> 30a 9b                                           
    0.011351  6a 2b -> 9a 15b                                           
    0.014383  6a 2b -> 9a 32b                                           
    0.040141  6a 7b -> 9a 15b                                           
   -0.026100  6a 7b -> 9a 23b                                           
    0.024300  6a 7b -> 9a 39b                                           
   -0.011994  6a 7b -> 9a 48b                                           
   -0.011224  5a 3b -> 9a 32b                                           
   -0.023107  8a 4b -> 9a 15b                                           
    0.010506  8a 4b -> 9a 20b                                           
    0.019432  8a 4b -> 9a 23b                                           
   -0.011656  8a 4b -> 9a 39b                                           
   -0.011656  8a 4b -> 9a 41b                                           
   -0.035268  4a 8b -> 9a 15b                                           
    0.011915  4a 8b -> 9a 23b                                           
   -0.010718  4a 8b -> 16a 23b                                          
   -0.023767  4a 8b -> 9a 32b                                           
   -0.012978  3a 5b -> 9a 15b                                           
   -0.023581  3a 5b -> 9a 32b                                           
    0.029579  7a 6b -> 9a 15b                                           
   -0.019087  7a 6b -> 9a 23b                                           
    0.011836  7a 6b -> 9a 39b                                           
    0.011365  5a 3b -> 31a 11b                                          
    0.012892  5a 3b -> 31a 13b                                          
   -0.011423  2a 6b -> 31a 11b                                          
   -0.011056  7a 6b -> 31a 30b                                          
   -0.017157  8a 4b -> 35a 12b                                          
    0.014479  8a 4b -> 22a 18b                                          
    0.014255  4a 8b -> 22a 12b                                          
    0.010376  4a 8b -> 22a 27b                                          
   -0.019475  4a 8b -> 10a 33b                                          
    0.014380  3a 5b -> 10a 33b                                          
    0.014380  5a 3b -> 33a 10b                                          
   -0.019475  8a 4b -> 33a 10b                                          
    0.014255  8a 4b -> 12a 22b                                          
    0.010376  8a 4b -> 27a 22b                                          
    0.014479  4a 8b -> 18a 22b                                          
   -0.017157  4a 8b -> 12a 35b                                          
   -0.011423  6a 2b -> 11a 31b                                          
   -0.011056  6a 7b -> 30a 31b                                          
    0.011365  3a 5b -> 11a 31b                                          
    0.012892  3a 5b -> 13a 31b                                          
    0.029579  6a 7b -> 15a 9b                                           
   -0.019087  6a 7b -> 23a 9b                                           
    0.011836  6a 7b -> 39a 9b                                           
   -0.012978  5a 3b -> 15a 9b                                           
   -0.023581  5a 3b -> 32a 9b                                           
   -0.035268  8a 4b -> 15a 9b                                           
    0.011915  8a 4b -> 23a 9b                                           
   -0.023767  8a 4b -> 32a 9b                                           
   -0.010718  8a 4b -> 23a 16b                                          
   -0.023107  4a 8b -> 15a 9b                                           
    0.010506  4a 8b -> 20a 9b                                           
    0.019432  4a 8b -> 23a 9b                                           
   -0.011656  4a 8b -> 39a 9b                                           
   -0.011656  4a 8b -> 41a 9b                                           
   -0.011224  3a 5b -> 32a 9b                                           
    0.011351  2a 6b -> 15a 9b                                           
    0.014383  2a 6b -> 32a 9b                                           
    0.040141  7a 6b -> 15a 9b                                           
   -0.026100  7a 6b -> 23a 9b                                           
    0.024300  7a 6b -> 39a 9b                                           
   -0.011994  7a 6b -> 48a 9b                                           
    0.011488  2a 7a -> 9a 28a                                           
    0.014229  2a 7a -> 9a 29a                                           
    0.014984  5a 6a -> 9a 31a                                           
   -0.014589  5a 6a -> 11a 32a                                          
   -0.011174  4a 7a -> 10a 31a                                          
    0.010220  6a 8a -> 12a 32a                                          
   -0.023860  3a 4a -> 9a 10a                                           
   -0.012022  3a 4a -> 10a 16a                                          
   -0.024201  5a 8a -> 11a 12a                                          
    0.013190  5a 8a -> 12a 13a                                          
   -0.010650  5a 8a -> 11a 18a                                          
   -0.012852  5a 8a -> 11a 27a                                          
   -0.013431  5a 8a -> 9a 38a                                           
   -0.011891  4a 5a -> 12a 31a                                          
   -0.016621  4a 5a -> 10a 32a                                          
   -0.016633  3a 8a -> 9a 33a                                           
    0.015523  4a 6a -> 10a 11a                                          
    0.018586  4a 6a -> 9a 12a                                           
    0.011081  4a 6a -> 10a 24a                                          
   -0.016739  4a 6a -> 10a 30a                                          
    0.058683  7a 8a -> 9a 12a                                           
    0.016605  7a 8a -> 9a 18a                                           
    0.015717  7a 8a -> 9a 27a                                           
   -0.012823  7a 8a -> 12a 28a                                          
   -0.015684  7a 8a -> 12a 29a                                          
   -0.012623  7a 8a -> 9a 34a                                           
   -0.015889  7a 8a -> 9a 47a                                           
   -0.013375  3a 6a -> 9a 30a                                           
    0.013609  5a 7a -> 9a 11a                                           
   -0.012357  3a 5a -> 9a 32a                                           
    0.010562  6a 7a -> 9a 15a                                           
    0.012464  6a 7a -> 9a 39a                                           
   -0.012161  4a 8a -> 9a 15a                                           
   -0.013899  4a 8a -> 9a 32a                                           
   -0.010933  4a 8a -> 12a 35a                                          

 ************************ 2021-07-13 17:47:16 *************************
 Executing goldstone...

 Generation of MRCC equations in terms of H and T...
 Generation of antisymmetrized Goldstone diagrams...
 Number of diagrams in T^1 equations:    15
 Number of diagrams in T^2 equations:    38
 Number of diagrams in T^3 equations:    49
 Number of diagrams in T^4 equations:     5
 Translation of diagrams to factorized equations...
 Number of restricted diagrams in T^1 equations:     78
 Number of restricted diagrams in T^2 equations:    344
 Number of restricted diagrams in T^3 equations:    822
 Number of restricted diagrams in T^4 equations:     86
 Optimizing intermediate calculation...
 Number of floating-point operations per iteration step:   2.8535E+13
 Probable CPU time per iteration step (hours):    285.35
 Required memory (Mbytes):   67064.6
 Number of intermediates:                                 532
 Number of intermediates to be stored:                    223
 Length of intermediate file (Mbytes):    2206.1

 ************************ 2021-07-13 17:47:17 *************************
 Executing xmrcc...

 **********************************************************************
 MRCC(                     4 ) calculation 
 
 
 Allocation of****** Mbytes of memory...
 Number of spinorbitals:                   240
 Number of alpha electrons:                        8
 Number of beta electrons:                         8
 Number of active particles:                   112
 Number of active holes:                         0
 Spin multiplicity:                     1
 z-component of spin:  0.0
 Spatial symmetry:                      1
 Convergence criterion:  1.0E-05
 Construction of occupation graphs...
 Number of                     0 -fold excitations:                      1
 Number of                     1 -fold excitations:                    276
 Number of                     2 -fold excitations:                 147696
 Number of                     3 -fold excitations:               42261924
 Total number of configurations:               42409897
 Calculation of coupling coefficients...
 Length of intermediate file (Mbytes):    1529.3
 
 ======================================================================
 
 Spin case  1   Alpha:  0   Beta:  4
 Number of excitations:                3213058
 Spin case  2   Alpha:  1   Beta:  3
 Number of excitations:               86900920
 Spin case  3   Alpha:  2   Beta:  2
 Number of excitations:              232492576
 Spin case  4   Alpha:  0   Beta:  4
 Number of excitations:               13568178
 Spin case  5   Alpha:  1   Beta:  3
 Number of excitations:               86906280
 Spin case  6   Alpha:  1   Beta:  3
 Number of excitations:              270335920
 Spin case  7   Alpha:  2   Beta:  2
 Number of excitations:              473409184
 Spin case  8   Alpha:  0   Beta:  4
 Number of excitations:               20731940
 Spin case  9   Alpha:  1   Beta:  3
 Number of excitations:              270358992
 Spin case 10   Alpha:  1   Beta:  3
 Number of excitations:              270370640
 Spin case 11   Alpha:  2   Beta:  2
 Number of excitations:              232455200
 Spin case 12   Alpha:  2   Beta:  2
 Number of excitations:              964006784
 Spin case 13   Alpha:  0   Beta:  4
 Number of excitations:               13576898
 Spin case 14   Alpha:  1   Beta:  3
 Number of excitations:              270385840
 Spin case 15   Alpha:  1   Beta:  3
 Number of excitations:               86922920
 Spin case 16   Alpha:  2   Beta:  2
 Number of excitations:              473345824
 Spin case 17   Alpha:  0   Beta:  4
 Number of excitations:                3215358
 Spin case 18   Alpha:  1   Beta:  3
 Number of excitations:               86923800
 Spin case 19   Alpha:  2   Beta:  2
 Number of excitations:              232443040
 Number of                     4 -fold excitations:             6754184304
 
 Memory requirements /Mbyte/: 
               Minimal        Optimal
 Real*8:        716.8171      1582.2046
 Integer:      2260.9291
 Total:        2977.7463      3843.1338
 

 ************************ 2021-07-13 17:49:49 *************************
 Executing mrcc...

 **********************************************************************
 CCSDT(Q) calculation                                                   
 
 
 OpenMP parallel version is running.
 Number of CPUs:  16
 Allocation of 1582.2 Mbytes of memory...
 Number of spinorbitals: 240
 Number of alpha electrons:  8
 Number of beta  electrons:  8
 Number of active particles:                   112
 Number of active holes:                         0
 Spin multiplicity: 1
 z-component of spin:  0.0
 Spatial symmetry: 1
 Convergence criterion:  1.0E-05
 Construction of occupation graphs...
 Number of 0-fold excitations: 1
 Number of 1-fold excitations: 276
 Number of 2-fold excitations: 147696
 Number of 3-fold excitations: 42261924
 Total number of determinants: 42409897
 Calculation of coupling coefficients...
 Initial cluster amplitudes are read from unit 16.
 Length of intermediate file (Mbytes):    1529.3
 Reading integral list from unit 55...
 Sorting integrals...
 Energy of reference determinant [au]:    -150.900521281479
 Calculation of MP denominators...
 
 Starting CC iteration...
 ======================================================================
 Norm of residual vector:     1.20645605
 CPU time [min]:   112.370                   Wall time [min]:     7.640
 
 Iteration  1  CC energy:  -151.53814292  Energy decrease:   0.00000026
 ======================================================================
 Norm of residual vector:     0.41844477
 CPU time [min]:   192.820                   Wall time [min]:    12.881
 
 Iteration  2  CC energy:  -151.54796552  Energy decrease:   0.00982260
 ======================================================================
 Norm of residual vector:     0.39749982
 CPU time [min]:   273.755                   Wall time [min]:    18.155
 
 Iteration  3  CC energy:  -151.55330744  Energy decrease:   0.00534192
 ======================================================================
 Norm of residual vector:     0.32830551
 CPU time [min]:   355.129                   Wall time [min]:    23.455
 
 Iteration  4  CC energy:  -151.57518806  Energy decrease:   0.02188062
 ======================================================================
 Norm of residual vector:     0.17217743
 CPU time [min]:   437.250                   Wall time [min]:    28.794
 
 Iteration  5  CC energy:  -151.59724127  Energy decrease:   0.02205321
 ======================================================================
 Norm of residual vector:     0.11453251
 CPU time [min]:   522.168                   Wall time [min]:    34.313
 
 Iteration  6  CC energy:  -151.60922785  Energy decrease:   0.01198658
 ======================================================================
 Norm of residual vector:     0.07968304
 CPU time [min]:   606.185                   Wall time [min]:    39.769
 
 Iteration  7  CC energy:  -151.61902216  Energy decrease:   0.00979431
 ======================================================================
 Norm of residual vector:     0.06763885
 CPU time [min]:   690.716                   Wall time [min]:    45.267
 
 Iteration  8  CC energy:  -151.62954446  Energy decrease:   0.01052230
 ======================================================================
 Norm of residual vector:     0.05939685
 CPU time [min]:   776.538                   Wall time [min]:    50.834
 
 Iteration  9  CC energy:  -151.64143612  Energy decrease:   0.01189166
 ======================================================================
 Norm of residual vector:     0.05128305
 CPU time [min]:   862.909                   Wall time [min]:    56.431
 
 Iteration 10  CC energy:  -151.65265693  Energy decrease:   0.01122081
 ======================================================================
 Norm of residual vector:     0.02613451
 CPU time [min]:   950.283                   Wall time [min]:    62.098
 
 Iteration 11  CC energy:  -151.65450577  Energy decrease:   0.00184884
 ======================================================================
 Norm of residual vector:     0.01211527
 CPU time [min]:  1039.358                   Wall time [min]:    67.879
 
 Iteration 12  CC energy:  -151.65690376  Energy decrease:   0.00239799
 ======================================================================
 Norm of residual vector:     0.00695433
 CPU time [min]:  1128.384                   Wall time [min]:    73.667
 
 Iteration 13  CC energy:  -151.65652738  Energy decrease:   0.00037639
 ======================================================================
 Norm of residual vector:     0.00293577
 CPU time [min]:  1219.330                   Wall time [min]:    79.563
 
 Iteration 14  CC energy:  -151.65673312  Energy decrease:   0.00020574
 ======================================================================
 Norm of residual vector:     0.00126942
 CPU time [min]:  1311.042                   Wall time [min]:    85.510
 
 Iteration 15  CC energy:  -151.65686001  Energy decrease:   0.00012689
 ======================================================================
 Norm of residual vector:     0.00063640
 CPU time [min]:  1402.863                   Wall time [min]:    91.460
 
 Iteration 16  CC energy:  -151.65682149  Energy decrease:   0.00003851
 ======================================================================
 Norm of residual vector:     0.00033039
 CPU time [min]:  1500.146                   Wall time [min]:    97.882
 
 Iteration 17  CC energy:  -151.65681417  Energy decrease:   0.00000732
 ======================================================================
 Norm of residual vector:     0.00015862
 CPU time [min]:  1593.957                   Wall time [min]:   103.983
 
 Iteration 18  CC energy:  -151.65684275  Energy decrease:   0.00002858
 ======================================================================
 Norm of residual vector:     0.00009917
 CPU time [min]:  1687.820                   Wall time [min]:   110.058
 
 Iteration 19  CC energy:  -151.65683668  Energy decrease:   0.00000608
 ======================================================================
 Norm of residual vector:     0.00004596
 CPU time [min]:  1782.971                   Wall time [min]:   116.216
 
 Iteration 20  CC energy:  -151.65683135  Energy decrease:   0.00000532
 ======================================================================
 Norm of residual vector:     0.00002588
 CPU time [min]:  1878.634                   Wall time [min]:   122.409
 
 Iteration 21  CC energy:  -151.65683176  Energy decrease:   0.00000041
 ======================================================================
 Norm of residual vector:     0.00001131
 CPU time [min]:  1976.206                   Wall time [min]:   128.719
 
 Iteration 22  CC energy:  -151.65683492  Energy decrease:   0.00000316
 ======================================================================
 Norm of residual vector:     0.00000692
 CPU time [min]:  2053.823                   Wall time [min]:   133.745
 
 Iteration 23  CC energy:  -151.65683527  Energy decrease:   0.00000035
 ======================================================================
 
 Iteration has converged in 23 steps.
 
 Final results:
 Total CCSDT energy [au]:           -151.656835267848
 
 Perturbative corrections are calculated...
 ======================================================================
 Spin case  1   Alpha:  0   Beta:  4
 Number of excitations:        3213058
 CPU time [min]:  2063.302                   Wall time [min]:   134.564
 ======================================================================
 Spin case  2   Alpha:  1   Beta:  3
 Number of excitations:        86900920
 CPU time [min]:  2123.896                   Wall time [min]:   138.809
 ======================================================================
 Spin case  3   Alpha:  2   Beta:  2
 Number of excitations:        232492576
 CPU time [min]:  2242.153                   Wall time [min]:   147.036
 ======================================================================
 Spin case  4   Alpha:  0   Beta:  4
 Number of excitations:        13568178
 CPU time [min]:  2261.742                   Wall time [min]:   148.473
 ======================================================================
 Spin case  5   Alpha:  1   Beta:  3
 Number of excitations:        86906280
 CPU time [min]:  2318.223                   Wall time [min]:   152.301
 ======================================================================
 Spin case  6   Alpha:  1   Beta:  3
 Number of excitations:        270335920
 CPU time [min]:  2499.647                   Wall time [min]:   164.582
 ======================================================================
 Spin case  7   Alpha:  2   Beta:  2
 Number of excitations:        473409184
 CPU time [min]:  2734.777                   Wall time [min]:   180.153
 ======================================================================
 Spin case  8   Alpha:  0   Beta:  4
 Number of excitations:        20731940
 CPU time [min]:  2764.324                   Wall time [min]:   182.339
 ======================================================================
 Spin case  9   Alpha:  1   Beta:  3
 Number of excitations:        270358992
 CPU time [min]:  2943.244                   Wall time [min]:   194.366
 ======================================================================
 Spin case 10   Alpha:  1   Beta:  3
 Number of excitations:        270370640
 CPU time [min]:  3118.725                   Wall time [min]:   205.980
 ======================================================================
 Spin case 11   Alpha:  2   Beta:  2
 Number of excitations:        232455200
 CPU time [min]:  3223.053                   Wall time [min]:   213.090
 ======================================================================
 Spin case 12   Alpha:  2   Beta:  2
 Number of excitations:        964006784
 CPU time [min]:  3701.264                   Wall time [min]:   244.402
 ======================================================================
 Spin case 13   Alpha:  0   Beta:  4
 Number of excitations:        13576898
 CPU time [min]:  3720.606                   Wall time [min]:   245.745
 ======================================================================
 Spin case 14   Alpha:  1   Beta:  3
 Number of excitations:        270385840
 CPU time [min]:  3899.743                   Wall time [min]:   257.558
 ======================================================================
 Spin case 15   Alpha:  1   Beta:  3
 Number of excitations:        86922920
 CPU time [min]:  3954.408                   Wall time [min]:   261.504
 ======================================================================
 Spin case 16   Alpha:  2   Beta:  2
 Number of excitations:        473345824
 CPU time [min]:  4179.520                   Wall time [min]:   276.673
 ======================================================================
 Spin case 17   Alpha:  0   Beta:  4
 Number of excitations:        3215358
 CPU time [min]:  4184.469                   Wall time [min]:   277.016
 ======================================================================
 Spin case 18   Alpha:  1   Beta:  3
 Number of excitations:        86923800
 CPU time [min]:  4243.783                   Wall time [min]:   281.091
 ======================================================================
 Spin case 19   Alpha:  2   Beta:  2
 Number of excitations:        232443040
 CPU time [min]:  4357.592                   Wall time [min]:   288.837
 ======================================================================
 Number of 4-fold excitations: 6754184304
 CPU time [min]:  4357.592                   Wall time [min]:   288.837
 
 Total CCSDT[Q] energy [au]:        -151.626643626389
 Total CCSDT(Q) energy [au]:        -151.702911709777
 
 Dominant cluster amplitudes
 Printing threshold:  1.00E-02
 
    1.000000  Reference determinant                                     
    0.504076  6b -> 9b                                                  
    0.028206  6b -> 19b                                                 
    0.010473  6b -> 44b                                                 
   -0.026521  5b -> 17b                                                 
    0.028093  5b -> 26b                                                 
   -0.051458  5b -> 31b                                                 
    0.033539  8b -> 22b                                                 
   -0.040569  8b -> 35b                                                 
    0.015037  8b -> 59b                                                 
    0.034015  4b -> 12b                                                 
    0.013670  3b -> 30b                                                 
    0.019036  2b -> 32b                                                 
    0.067964  7b -> 15b                                                 
   -0.043563  7b -> 23b                                                 
    0.035332  7b -> 39b                                                 
   -0.017345  7b -> 48b                                                 
   -0.014880  7b -> 56b                                                 
    0.504076  6a -> 9a                                                  
    0.028206  6a -> 19a                                                 
    0.010473  6a -> 44a                                                 
   -0.026521  5a -> 17a                                                 
    0.028093  5a -> 26a                                                 
   -0.051458  5a -> 31a                                                 
    0.033539  8a -> 22a                                                 
   -0.040569  8a -> 35a                                                 
    0.015037  8a -> 59a                                                 
    0.034015  4a -> 12a                                                 
    0.013670  3a -> 30a                                                 
    0.019036  2a -> 32a                                                 
    0.067964  7a -> 15a                                                 
   -0.043563  7a -> 23a                                                 
    0.035332  7a -> 39a                                                 
   -0.017345  7a -> 48a                                                 
   -0.014880  7a -> 56a                                                 
    0.014529  2b 7b -> 9b 28b                                           
    0.013043  2b 7b -> 9b 29b                                           
   -0.012151  5b 6b -> 11b 15b                                          
    0.012666  5b 6b -> 11b 20b                                          
    0.014111  5b 6b -> 9b 31b                                           
   -0.023283  5b 6b -> 11b 32b                                          
   -0.012840  5b 6b -> 24b 32b                                          
   -0.011239  4b 7b -> 10b 17b                                          
   -0.014162  4b 7b -> 10b 31b                                          
   -0.011842  4b 7b -> 9b 35b                                           
    0.011602  6b 8b -> 12b 32b                                          
   -0.017578  3b 4b -> 9b 10b                                           
   -0.013630  3b 4b -> 10b 16b                                          
   -0.010014  3b 4b -> 10b 36b                                          
   -0.026872  5b 8b -> 11b 12b                                          
    0.014866  5b 8b -> 12b 13b                                          
   -0.012460  5b 8b -> 11b 18b                                          
   -0.014804  5b 8b -> 11b 27b                                          
   -0.010575  5b 8b -> 32b 33b                                          
   -0.013266  4b 5b -> 12b 31b                                          
   -0.017751  4b 5b -> 10b 32b                                          
    0.027812  4b 6b -> 10b 11b                                          
    0.020732  4b 6b -> 9b 12b                                           
    0.016565  4b 6b -> 10b 24b                                          
   -0.020793  4b 6b -> 10b 30b                                          
   -0.022369  2b 8b -> 9b 12b                                           
   -0.010197  2b 8b -> 9b 27b                                           
    0.093793  7b 8b -> 9b 12b                                           
    0.028870  7b 8b -> 9b 18b                                           
    0.029481  7b 8b -> 9b 27b                                           
   -0.010965  7b 8b -> 12b 28b                                          
   -0.014873  7b 8b -> 12b 29b                                          
   -0.013218  7b 8b -> 9b 34b                                           
   -0.010323  7b 8b -> 9b 47b                                           
   -0.014014  2b 5b -> 9b 11b                                           
   -0.011660  3b 6b -> 9b 30b                                           
   -0.023167  5b 7b -> 9b 11b                                           
   -0.015812  5b 7b -> 9b 13b                                           
    0.011135  5b 7b -> 11b 28b                                          
    0.011565  5b 7b -> 11b 29b                                          
   -0.017704  5b 7b -> 9b 30b                                           
   -0.010288  3b 5b -> 9b 32b                                           
   -0.013341  2b 6b -> 9b 32b                                           
    0.012273  6b 7b -> 9b 15b                                           
   -0.012945  6b 7b -> 9b 23b                                           
    0.011834  6b 7b -> 9b 39b                                           
   -0.010455  4b 8b -> 10b 33b                                          
   -0.011758  4b 8b -> 12b 35b                                          
   -0.012569  1a 1b -> 29a 29b                                          
    0.019343  6a 1b -> 9a 9b                                            
    0.019343  1a 6b -> 9a 9b                                            
   -0.046512  6a 6b -> 9a 9b                                            
   -0.014353  6a 6b -> 14a 9b                                           
   -0.017404  6a 6b -> 19a 9b                                           
    0.012940  6a 6b -> 37a 9b                                           
   -0.014353  6a 6b -> 9a 14b                                           
   -0.017447  6a 6b -> 14a 14b                                          
   -0.017404  6a 6b -> 9a 19b                                           
    0.012940  6a 6b -> 9a 37b                                           
    0.019473  5a 5b -> 9a 9b                                            
    0.025276  8a 8b -> 9a 9b                                            
    0.010550  8a 8b -> 14a 9b                                           
    0.020419  8a 8b -> 16a 9b                                           
   -0.014143  8a 8b -> 19a 9b                                           
   -0.014095  8a 8b -> 29a 9b                                           
    0.016378  8a 8b -> 36a 9b                                           
   -0.012773  8a 8b -> 37a 9b                                           
    0.010550  8a 8b -> 9a 14b                                           
    0.020419  8a 8b -> 9a 16b                                           
   -0.014143  8a 8b -> 9a 19b                                           
   -0.014095  8a 8b -> 9a 29b                                           
    0.016378  8a 8b -> 9a 36b                                           
   -0.012773  8a 8b -> 9a 37b                                           
   -0.014179  4a 4b -> 9a 9b                                            
   -0.014555  4a 4b -> 16a 16b                                          
   -0.029792  3a 3b -> 9a 9b                                            
   -0.011783  3a 3b -> 19a 9b                                           
   -0.011783  3a 3b -> 9a 19b                                           
    0.012902  2a 2b -> 9a 9b                                            
   -0.011050  2a 2b -> 29a 9b                                           
   -0.011050  2a 2b -> 9a 29b                                           
   -0.014955  2a 2b -> 29a 29b                                          
    0.016506  7a 2b -> 9a 9b                                            
    0.015902  7a 2b -> 14a 9b                                           
    0.020561  7a 2b -> 28a 9b                                           
    0.017548  7a 2b -> 29a 9b                                           
    0.010351  7a 2b -> 49a 9b                                           
    0.011196  7a 2b -> 9a 14b                                           
    0.016506  2a 7b -> 9a 9b                                            
    0.011196  2a 7b -> 14a 9b                                           
    0.015902  2a 7b -> 9a 14b                                           
    0.020561  2a 7b -> 9a 28b                                           
    0.017548  2a 7b -> 9a 29b                                           
    0.010351  2a 7b -> 9a 49b                                           
   -1.534425  7a 7b -> 9a 9b                                            
[...]
    0.018047  5a 4b 7b -> 9a 9b 10b                                     
    0.010958  5a 4b 7b -> 9a 9b 21b                                     
    0.015078  7a 4b 5b -> 9a 9b 10b                                     
    0.056792  6a 7b 8b -> 9a 9b 12b                                     
    0.021819  6a 7b 8b -> 9a 9b 18b                                     
    0.024225  6a 7b 8b -> 9a 9b 27b                                     
    0.015744  7a 2b 4b -> 9a 9b 12b                                     
   -0.017507  2a 4b 7b -> 9a 9b 12b                                     
   -0.037831  7a 4b 7b -> 9a 10b 11b                                    
   -0.042616  7a 4b 7b -> 9a 9b 12b                                     
   -0.010194  7a 4b 7b -> 14a 9b 12b                                    
   -0.014067  7a 4b 7b -> 9a 10b 13b                                    
   -0.016906  7a 4b 7b -> 9a 9b 18b                                     
    0.011617  7a 4b 7b -> 9a 11b 21b                                    
   -0.016034  7a 4b 7b -> 9a 10b 24b                                    
   -0.021427  7a 4b 7b -> 9a 9b 27b                                     
   -0.018094  7a 4b 7b -> 9a 9b 34b                                     
    0.053055  7a 6b 8b -> 9a 9b 12b                                     
    0.020287  7a 6b 8b -> 9a 9b 18b                                     
    0.021049  7a 6b 8b -> 9a 9b 27b                                     
    0.011196  8a 4b 8b -> 10a 10b 12b                                   
    0.015139  7a 4b 7b -> 10a 9b 11b                                    
    0.015822  7a 4b 7b -> 10a 9b 13b                                    
    0.011321  7a 4b 7b -> 10a 9b 30b                                    
    0.012127  8a 6b 7b -> 11a 11b 12b                                   
    0.052969  7a 4b 7b -> 11a 9b 10b                                    
    0.029889  7a 4b 7b -> 13a 9b 10b                                    
    0.022274  7a 4b 7b -> 24a 9b 10b                                    
    0.015482  7a 4b 7b -> 11a 9b 21b                                    
    0.012541  7a 4b 7b -> 13a 9b 21b                                    
   -0.043318  6a 5b 7b -> 9a 9b 11b                                     
   -0.025564  6a 5b 7b -> 9a 9b 13b                                     
   -0.015488  6a 5b 7b -> 9a 9b 24b                                     
   -0.014836  6a 5b 7b -> 9a 9b 30b                                     
    0.011627  5a 1b 7b -> 9a 9b 30b                                     
   -0.024517  5a 6b 7b -> 9a 9b 11b                                     
   -0.015998  5a 6b 7b -> 9a 9b 13b                                     
   -0.013137  5a 6b 7b -> 9a 9b 24b                                     
   -0.018800  7a 5b 6b -> 9a 9b 11b                                     
   -0.017862  7a 5b 6b -> 9a 9b 30b                                     
    0.014850  2a 3b 7b -> 9a 9b 13b                                     
    0.015322  2a 3b 7b -> 9a 9b 30b                                     
    0.047348  7a 3b 7b -> 9a 9b 11b                                     
   -0.013642  7a 3b 7b -> 37a 9b 11b                                    
    0.028409  7a 3b 7b -> 9a 9b 13b                                     
    0.012051  7a 3b 7b -> 14a 9b 13b                                    
    0.012713  7a 3b 7b -> 19a 9b 13b                                    
    0.023966  7a 3b 7b -> 9a 9b 24b                                     
   -0.012029  7a 3b 7b -> 31a 9b 32b                                    
   -0.021265  7a 3b 7b -> 10a 9b 12b                                    
   -0.017543  7a 3b 7b -> 10a 9b 34b                                    
   -0.028155  7a 3b 7b -> 12a 9b 10b                                    
   -0.010451  7a 3b 7b -> 18a 9b 10b                                    
   -0.011236  7a 3b 7b -> 27a 9b 10b                                    
   -0.022116  7a 3b 7b -> 34a 9b 10b                                    
    0.013700  7a 3b 7b -> 11a 9b 14b                                    
    0.011640  7a 3b 7b -> 13a 9b 14b                                    
    0.010481  7a 3b 7b -> 24a 9b 14b                                    
   -0.010150  7a 3b 7b -> 11a 9b 16b                                    
    0.010845  5a 5b 7b -> 9a 9b 32b                                     
   -0.010678  5a 5b 7b -> 9a 9b 39b                                     
   -0.013313  8a 7b 8b -> 9a 9b 15b                                     
   -0.011209  8a 7b 8b -> 9a 9b 23b                                     
    0.012293  8a 7b 8b -> 9a 9b 41b                                     
   -0.010939  2a 2b 7b -> 9a 9b 39b                                     
    0.025105  7a 2b 7b -> 9a 9b 15b                                     
   -0.014338  7a 2b 7b -> 9a 11b 31b                                    
    0.035662  7a 2b 7b -> 9a 9b 32b                                     
    0.010760  7a 2b 7b -> 9a 9b 41b                                     
   -0.013613  2a 7a 6b -> 9a 29a 9b                                     
   -0.012588  6a 7a 2b -> 9a 14a 9b                                     
    0.010955  1a 2a 7b -> 9a 29a 9b                                     
    0.018925  2a 6a 7b -> 9a 14a 9b                                     
   -0.010562  2a 6a 7b -> 9a 28a 9b                                     
   -0.021708  2a 6a 7b -> 9a 29a 9b                                     
    0.015336  6a 7a 7b -> 9a 16a 9b                                     
   -0.016316  6a 7a 7b -> 9a 19a 9b                                     
   -0.018453  6a 7a 7b -> 9a 29a 9b                                     
    0.017499  6a 7a 7b -> 9a 37a 9b                                     
   -0.012706  6a 7a 7b -> 9a 14a 14b                                    
   -0.017599  6a 7a 7b -> 9a 14a 19b                                    
    0.015830  1a 7a 7b -> 9a 10a 10b                                    
   -0.054000  6a 7a 7b -> 9a 10a 10b                                    
   -0.011552  6a 7a 7b -> 9a 21a 10b                                    
   -0.011575  6a 7a 7b -> 9a 43a 10b                                    
   -0.012979  6a 7a 7b -> 9a 10a 21b                                    
   -0.010526  6a 7a 7b -> 9a 10a 43b                                    
   -0.014631  4a 8a 7b -> 9a 10a 10b                                    
   -0.015497  6a 7a 7b -> 9a 34a 12b                                    
   -0.010555  6a 7a 7b -> 9a 12a 34b                                    
   -0.013467  6a 7a 7b -> 9a 34a 34b                                    
   -0.077925  6a 7a 7b -> 9a 11a 11b                                    
   -0.019281  6a 7a 7b -> 9a 13a 11b                                    
   -0.036408  6a 7a 7b -> 9a 24a 11b                                    
    0.015660  6a 7a 7b -> 9a 25a 11b                                    
    0.034134  6a 7a 7b -> 9a 30a 11b                                    
   -0.028388  6a 7a 7b -> 9a 11a 13b                                    
   -0.014314  6a 7a 7b -> 9a 13a 13b                                    
   -0.020459  6a 7a 7b -> 9a 24a 13b                                    
    0.015797  6a 7a 7b -> 9a 30a 13b                                    
   -0.032088  6a 7a 7b -> 9a 11a 24b                                    
   -0.016437  6a 7a 7b -> 9a 13a 24b                                    
   -0.018757  6a 7a 7b -> 9a 24a 24b                                    
    0.014585  6a 7a 7b -> 9a 30a 24b                                    
    0.016407  6a 7a 7b -> 9a 11a 25b                                    
    0.024609  6a 7a 7b -> 9a 11a 30b                                    
    0.010461  6a 7a 7b -> 9a 13a 30b                                    
    0.010319  6a 7a 7b -> 9a 24a 30b                                    
   -0.010577  6a 7a 7b -> 9a 11a 53b                                    
   -0.016958  6a 7a 7b -> 9a 32a 32b                                    
   -0.010370  2a 7a 5b -> 9a 17a 9b                                     
   -0.017097  2a 7a 5b -> 9a 31a 9b                                     
    0.014680  3a 7a 6b -> 9a 31a 9b                                     
   -0.019038  5a 7a 2b -> 9a 17a 9b                                     
   -0.024284  5a 7a 2b -> 9a 31a 9b                                     
    0.022521  5a 7a 7b -> 11a 15a 9b                                    
   -0.018758  5a 7a 7b -> 9a 17a 9b                                     
    0.010271  5a 7a 7b -> 17a 19a 9b                                    
   -0.012132  5a 7a 7b -> 11a 20a 9b                                    
    0.034022  5a 7a 7b -> 9a 26a 9b                                     
   -0.053079  5a 7a 7b -> 9a 31a 9b                                     
    0.029226  5a 7a 7b -> 11a 32a 9b                                    
    0.011974  5a 7a 7b -> 13a 32a 9b                                    
    0.013867  5a 7a 7b -> 24a 32a 9b                                    
   -0.015995  5a 7a 7b -> 9a 40a 9b                                     
   -0.011565  5a 7a 7b -> 9a 31a 14b                                    
   -0.011204  5a 7a 7b -> 9a 17a 19b                                    
    0.012949  5a 7a 7b -> 9a 33a 12b                                    
   -0.010231  5a 7a 7b -> 9a 11a 15b                                    
    0.012290  5a 7a 7b -> 9a 15a 11b                                    
   -0.013393  5a 7a 7b -> 9a 20a 11b                                    
    0.025013  5a 7a 7b -> 9a 32a 11b                                    
    0.015084  5a 7a 7b -> 9a 32a 13b                                    
    0.012834  5a 7a 7b -> 9a 32a 24b                                    
    0.019440  7a 8a 2b -> 9a 35a 9b                                     
   -0.010413  7a 8a 7b -> 12a 15a 9b                                    
   -0.022748  7a 8a 7b -> 9a 22a 9b                                     
    0.011545  7a 8a 7b -> 12a 23a 9b                                    
   -0.017699  7a 8a 7b -> 11a 33a 9b                                    
    0.032434  7a 8a 7b -> 9a 35a 9b                                     
    0.010186  7a 8a 7b -> 9a 22a 19b                                    
   -0.011942  7a 8a 7b -> 9a 10a 31b                                    
   -0.019000  7a 8a 7b -> 9a 33a 11b                                    
    0.016762  7a 8a 7b -> 9a 12a 15b                                    
   -0.010386  7a 8a 7b -> 9a 41a 12b                                    
    0.018047  4a 7a 5b -> 9a 10a 9b                                     
    0.010958  4a 7a 5b -> 9a 21a 9b                                     
    0.015078  4a 5a 7b -> 9a 10a 9b                                     
    0.052969  4a 7a 7b -> 9a 10a 11b                                    
    0.015482  4a 7a 7b -> 9a 21a 11b                                    
    0.029889  4a 7a 7b -> 9a 10a 13b                                    
    0.012541  4a 7a 7b -> 9a 21a 13b                                    
    0.022274  4a 7a 7b -> 9a 10a 24b                                    
    0.012127  6a 7a 8b -> 11a 12a 11b                                   
   -0.017507  4a 7a 2b -> 9a 12a 9b                                     
    0.015744  2a 4a 7b -> 9a 12a 9b                                     
   -0.037831  4a 7a 7b -> 10a 11a 9b                                    
   -0.042616  4a 7a 7b -> 9a 12a 9b                                     
   -0.014067  4a 7a 7b -> 10a 13a 9b                                    
   -0.016906  4a 7a 7b -> 9a 18a 9b                                     
    0.011617  4a 7a 7b -> 11a 21a 9b                                    
   -0.016034  4a 7a 7b -> 10a 24a 9b                                    
   -0.021427  4a 7a 7b -> 9a 27a 9b                                     
   -0.018094  4a 7a 7b -> 9a 34a 9b                                     
   -0.010194  4a 7a 7b -> 9a 12a 14b                                    
    0.053055  6a 8a 7b -> 9a 12a 9b                                     
    0.020287  6a 8a 7b -> 9a 18a 9b                                     
    0.021049  6a 8a 7b -> 9a 27a 9b                                     
    0.056792  7a 8a 6b -> 9a 12a 9b                                     
    0.021819  7a 8a 6b -> 9a 18a 9b                                     
    0.024225  7a 8a 6b -> 9a 27a 9b                                     
    0.015139  4a 7a 7b -> 9a 11a 10b                                    
    0.015822  4a 7a 7b -> 9a 13a 10b                                    
    0.011321  4a 7a 7b -> 9a 30a 10b                                    
    0.011196  4a 8a 8b -> 10a 12a 10b                                   
    0.013700  3a 7a 7b -> 9a 14a 11b                                    
   -0.010150  3a 7a 7b -> 9a 16a 11b                                    
    0.011640  3a 7a 7b -> 9a 14a 13b                                    
    0.010481  3a 7a 7b -> 9a 14a 24b                                    
   -0.028155  3a 7a 7b -> 9a 10a 12b                                    
   -0.010451  3a 7a 7b -> 9a 10a 18b                                    
   -0.011236  3a 7a 7b -> 9a 10a 27b                                    
   -0.022116  3a 7a 7b -> 9a 10a 34b                                    
   -0.021265  3a 7a 7b -> 9a 12a 10b                                    
   -0.017543  3a 7a 7b -> 9a 34a 10b                                    
    0.014850  3a 7a 2b -> 9a 13a 9b                                     
    0.015322  3a 7a 2b -> 9a 30a 9b                                     
   -0.018800  5a 6a 7b -> 9a 11a 9b                                     
   -0.017862  5a 6a 7b -> 9a 30a 9b                                     
    0.047348  3a 7a 7b -> 9a 11a 9b                                     
    0.028409  3a 7a 7b -> 9a 13a 9b                                     
    0.023966  3a 7a 7b -> 9a 24a 9b                                     
    0.012051  3a 7a 7b -> 9a 13a 14b                                    
    0.012713  3a 7a 7b -> 9a 13a 19b                                    
   -0.013642  3a 7a 7b -> 9a 11a 37b                                    
   -0.043318  5a 7a 6b -> 9a 11a 9b                                     
   -0.025564  5a 7a 6b -> 9a 13a 9b                                     
   -0.015488  5a 7a 6b -> 9a 24a 9b                                     
   -0.014836  5a 7a 6b -> 9a 30a 9b                                     
    0.011627  1a 7a 5b -> 9a 30a 9b                                     
   -0.024517  6a 7a 5b -> 9a 11a 9b                                     
   -0.015998  6a 7a 5b -> 9a 13a 9b                                     
   -0.013137  6a 7a 5b -> 9a 24a 9b                                     
   -0.012029  3a 7a 7b -> 9a 32a 31b                                    
   -0.010939  2a 7a 2b -> 9a 39a 9b                                     
    0.025105  2a 7a 7b -> 9a 15a 9b                                     
   -0.014338  2a 7a 7b -> 11a 31a 9b                                    
    0.035662  2a 7a 7b -> 9a 32a 9b                                     
    0.010760  2a 7a 7b -> 9a 41a 9b                                     
   -0.013313  7a 8a 8b -> 9a 15a 9b                                     
   -0.011209  7a 8a 8b -> 9a 23a 9b                                     
    0.012293  7a 8a 8b -> 9a 41a 9b                                     
    0.010845  5a 7a 5b -> 9a 32a 9b                                     
   -0.010678  5a 7a 5b -> 9a 39a 9b                                     

 ************************ 2021-07-13 22:38:43 *************************
 Executing goldstone...

 Generation of MRCC equations in terms of H and T...
 Generation of antisymmetrized Goldstone diagrams...
 Number of diagrams in T^1 equations:    15
 Number of diagrams in T^2 equations:    38
 Number of diagrams in T^3 equations:    53
 Number of diagrams in T^4 equations:    74
 Translation of diagrams to factorized equations...
 Number of restricted diagrams in T^1 equations:     30
 Number of restricted diagrams in T^2 equations:    129
 Number of restricted diagrams in T^3 equations:    302
 Number of restricted diagrams in T^4 equations:    633
 Optimizing intermediate calculation...
 Number of floating-point operations per iteration step:   2.2075E+14
 Probable CPU time per iteration step (hours):   2207.54
 Required memory (Mbytes):   67083.1
 Number of intermediates:                                 414
 Number of intermediates to be stored:                    153
 Length of intermediate file (Mbytes):  132751.5

 ************************ 2021-07-13 22:38:44 *************************
 Executing xmrcc...

 **********************************************************************
 MRCC(                     4 ) calculation 
 
 
 Allocation of****** Mbytes of memory...
 Number of spinorbitals:                   240
 Number of alpha electrons:                        8
 Number of beta electrons:                         8
 Number of active particles:                   112
 Number of active holes:                         0
 Spin multiplicity:                     1
 z-component of spin:  0.0
 Spatial symmetry:                      1
 Convergence criterion:  1.0E-05
 Construction of occupation graphs...
 Number of                     0 -fold excitations:                      1
 Number of                     1 -fold excitations:                    276
 Number of                     2 -fold excitations:                 147696
 Number of                     3 -fold excitations:               42261924
 Number of                     4 -fold excitations:             6754184304
 Total number of configurations:             6796594201
 Calculation of coupling coefficients...
 Length of intermediate file (Mbytes):   98232.1
 
 ======================================================================
 
 Memory requirements /Mbyte/: 
               Minimal        Optimal
 Real*8:     125041.0338    125041.0338
 Integer:      2400.5994
 Total:      127441.6331    127441.6331
 

 ************************ 2021-07-13 22:43:48 *************************
 Executing mrcc...

 **********************************************************************
 CCSDTQ calculation                                                     
 
 
 OpenMP parallel version is running.
 Number of CPUs:  16
 Allocation of******* Mbytes of memory...
 Number of spinorbitals: 240
 Number of alpha electrons:  8
 Number of beta  electrons:  8
 Number of active particles:                   112
 Number of active holes:                         0
 Spin multiplicity: 1
 z-component of spin:  0.0
 Spatial symmetry: 1
 Convergence criterion:  1.0E-05
 Construction of occupation graphs...
 Number of 0-fold excitations: 1
 Number of 1-fold excitations: 276
 Number of 2-fold excitations: 147696
 Number of 3-fold excitations: 42261924
 Number of 4-fold excitations: 6754184304
 Total number of determinants: 6796594201
 Calculation of coupling coefficients...
 Initial cluster amplitudes are read from unit 16.
 Length of intermediate file (Mbytes):   98232.1
 Reading integral list from unit 55...
 Sorting integrals...
 Energy of reference determinant [au]:    -150.900521281479
 Calculation of MP denominators...
 
 Starting CC iteration...
 ======================================================================
 Norm of residual vector:     0.62750584
 CPU time [min]: 16800.897                   Wall time [min]:  1550.046
 
 Iteration  1  CC energy:  -151.65683441  Energy decrease:   0.00000086
 ======================================================================
 Norm of residual vector:     0.20808937
 CPU time [min]: 33635.351                   Wall time [min]:  3088.436
 
 Iteration  2  CC energy:  -151.65047953  Energy decrease:   0.00635488
 ======================================================================
