 **********************************************************************
                          MRCC program system
 **********************************************************************
 
                              Written by
    Mihaly Kallay, Zoltan Rolik, Jozsef Csontos, Istvan Ladjanszki,
       Lorant Szegedy, Bence Ladoczki, Gyula Samu, Klara Petrov,
        Mate Farkas, Peter Nagy, David Mester, and Bence Hegely
 
        Department of Physical Chemistry and Materials Science
            Budapest University of Technology and Economics
                  Budapest P.O.Box 91, H-1521 Hungary
 
                              www.mrcc.hu

 ************************ 2017-03-04 00:58:12 *************************
 Executing minp...

 Reading input from MINP...
 
 Input file:
 
# TITLE
basis=aug-cc-pCV5Z-EMSL
uncontract=on
calc=CCSDT(Q)
mem=110GB
core=1
cctol=9
ccmaxit=999
scfmaxit=9999
scftype=ROHF
scfiguess=ao
rest=2
mult=3
geom
Si

 
 
 Checking keyword combinations...
 
 Keywords:
 
 active=none
 agrid=ld0006-ld0590
 basis=aug-cc-pcv5z-emsl
 basopt=off
 bpcompo=0.985
 bpcompv=0.98
 bpdfo=0.985
 bpocc=0.985
 bppdo=0.985
 bppdv=0.98
 bpedo=0.985
 bpedv=0.98
 calc=ccsdt(q)
 ccmaxit=999
 ccprog=mrcc
 cctol=9
 charge=0
 cialg=disk
 ciguess=off
 cmpgrp=auto
 core=1
 corembed=off
 dboc=off
 dendec=cholesky
 dens=0
 dfalg=invsqrt
 dfbasis_cor=none
 dfbasis_scf=none
 dfintran=ovirt
 dft=off
 diag=david
 domrad=10.d0
 drpaalg=fit
 ecp=auto
 edisp=off
 embed=off
 epert=none
 eps=0.975
 excrad=0.d0
 excrad_fin=0.000000000D+00
 freq=off
 gauss=spher
 geom=zmat
 gopt=off
 ghost=none
 gtol=7
 grtol=10
 hamilton=dc
 iface=none
 intalg=auto
 itol=13
 lcorthr=loose
 lccrest=off
 lmp2dens=on
 lnoepso=3e-5
 lnoepsv=1e-6
 localcc=off
 locintrf=disk
 maxact=off
 maxex=0
 bfbasis=none
 mem=110gb
 molden=on
 mulmet=0
 mult=3
 nacto=0
 nactv=0
 naf_cor=off
 naf_scf=off
 nafalg=albe
 naftyp=
 nchol=auto
 ndeps=1e-3
 nstate=1
 nsing=0
 ntrip=0
 occ=
 optalg=
 optmaxit=50
 optetol=1e-6
 optgtol=1e-4
 optstol=1e-3
 orblocc=off
 orbloco=off
 orblocv=off
 osveps=1e-3
 ovirt=off
 ovosnorb=80.0
 ptfreq=0.0
 popul=off
 pressure=100000
 qmmm=off
 refdet=none
 rest=2
 rgrid=log3
 rohftype=semicanonical
 scspe=1.d0
 scsps=1.2d0
 scspt=0.33333333333333
 scfalg=auto
 scfdamp=off
 scfdiis=on
 scfdiis_end=9999
 scfdiis_start=1
 scfdiis_step=1
 scfdtol=13
 scfext=10
 scfiguess=ao
 scflshift=off
 scfmaxit=9999
 scftype=rohf
 scftol=9
 spairtol=1e-4
 symm=
 talg=occ
 temp=298.15
 test=off
 tprint=off
 uncontract=on
 unit=angs
 verbosity=2
 wpairtol=0.100000000E-05

 ************************ 2017-03-04 00:58:13 *************************
 Executing integ...

 Allocation of 110.0 Gbytes of memory...
 
 Number of atoms:            1
 Charge:                     0
 Number of electrons:       14
 Number of core electrons:   2
 Spin multiplicity:          3
 
                 Cartesian coordinates [bohr]      Atomic mass [AMU]  Z
   1  Si    0.00000000    0.00000000    0.00000000    27.976927      14
 
 This molecule is a spherical top.
 
 Rotational constants [cm-1]: 

 
 Point group: Dxh 
 Computational point group: D2h 
 
 Cartesian coordinates in standard orientation [bohr]
   1  Si    0.00000000    0.00000000    0.00000000
 
 Nuclear repulsion energy [au]:          0.000000000000
 
 
 Basis set information:
 
 Maximum angular momentum: h
 Maximum number of contracted Gaussians:   21
 Maximum number of primitive Gaussians:    21
 Spherical harmonic GTOs are used.
 
    1  Si aug-cc-pcv5z-emsl [ 21s 13p 9d 7f 5g 3h | 21s 13p 9d 7f 5g 3h ]
 
 Total number of basis functions:   232
 
 
 Character table for point group D2h:
 
          E  C2z C2y C2x  i  Qxy Qxz Qyz 
    Ag    1   1   1   1   1   1   1   1
    B1g   1   1  -1  -1   1   1  -1  -1
    B2g   1  -1   1  -1   1  -1   1  -1
    B3g   1  -1  -1   1   1  -1  -1   1
    Au    1   1   1   1  -1  -1  -1  -1
    B1u   1   1  -1  -1  -1  -1   1   1
    B2u   1  -1   1  -1  -1   1  -1   1
    B3u   1  -1  -1   1  -1   1   1  -1
 
 Number of basis functions per irrep:
    Ag     54
    B1g    19
    B2g    19
    B3g    19
    Au     13
    B1u    36
    B2u    36
    B3u    36
 
 
 Calculation of overlap integrals...
 CPU time [min]:     0.060                   Wall time [min]:     0.033
 Calculation of kinetic energy integrals...
 CPU time [min]:     0.090                   Wall time [min]:     0.035
 Calculation of nuclear attraction integrals...
 CPU time [min]:     0.105                   Wall time [min]:     0.035
 
 Calculation of prescreening integrals...
 CPU time [min]:     1.551                   Wall time [min]:     0.101
 
 Calculation of two-electron integrals...
   4% done.
  20% done.
  54% done.
 100% done.
 CPU time [min]:    16.971                   Wall time [min]:     0.852

 ************************ 2017-03-04 00:59:05 *************************
 Executing scf...

 Allocation of 110.0 Gbytes of memory...
 ======================================================================
 ITERATION STEP   1
 CPU time [min]:     0.087                   Wall time [min]:     0.016
 
 ALPHA OCC:   3   1   1   0   0   1   1   1
 BETA  OCC:   3   0   0   0   0   1   1   1
 ***HARTREE-FOCK ENERGY IN STEP   1 IS ************************ [AU]
 ======================================================================
 ITERATION STEP   2
 CPU time [min]:     0.317                   Wall time [min]:     0.033
 
 ALPHA OCC:   3   0   0   0   0   2   1   2
 BETA  OCC:   3   0   0   0   0   1   1   1
 ***HARTREE-FOCK ENERGY IN STEP   2 IS     -21.9114324366053665 [AU]
 ======================================================================
 ITERATION STEP   3
 CPU time [min]:     0.493                   Wall time [min]:     0.046
 
 ALPHA OCC:   3   0   0   0   0   2   1   2
 BETA  OCC:   3   0   0   0   0   1   1   1
 ***HARTREE-FOCK ENERGY IN STEP   3 IS    -257.2437039218879704 [AU]
 ======================================================================
 ITERATION STEP   4
 CPU time [min]:     0.667                   Wall time [min]:     0.060
 
 ALPHA OCC:   3   0   0   0   0   2   1   2
 BETA  OCC:   3   0   0   0   0   1   1   1
 ***HARTREE-FOCK ENERGY IN STEP   4 IS    -261.5247077745875117 [AU]
 ======================================================================
 ITERATION STEP   5
 CPU time [min]:     0.821                   Wall time [min]:     0.072
 
 ALPHA OCC:   3   0   0   0   0   2   1   2
 BETA  OCC:   3   0   0   0   0   1   1   1
 ***HARTREE-FOCK ENERGY IN STEP   5 IS    -267.9782123626982866 [AU]
 ======================================================================
 ITERATION STEP   6
 CPU time [min]:     1.016                   Wall time [min]:     0.084
 
 ALPHA OCC:   3   0   0   0   0   2   1   2
 BETA  OCC:   3   0   0   0   0   1   1   1
 ***HARTREE-FOCK ENERGY IN STEP   6 IS    -273.6333227266327981 [AU]
 ======================================================================
 ITERATION STEP   7
 CPU time [min]:     1.151                   Wall time [min]:     0.096
 
 ALPHA OCC:   3   0   0   0   0   2   1   2
 BETA  OCC:   3   0   0   0   0   1   1   1
 ***HARTREE-FOCK ENERGY IN STEP   7 IS    -284.3623565777751310 [AU]
 ======================================================================
 ITERATION STEP   8
 CPU time [min]:     1.334                   Wall time [min]:     0.108
 
 ALPHA OCC:   3   0   0   0   0   2   1   2
 BETA  OCC:   3   0   0   0   0   1   1   1
 ***HARTREE-FOCK ENERGY IN STEP   8 IS    -288.0465604115401561 [AU]
 ======================================================================
 ITERATION STEP   9
 CPU time [min]:     1.535                   Wall time [min]:     0.120
 
 ALPHA OCC:   3   0   0   0   0   2   1   2
 BETA  OCC:   3   0   0   0   0   1   1   1
 ***HARTREE-FOCK ENERGY IN STEP   9 IS    -288.8487625220461723 [AU]
 ======================================================================
 ITERATION STEP  10
 CPU time [min]:     1.701                   Wall time [min]:     0.132
 
 ALPHA OCC:   3   0   0   0   0   2   1   2
 BETA  OCC:   3   0   0   0   0   1   1   1
 ***HARTREE-FOCK ENERGY IN STEP  10 IS    -288.8543261508293085 [AU]
 ======================================================================
 ITERATION STEP  11
 CPU time [min]:     1.897                   Wall time [min]:     0.144
 
 ALPHA OCC:   3   0   0   0   0   2   1   2
 BETA  OCC:   3   0   0   0   0   1   1   1
 ***HARTREE-FOCK ENERGY IN STEP  11 IS    -288.8544395011858796 [AU]
 ======================================================================
 ITERATION STEP  12
 CPU time [min]:     2.066                   Wall time [min]:     0.158
 
 ALPHA OCC:   3   0   0   0   0   2   1   2
 BETA  OCC:   3   0   0   0   0   1   1   1
 ***HARTREE-FOCK ENERGY IN STEP  12 IS    -288.8544633914903557 [AU]
 ======================================================================
 ITERATION STEP  13
 CPU time [min]:     2.198                   Wall time [min]:     0.169
 
 ALPHA OCC:   3   0   0   0   0   2   1   2
 BETA  OCC:   3   0   0   0   0   1   1   1
 ***HARTREE-FOCK ENERGY IN STEP  13 IS    -288.8544635413666697 [AU]
 ======================================================================
 ITERATION STEP  14
 CPU time [min]:     2.385                   Wall time [min]:     0.181
 
 ALPHA OCC:   3   0   0   0   0   2   1   2
 BETA  OCC:   3   0   0   0   0   1   1   1
 ***HARTREE-FOCK ENERGY IN STEP  14 IS    -288.8544635428035008 [AU]
 ======================================================================
 ITERATION STEP  15
 CPU time [min]:     2.522                   Wall time [min]:     0.192
 
 ALPHA OCC:   3   0   0   0   0   2   1   2
 BETA  OCC:   3   0   0   0   0   1   1   1
 ***HARTREE-FOCK ENERGY IN STEP  15 IS    -288.8544635562830081 [AU]
 ======================================================================
 ITERATION STEP  16
 CPU time [min]:     2.714                   Wall time [min]:     0.204
 
 ALPHA OCC:   3   0   0   0   0   2   1   2
 BETA  OCC:   3   0   0   0   0   1   1   1
 ***HARTREE-FOCK ENERGY IN STEP  16 IS    -288.8544635563422389 [AU]
 ======================================================================
 ITERATION STEP  17
 CPU time [min]:     2.857                   Wall time [min]:     0.216
 
 ALPHA OCC:   3   0   0   0   0   2   1   2
 BETA  OCC:   3   0   0   0   0   1   1   1
 ***HARTREE-FOCK ENERGY IN STEP  17 IS    -288.8544635563444558 [AU]
 ======================================================================
 
 SUCCESS...
 THE SCF ITERATION HAS CONVERGED!
 
                   Ag  B1g B2g B3g Au  B1u B2u B3u 
 FINAL ALPHA OCC:   3   0   0   0   0   2   1   2
 FINAL BETA  OCC:   3   0   0   0   0   1   1   1
 
 ***FINAL HARTREE-FOCK ENERGY:   -288.8544635563444558 [AU]
 ***SEMICANONICAL ROHF ENERGY:   -288.8544635563434895 [AU]
 
 RETURNING FROM SCF ALGORITHM
 ======================================================================

 ************************ 2017-03-04 00:59:21 *************************
 Executing ovirt...

 ovirt, the routine of orbital optimization and integral transformation 
Sat Mar  4 00:59:21 EST 2017
 Allocated memory:                  112640  Mb
 UHF calculation! 
 integral transformation: AOs --- MOs (alpha-alpha)
 # of basis functions, # of int. blocks   232     1
100 % 
 second part
100 %
 integral transformation is completed! 
 integral transformation: AOs ------ MOs (beta-beta)
 # of basis functions, # of int. blocks   232     1
100 % 
 second part
100 %
 integral transformation is completed! 
 integral transformation: AOs ----- MOs (alpha-beta)
 size                 430592                     1
# of basis functions, # of int. blocks   232     1
 integral transformation
======================================== 
Sat Mar  4 03:09:58 EST 2017
  ovirt terminated normally 

 ************************ 2017-03-04 03:10:14 *************************
 Executing goldstone...

 Generation of CC equations in terms of H and T...
 Generation of antisymmetrized Goldstone diagrams...
 Number of diagrams in T^1 equations:    15
 Number of diagrams in T^2 equations:    38
 Number of diagrams in T^3 equations:    50
 Number of diagrams in T^4 equations:     5
 Translation of diagrams to factorized equations...
 Optimizing intermediate calculation...
 Number of floating-point operations per iteration step:   2.5649E+14
 Probable CPU time per iteration step (hours):   2564.87
 Required memory (Mbytes):  795863.2
 Number of intermediates:                                  80
 Number of intermediates to be stored:                     32
 Length of intermediate file (Mbytes):    5954.2

 ************************ 2017-03-04 03:10:19 *************************
 Executing xmrcc...

 **********************************************************************
 CC(3)(4) calculation 
 
 
 Allocation of****** Mbytes of memory...
 Number of spinorbitals:                   462
 Number of alpha electrons:                        7
 Number of beta electrons:                         5
 Spin multiplicity:                     2
 z-component of spin:  1.0
 Spatial symmetry:                      3
 Convergence criterion:  1.0E-09
 Construction of occupation graphs...
 Number of                     0 -fold excitations:                      1
 Number of                     1 -fold excitations:                    480
 Number of                     2 -fold excitations:                 333544
 Number of                     3 -fold excitations:              134827345
 Total number of configurations:              135161370
 Calculation of coupling coefficients...
 Length of intermediate file (Mbytes):    4499.0
 
 ======================================================================
 
 Spin case  1   Alpha:  0   Beta:  4
 Number of excitations:               65926494
 Spin case  2   Alpha:  1   Beta:  3
 Number of excitations:             3717928320
 Spin case  3   Alpha:  2   Beta:  2
 Number of excitations:            16673802724
 Spin case  4   Alpha:  3   Beta:  1
 Number of excitations:             9134857130
 Spin case  5   Alpha:  4   Beta:  0
 Number of excitations:              446401131
 Number of                     4 -fold excitations:            30038915799
 
 Memory requirements /Mbyte/: 
               Minimal        Optimal
 Real*8:      33722.9528     33722.9528
 Integer:       934.5968
 Total:       34657.5496     34657.5496
 

 ************************ 2017-03-04 03:24:54 *************************
 Executing goldstone...

 Generation of CC equations in terms of H and T...
 Generation of antisymmetrized Goldstone diagrams...
 Number of diagrams in T^1 equations:    15
 Number of diagrams in T^2 equations:    34
 Number of diagrams in T^3 equations:     2
 Translation of diagrams to factorized equations...
 Optimizing intermediate calculation...
 Number of floating-point operations per iteration step:   2.4797E+11
 Probable CPU time per iteration step (hours):      2.48
 Required memory (Mbytes):  334578.7
 Number of intermediates:                                  49
 Number of intermediates to be stored:                     20
 Length of intermediate file (Mbytes):    5418.6

 ************************ 2017-03-04 03:24:56 *************************
 Executing xmrcc...

 **********************************************************************
 CC(2)(3) calculation 
 
 
 Allocation of****** Mbytes of memory...
 Number of spinorbitals:                   462
 Number of alpha electrons:                        7
 Number of beta electrons:                         5
 Spin multiplicity:                     2
 z-component of spin:  1.0
 Spatial symmetry:                      3
 Convergence criterion:  1.0E-09
 Construction of occupation graphs...
 Number of                     0 -fold excitations:                      1
 Number of                     1 -fold excitations:                    480
 Number of                     2 -fold excitations:                 333544
 Total number of configurations:                 334025
 Calculation of coupling coefficients...
 Length of intermediate file (Mbytes):    4113.9
 
 ======================================================================
 
 Spin case  1   Alpha:  0   Beta:  3
 Number of excitations:                2358840
 Spin case  2   Alpha:  1   Beta:  2
 Number of excitations:               50029874
 Spin case  3   Alpha:  2   Beta:  1
 Number of excitations:               74366078
 Spin case  4   Alpha:  3   Beta:  0
 Number of excitations:                8072553
 Number of                     3 -fold excitations:              134827345
 
 Memory requirements /Mbyte/: 
               Minimal        Optimal
 Real*8:       4339.9550     23518.8332
 Integer:        13.5624
 Total:        4353.5173     23532.3955
 

 ************************ 2017-03-04 03:25:07 *************************
 Executing mrcc...

 **********************************************************************
 CCSD(T) calculation                                                    
 
 
 OpenMP parallel version is running.
 Number of CPUs:  24
 Allocation of23518.8 Mbytes of memory...
 Number of spinorbitals: 462
 Number of alpha electrons:  7
 Number of beta  electrons:  5
 Spin multiplicity: 2
 z-component of spin:  1.0
 Spatial symmetry: 3
 Convergence criterion:  1.0E-09
 Construction of occupation graphs...
 Number of 0-fold excitations: 1
 Number of 1-fold excitations: 480
 Number of 2-fold excitations: 333544
 Total number of determinants: 334025
 Calculation of coupling coefficients...
 Initial cluster amplitudes are generated.
 Length of intermediate file (Mbytes):    4113.9
 Reading integral list from unit 55...
 Sorting integrals...
 Sorting integrals...
 Sorting integrals...
 Sorting integrals...
 Energy of reference determinant [au]:    -288.854463556343
 Calculation of MP denominators...
 
 Starting CC iteration...
 ======================================================================
 Norm of residual vector:     3.66182323
 CPU time [min]:    16.909                   Wall time [min]:    23.729
 
 Iteration  1  CC energy:  -289.24926875  Energy decrease:   0.39480519
 ======================================================================
 Norm of residual vector:     0.20023941
 CPU time [min]:    29.570                   Wall time [min]:    31.279
 
 Iteration  2  CC energy:  -289.25833580  Energy decrease:   0.00906704
 ======================================================================
 Norm of residual vector:     0.03693613
 CPU time [min]:    39.885                   Wall time [min]:    43.924
 
 Iteration  3  CC energy:  -289.26329570  Energy decrease:   0.00495990
 ======================================================================
 Norm of residual vector:     0.00984623
 CPU time [min]:    53.381                   Wall time [min]:    59.672
 
 Iteration  4  CC energy:  -289.26325540  Energy decrease:   0.00004030
 ======================================================================
 Norm of residual vector:     0.00268205
 CPU time [min]:    67.137                   Wall time [min]:    75.415
 
 Iteration  5  CC energy:  -289.26329515  Energy decrease:   0.00003975
 ======================================================================
 Norm of residual vector:     0.00074639
 CPU time [min]:    80.625                   Wall time [min]:    88.412
 
 Iteration  6  CC energy:  -289.26332981  Energy decrease:   0.00003466
 ======================================================================
 Norm of residual vector:     0.00017765
 CPU time [min]:    96.396                   Wall time [min]:   102.187
 
 Iteration  7  CC energy:  -289.26332044  Energy decrease:   0.00000938
 ======================================================================
 Norm of residual vector:     0.00004442
 CPU time [min]:   107.117                   Wall time [min]:   111.980
 
 Iteration  8  CC energy:  -289.26332192  Energy decrease:   0.00000148
 ======================================================================
 Norm of residual vector:     0.00001377
 CPU time [min]:   122.030                   Wall time [min]:   128.799
 
 Iteration  9  CC energy:  -289.26332216  Energy decrease:   0.00000024
 ======================================================================
 Norm of residual vector:     0.00000353
 CPU time [min]:   135.439                   Wall time [min]:   145.977
 
 Iteration 10  CC energy:  -289.26332202  Energy decrease:   0.00000014
 ======================================================================
 Norm of residual vector:     0.00000078
 CPU time [min]:   150.611                   Wall time [min]:   162.561
 
 Iteration 11  CC energy:  -289.26332203  Energy decrease:   0.00000001
 ======================================================================
 Norm of residual vector:     0.00000020
 CPU time [min]:   165.763                   Wall time [min]:   174.243
 
 Iteration 12  CC energy:  -289.26332203  Energy decrease:   2.2458E-09
 ======================================================================
 Norm of residual vector:     0.00000006
 CPU time [min]:   176.622                   Wall time [min]:   185.650
 
 Iteration 13  CC energy:  -289.26332203  Energy decrease:   1.1249E-09
 ======================================================================
 Norm of residual vector:     0.00000001
 CPU time [min]:   186.633                   Wall time [min]:   196.815
 
 Iteration 14  CC energy:  -289.26332203  Energy decrease:   2.1447E-10
 ======================================================================
 Norm of residual vector:     3.4462E-09
 CPU time [min]:   200.971                   Wall time [min]:   210.876
 
 Iteration 15  CC energy:  -289.26332203  Energy decrease:   1.2051E-11
 ======================================================================
 Norm of residual vector:     8.6333E-10
 CPU time [min]:   213.426                   Wall time [min]:   223.150
 
 Iteration 16  CC energy:  -289.26332203  Energy decrease:   8.0149E-12
 ======================================================================
 
 Iteration has converged in 16 steps.
 
 Final results:
 Total CCSD energy [au]:            -289.263322033548
 
 Perturbative corrections are calculated...
 ======================================================================
 Spin case  1   Alpha:  0   Beta:  3
 Number of excitations:        2358840
 CPU time [min]:   215.775                   Wall time [min]:   223.628
 ======================================================================
 Spin case  2   Alpha:  1   Beta:  2
 Number of excitations:        50029874
 CPU time [min]:   230.195                   Wall time [min]:   224.582
 ======================================================================
 Spin case  3   Alpha:  2   Beta:  1
 Number of excitations:        74366078
 CPU time [min]:   246.778                   Wall time [min]:   225.625
 ======================================================================
 Spin case  4   Alpha:  3   Beta:  0
 Number of excitations:        8072553
 CPU time [min]:   249.333                   Wall time [min]:   225.779
 ======================================================================
 Number of 3-fold excitations: 134827345
 
 
 CPU time [min]:   249.424                   Wall time [min]:   225.794
 
 Total CCSD[T] energy [au]:         -289.270228832914
 Total CCSD(T) energy [au]:         -289.270174890141

 ************************ 2017-03-04 07:10:55 *************************
 Executing goldstone...

 Generation of CC equations in terms of H and T...
 Generation of antisymmetrized Goldstone diagrams...
 Number of diagrams in T^1 equations:    15
 Number of diagrams in T^2 equations:    38
 Number of diagrams in T^3 equations:    50
 Number of diagrams in T^4 equations:     5
 Translation of diagrams to factorized equations...
 Optimizing intermediate calculation...
 Number of floating-point operations per iteration step:   2.5649E+14
 Probable CPU time per iteration step (hours):   2564.87
 Required memory (Mbytes):  795863.2
 Number of intermediates:                                  80
 Number of intermediates to be stored:                     32
 Length of intermediate file (Mbytes):    5954.2

 ************************ 2017-03-04 07:10:59 *************************
 Executing xmrcc...

 **********************************************************************
 CC(3)(4) calculation 
 
 
 Allocation of****** Mbytes of memory...
 Number of spinorbitals:                   462
 Number of alpha electrons:                        7
 Number of beta electrons:                         5
 Spin multiplicity:                     2
 z-component of spin:  1.0
 Spatial symmetry:                      3
 Convergence criterion:  1.0E-09
 Construction of occupation graphs...
 Number of                     0 -fold excitations:                      1
 Number of                     1 -fold excitations:                    480
 Number of                     2 -fold excitations:                 333544
 Number of                     3 -fold excitations:              134827345
 Total number of configurations:              135161370
 Calculation of coupling coefficients...
 Length of intermediate file (Mbytes):    4499.0
 
 ======================================================================
 
 Spin case  1   Alpha:  0   Beta:  4
 Number of excitations:               65926494
 Spin case  2   Alpha:  1   Beta:  3
 Number of excitations:             3717928320
 Spin case  3   Alpha:  2   Beta:  2
 Number of excitations:            16673802724
 Spin case  4   Alpha:  3   Beta:  1
 Number of excitations:             9134857130
 Spin case  5   Alpha:  4   Beta:  0
 Number of excitations:              446401131
 Number of                     4 -fold excitations:            30038915799
 
 Memory requirements /Mbyte/: 
               Minimal        Optimal
 Real*8:      33722.9528     33722.9528
 Integer:       934.5968
 Total:       34657.5496     34657.5496
 

 ************************ 2017-03-04 07:16:38 *************************
 Executing mrcc...

 **********************************************************************
 CCSDT(Q) calculation                                                   
 
 
 OpenMP parallel version is running.
 Number of CPUs:  24
 Allocation of33723.0 Mbytes of memory...
 Number of spinorbitals: 462
 Number of alpha electrons:  7
 Number of beta  electrons:  5
 Spin multiplicity: 2
 z-component of spin:  1.0
 Spatial symmetry: 3
 Convergence criterion:  1.0E-09
 Construction of occupation graphs...
 Number of 0-fold excitations: 1
 Number of 1-fold excitations: 480
 Number of 2-fold excitations: 333544
 Number of 3-fold excitations: 134827345
 Total number of determinants: 135161370
 Calculation of coupling coefficients...
 Initial cluster amplitudes are read from unit 16.
 Length of intermediate file (Mbytes):    4499.0
 Reading integral list from unit 55...
 Sorting integrals...
 Sorting integrals...
 Sorting integrals...
 Sorting integrals...
 Energy of reference determinant [au]:    -288.854463556343
 Calculation of MP denominators...
 
 Starting CC iteration...
 ======================================================================
 Norm of residual vector:     0.40824227
 CPU time [min]:   748.149                   Wall time [min]:    73.961
 
 Iteration  1  CC energy:  -289.26332203  Energy decrease:   3.9790E-13
 ======================================================================
 Norm of residual vector:     0.04242366
 CPU time [min]:  1490.915                   Wall time [min]:   125.579
 
 Iteration  2  CC energy:  -289.26893606  Energy decrease:   0.00561403
 ======================================================================
 Norm of residual vector:     0.01644273
 CPU time [min]:  1938.111                   Wall time [min]:   167.942
 
 Iteration  3  CC energy:  -289.27053980  Energy decrease:   0.00160374
 ======================================================================
 Norm of residual vector:     0.00414807
 CPU time [min]:  2321.359                   Wall time [min]:   202.908
 
 Iteration  4  CC energy:  -289.27066376  Energy decrease:   0.00012396
 ======================================================================
 Norm of residual vector:     0.00105156
 CPU time [min]:  2898.512                   Wall time [min]:   242.890
 
 Iteration  5  CC energy:  -289.27069603  Energy decrease:   0.00003227
 ======================================================================
 Norm of residual vector:     0.00040985
 CPU time [min]:  3256.991                   Wall time [min]:   273.794
 
 Iteration  6  CC energy:  -289.27070193  Energy decrease:   0.00000590
 ======================================================================
 Norm of residual vector:     0.00012863
 CPU time [min]:  3909.349                   Wall time [min]:   320.859
 
 Iteration  7  CC energy:  -289.27070552  Energy decrease:   0.00000359
 ======================================================================
 Norm of residual vector:     0.00004812
 CPU time [min]:  4401.624                   Wall time [min]:   358.953
 
 Iteration  8  CC energy:  -289.27070593  Energy decrease:   0.00000041
 ======================================================================
 Norm of residual vector:     0.00001406
 CPU time [min]:  4773.611                   Wall time [min]:   397.183
 
 Iteration  9  CC energy:  -289.27070580  Energy decrease:   0.00000013
 ======================================================================
 Norm of residual vector:     0.00000525
 CPU time [min]:  5423.929                   Wall time [min]:   443.532
 
 Iteration 10  CC energy:  -289.27070585  Energy decrease:   0.00000005
 ======================================================================
 Norm of residual vector:     0.00000175
 CPU time [min]:  5781.941                   Wall time [min]:   475.397
 
 Iteration 11  CC energy:  -289.27070586  Energy decrease:   0.00000002
 ======================================================================
 Norm of residual vector:     0.00000055
 CPU time [min]:  6354.358                   Wall time [min]:   525.981
 
 Iteration 12  CC energy:  -289.27070585  Energy decrease:   0.00000001
 ======================================================================
 Norm of residual vector:     0.00000022
 CPU time [min]:  6976.599                   Wall time [min]:   582.530
 
 Iteration 13  CC energy:  -289.27070585  Energy decrease:   0.00000001
 ======================================================================
 Norm of residual vector:     0.00000008
 CPU time [min]:  7548.160                   Wall time [min]:   628.104
 
 Iteration 14  CC energy:  -289.27070585  Energy decrease:   1.8566E-09
 ======================================================================
 Norm of residual vector:     0.00000003
 CPU time [min]:  7959.760                   Wall time [min]:   662.190
 
 Iteration 15  CC energy:  -289.27070585  Energy decrease:   2.0793E-10
 ======================================================================
 Norm of residual vector:     0.00000001
 CPU time [min]:  8392.522                   Wall time [min]:   693.613
 
 Iteration 16  CC energy:  -289.27070585  Energy decrease:   2.7950E-10
 ======================================================================
 Norm of residual vector:     2.6490E-09
 CPU time [min]:  8789.409                   Wall time [min]:   725.031
 
 Iteration 17  CC energy:  -289.27070585  Energy decrease:   4.5247E-11
 ======================================================================
 Norm of residual vector:     7.4898E-10
 CPU time [min]:  9210.116                   Wall time [min]:   757.673
 
 Iteration 18  CC energy:  -289.27070585  Energy decrease:   8.5265E-12
 ======================================================================
 
 Iteration has converged in 18 steps.
 
 Final results:
 Total CCSDT energy [au]:           -289.270705847844
 
 Perturbative corrections are calculated...
 ======================================================================
 Spin case  1   Alpha:  0   Beta:  4
 Number of excitations:        65926494
 CPU time [min]:  9767.978                   Wall time [min]:   792.681
 ======================================================================
 Spin case  2   Alpha:  1   Beta:  3
 Number of excitations:        3717928320
 CPU time [min]: 17810.465                   Wall time [min]:  1151.332
 ======================================================================
 Spin case  3   Alpha:  2   Beta:  2
 Number of excitations:        16673802724
 CPU time [min]: 39090.573                   Wall time [min]:  2121.720
 ======================================================================
 Spin case  4   Alpha:  3   Beta:  1
 Number of excitations:        9134857130
 CPU time [min]: 51322.181                   Wall time [min]:  2671.661
 ======================================================================
 Spin case  5   Alpha:  4   Beta:  0
 Number of excitations:        446401131
 CPU time [min]: 52219.008                   Wall time [min]:  2712.963
 ======================================================================
 Number of 4-fold excitations: 30038915799
 
 T_2^+ contribution:              -0.000038420670
 T_3^+ contribution:              -0.000149687463
 T_1^+ * T_2^+ contribution:       0.000000220926
 T_1^+ * <ab||ij> contribution:    0.000000886647
 T_2^+ * f_ai contribution:       -0.000001264186
 
 CPU time [min]: 52247.130                   Wall time [min]:  2721.030
 
 Total CCSDT[Q] energy [au]:        -289.270744268515
 Total CCSDT(Q)/A energy [au]:      -289.270893735052
 Total CCSDT(Q)/B energy [au]:      -289.270894333517
 
 ************************ 2017-03-06 04:37:40 *************************
                      Normal termination of mrcc.
 **********************************************************************
--- SharcNET Job Epilogue ---
Job completed successfully.
               jobid: 1362579
               resid: 2852455
         exit status: 0
      allocated time: 185970
           user time: 2942040
         system time: 213772
peak rss=77918834688; peak vsz=77918834688 (bytes)
atime=185970; utime=2942040; stime=213772; exit=0
