 **********************************************************************
                          MRCC program system
 **********************************************************************
 
                              Written by
 Mihaly Kallay, Peter R. Nagy, David Mester, Zoltan Rolik, Gyula Samu,
   Jozsef Csontos, Jozsef Csoka, P. Bernat Szabo, Laszlo Gyevi-Nagy,
    Bence Hegely, Istvan Ladjanszki, Lorant Szegedy, Bence Ladoczki,
       Klara Petrov, Mate Farkas, Pal D. Mezei, and Adam Ganyecz
 
        Department of Physical Chemistry and Materials Science
            Budapest University of Technology and Economics
                  Budapest P.O.Box 91, H-1521 Hungary
 
                              www.mrcc.hu
 
                    Release date: February 22, 2020

 ************************ 2021-07-31 17:15:04 *************************
 Executing minp...

 Reading input from MINP...
 
 Input file:
 
#
#TITLE
basis=def2-TZVPP
uncontract=off
#iface=cfour
calc=CC(4)
mem=56GB
#core=1
#core=frozen
itol=18
scftol=13
cctol=5
ccmaxit=999
scfmaxit=9999
scftype=ROHF
rohftype=semicanonical
scfiguess=ao
rest=2
charge=+1
mult=2
#symm=1
#occ=3,0,0,0,0,1,2,2/3,0,0,0,0,1,1,1

#refdet=serialno
#1
#2,3

unit=angs
geom=xyz
2

B 0.0000 0.0000 0.0000
N 0.0000 0.0000 1.281

#Li 1 R

#R=3.065


tprint=0.01
verbosity=3
#nstate=4


 
 
 Checking keyword combinations...
 
 Keywords:
 
 active=none
 agrid=ld0006-ld0590
 basis=def2-tzvpp
 basis_sm=none
 basopt=off
 bfbasis=none
 bfgsmem=10
 bfgstol=1.0d-3
 bpcompo=0.985
 bpcompv=0.98
 bpdfo=0.985
 bpocc=0.985
 bppdo=0.985
 bppdv=0.98
 bpedo=0.985
 bpedv=0.98
 calc=cc(4)
 ccmaxit=999
 ccprog=mrcc
 ccsdalg=disk
 ccsdmkl=seq
 ccsdrest=off
 ccsdthreads=2
 cctol=5
 charge=+1
 cialg=disk
 ciguess=off
 cmpgrp=auto
 core=frozen
 corembed=off
 csapprox=off
 dboc=off
 dendec=cholesky
 dens=0
 dfalg=lineq
 dfbasis_cor=none
 dfbasis_scf=none
 dfintran=ovirt
 dft=off
 dhexc=adc(2)
 diag=david
 docc=
 domrad=10.d0
 drpaalg=fit
 dual=off
 ecp=auto
 edisp=off
 edisp_embed=off
 embed=off
 epert=none
 eps=0.975
 excrad=0.d0
 excrad_fin=0.000000000D+00
 fmm=off
 fmmord=8
 freq=off
 gauss=spher
 geom=xyz
 gopt=off
 ghost=none
 gtol=7
 grdens=off
 grtol=10
 hamilton=dc
 iface=none
 intalg=auto
 itol=18
 laptol=1.d-2
 lccoporder=trffirst
 lcorthr=normal
 lccrest=off
 lmp2dens=on
 lnoepso=0.d0
 lnoepsv=1e-6
 localcc=off
 localcorrsymm=off
 locintrf=disk
 mact=
 maxact=off
 maxdim=100
 maxex=0
 maxmicroit=100
 mcscfiguess=hf
 mem=56gb
 molden=on
 mpitasks=1
 mulmet=0
 mult=2
 nacto=0
 nactv=0
 naf_cor=off
 naf_scf=off
 nafalg=albe
 naftyp=
 nchol=auto
 ndeps=1e-3
 nstate=1
 nsing=0
 ntrip=0
 occ=
 oniom=off
 oniom_eechg=off
 oniom_pcm=off
 optalg=
 optmaxit=50
 optetol=1e-6
 optex=   0
 optgtol=1e-4
 optstol=1e-3
 orblocc=off
 orbloce=off
 orbloco=off
 orblocv=off
 orblocguess=cholesky
 osveps=1e-3
 ovirt=off
 ovltol=1e-7
 ovosnorb=80.0
 pcm=off
 popul=off
 pressure=100000
 pssp=off
 ptfreq=0.0
 ptthreads=2
 qscf=off
 qmmm=off
 redcost_exc=off
 redcost_tddft=off
 refdet=none
 rest=2
 rgrid=log3
 rohfcore=semicanonical
 rohftype=semicanonical
 scfalg=auto
 scfdamp=off
 scfdiis=on
 scfdiis_end=9999
 scfdiis_start=1
 scfdiis_step=1
 scfdtol=14
 scfext=10
 scfguessdens=
 scfiguess=ao
 scflshift=off
 scfmaxit=9999
 scftype=rohf
 scftol=13
 scspe=1.d0
 scsph=1.d0
 scsps=1.2d0
 scspt=0.33333333333333
 scspv=1.d0
 spairtol=1e-4
 subminp=top
 symm=
 talg=occ
 temp=298.15
 test=off
 theodore=off
 tlmo=0.999
 tpao=0.94
 tprint=0.01
 uncontract=off
 unit=angs
 usedisk=2
 verbosity=3
 wpairtol=0.100000000E-05

 ************************ 2021-07-31 17:15:05 *************************
 Executing integ...

 Allocation of 56.0 Gbytes of memory...
 
 
 Number of atoms:                  2
 Charge:                           1
 Number of electrons:             11
 Number of core electrons:         4
 Spin multiplicity:                2
 
                 Cartesian coordinates [bohr]      Atomic mass [AMU]  Z
   1  B     0.00000000    0.00000000    0.00000000    11.009305       5
   2  N     0.00000000    0.00000000    2.42073917    14.003074       7
 
 This molecule is linear.
 
 Rotational constants [cm-1]: 
      1.666747998989
 
 Point group: Cxv 
 Computational point group: C2v 
 
 Cartesian coordinates in standard orientation [bohr]
   1  B     0.00000000    0.00000000   -1.35524050
   2  N     0.00000000    0.00000000    1.06549866
 
 Nuclear repulsion energy [au]:         14.458393734153
 
 
 Basis set information:
 
 Maximum angular momentum: f
 Maximum number of contracted Gaussians:    5
 Maximum number of primitive Gaussians:    11
 Spherical harmonic GTOs are used.
 
    1  B  def2-tzvpp [ 11s 6p 2d 1f | 5s 3p 2d 1f ]
    2  N  def2-tzvpp [ 11s 6p 2d 1f | 5s 3p 2d 1f ]
 
 Basis functions:
            1             2             3             4             5             6             7             8             9            10
    0    1B1s          1B2s          1B3s          1B4s          1B5s          1B1pz         1B1py         1B1px         1B2pz         1B2py     
    1    1B2px         1B3pz         1B3py         1B3px         1B1d-2        1B1d-1        1B1d0         1B1d+1        1B1d+2        1B2d-2    
    2    1B2d-1        1B2d0         1B2d+1        1B2d+2        1B1f-3        1B1f-2        1B1f-1        1B1f0         1B1f+1        1B1f+2    
    3    1B1f+3        2N1s          2N2s          2N3s          2N4s          2N5s          2N1pz         2N1py         2N1px         2N2pz     
    4    2N2py         2N2px         2N3pz         2N3py         2N3px         2N1d-2        2N1d-1        2N1d0         2N1d+1        2N1d+2    
    5    2N2d-2        2N2d-1        2N2d0         2N2d+1        2N2d+2        2N1f-3        2N1f-2        2N1f-1        2N1f0         2N1f+1    
    6    2N1f+2        2N1f+3    
 
 Maximum number of basis functions per shell:   10
 Total number of basis functions:     62
 
 
 Character table for point group C2v:
 
          E  C2  Qh  Qv  
    A1    1   1   1   1
    B1    1  -1   1  -1
    B2    1  -1  -1   1
    A2    1   1  -1  -1
 
 Number of basis functions per irrep:
    A1     28
    B1     14
    B2     14
    A2      6
 
 
 Calculation of overlap integrals...
 CPU time [min]:     0.008                   Wall time [min]:     0.151
 
 Calculation of the square root of the overlap matrix...
 Minimum eigenvalue of the overlap matrix: 0.663928E-03
 CPU time [min]:     0.008                   Wall time [min]:     0.152
 
 Calculation of kinetic energy integrals...
 CPU time [min]:     0.008                   Wall time [min]:     0.152
 Calculation of nuclear attraction integrals...
 CPU time [min]:     0.008                   Wall time [min]:     0.152
 
 Calculation of prescreening integrals...
 CPU time [min]:     0.009                   Wall time [min]:     0.153
 
 Calculation of two-electron integrals...
   2% done.
  28% done.
  62% done.
 100% done.
 CPU time [min]:     0.018                   Wall time [min]:     0.167

 ************************ 2021-07-31 17:15:15 *************************
 Executing scf...

 @scfsetup: integrals taken from disk
            mrcc/integ binary format
 @scfsetup: calc on blockdiagonal matrices
            using symmetry adapted basis
 @scfsetup: diis switched on
 @scfsetup: number of steps to extrapolate from  10
 @scfsetup: tolerance in energy deviation    0.100000E-12
            tolerance in density deviation    0.100000E-13
 @scfsetup: maximum number of iterations:9999
 @scfsetup: restricted open shell hf calc
            semicanonical orbitals
 @scfsetup: starting scf from diagonal ao guess
 @scfsetup: occupation set:
            from initial orbitals
 @scfsetup: diis runs from iteration:   1
 @scfsetup: diis runs to iteration:9999
 @scfsetup: diis runs in every iteration
 Allocation of 56.0 Gbytes of memory...
 ======================================================================
 ITERATION STEP   1
 CPU time [min]:     0.003                   Wall time [min]:     0.004
 
 Gradient norm:      0.0000E+00
 RMS of total difference density:                      0.10742246905880
 RMS of open-shell difference density:                 0.03566465044811
 Gap [au]:  0.07547287
 ALPHA OCC:   4   1   1   0
 BETA  OCC:   3   1   1   0
 
 ***HARTREE-FOCK ENERGY IN STEP   1 IS     -67.0730957011032132 [AU]
 ======================================================================
 ITERATION STEP   2
 CPU time [min]:     0.004                   Wall time [min]:     0.005
 
 Gradient norm:      0.0000E+00
 DIIS is running in this iteration step.
 RMS of [F,P]:                                         0.19086283939655
 RMS of total difference density:                      0.08376268167771
 RMS of open-shell difference density:                 0.03818325266557
 Gap [au]:  0.91781803
 ALPHA OCC:   4   1   1   0
 BETA  OCC:   4   1   0   0
 
 ***HARTREE-FOCK ENERGY IN STEP   2 IS     -74.4161459041549165 [AU]
 ======================================================================
 ITERATION STEP   3
 CPU time [min]:     0.005                   Wall time [min]:     0.006
 
 Gradient norm:      0.0000E+00
 DIIS is running in this iteration step.
 RMS of [F,P]:                                         0.11729056001998
 RMS of total difference density:                      0.06752841020139
 RMS of open-shell difference density:                 0.01837150712680
 Gap [au]:  0.01620221
 ALPHA OCC:   4   1   1   0
 BETA  OCC:   4   1   0   0
 
 ***HARTREE-FOCK ENERGY IN STEP   3 IS     -76.6571599542611182 [AU]
 ======================================================================
 ITERATION STEP   4
 CPU time [min]:     0.005                   Wall time [min]:     0.006
 
 Gradient norm:      0.0000E+00
 DIIS is running in this iteration step.
 RMS of [F,P]:                                         0.07840799085084
 RMS of total difference density:                      0.04420850357883
 RMS of open-shell difference density:                 0.01236200696585
 Gap [au]:  0.14049478
 ALPHA OCC:   4   1   1   0
 BETA  OCC:   4   1   0   0
 
 ***HARTREE-FOCK ENERGY IN STEP   4 IS     -77.1663572772876449 [AU]
 ======================================================================
 ITERATION STEP   5
 CPU time [min]:     0.006                   Wall time [min]:     0.007
 
 Gradient norm:      0.0000E+00
 DIIS is running in this iteration step.
 RMS of [F,P]:                                         0.02674013644310
 RMS of total difference density:                      0.01208066546432
 RMS of open-shell difference density:                 0.00233502706194
 Gap [au]:  0.11207747
 ALPHA OCC:   4   1   1   0
 BETA  OCC:   4   1   0   0
 
 ***HARTREE-FOCK ENERGY IN STEP   5 IS     -78.4171196715881251 [AU]
 ======================================================================
 ITERATION STEP   6
 CPU time [min]:     0.007                   Wall time [min]:     0.008
 
 Gradient norm:      0.0000E+00
 DIIS is running in this iteration step.
 RMS of [F,P]:                                         0.00846916779627
 RMS of total difference density:                      0.00467395844626
 RMS of open-shell difference density:                 0.00071953731308
 Gap [au]:  0.11980263
 ALPHA OCC:   4   1   1   0
 BETA  OCC:   4   1   0   0
 
 ***HARTREE-FOCK ENERGY IN STEP   6 IS     -78.5306748771439089 [AU]
 ======================================================================
 ITERATION STEP   7
 CPU time [min]:     0.007                   Wall time [min]:     0.009
 
 Gradient norm:      0.0000E+00
 DIIS is running in this iteration step.
 RMS of [F,P]:                                         0.00178207947176
 RMS of total difference density:                      0.00126424954302
 RMS of open-shell difference density:                 0.00009376922521
 Gap [au]:  0.12588839
 ALPHA OCC:   4   1   1   0
 BETA  OCC:   4   1   0   0
 
 ***HARTREE-FOCK ENERGY IN STEP   7 IS     -78.5458375913915177 [AU]
 ======================================================================
 ITERATION STEP   8
 CPU time [min]:     0.008                   Wall time [min]:     0.009
 
 Gradient norm:      0.0000E+00
 DIIS is running in this iteration step.
 RMS of [F,P]:                                         0.00069065478593
 RMS of total difference density:                      0.00100967486559
 RMS of open-shell difference density:                 0.00016376889355
 Gap [au]:  0.12745360
 ALPHA OCC:   4   1   1   0
 BETA  OCC:   4   1   0   0
 
 ***HARTREE-FOCK ENERGY IN STEP   8 IS     -78.5471166215096162 [AU]
 ======================================================================
 ITERATION STEP   9
 CPU time [min]:     0.009                   Wall time [min]:     0.010
 
 Gradient norm:      0.0000E+00
 DIIS is running in this iteration step.
 RMS of [F,P]:                                         0.00048227575257
 RMS of total difference density:                      0.00132293360479
 RMS of open-shell difference density:                 0.00014597214171
 Gap [au]:  0.12639226
 ALPHA OCC:   4   1   1   0
 BETA  OCC:   4   1   0   0
 
 ***HARTREE-FOCK ENERGY IN STEP   9 IS     -78.5476171598854762 [AU]
 ======================================================================
 ITERATION STEP  10
 CPU time [min]:     0.009                   Wall time [min]:     0.011
 
 Gradient norm:      0.0000E+00
 DIIS is running in this iteration step.
 RMS of [F,P]:                                         0.00018813838509
 RMS of total difference density:                      0.00049873783815
 RMS of open-shell difference density:                 0.00003560384774
 Gap [au]:  0.12506501
 ALPHA OCC:   4   1   1   0
 BETA  OCC:   4   1   0   0
 
 ***HARTREE-FOCK ENERGY IN STEP  10 IS     -78.5479504178395018 [AU]
 ======================================================================
 ITERATION STEP  11
 CPU time [min]:     0.010                   Wall time [min]:     0.011
 
 Gradient norm:      0.0000E+00
 DIIS is running in this iteration step.
 RMS of [F,P]:                                         0.00006128571037
 RMS of total difference density:                      0.00009491036348
 RMS of open-shell difference density:                 0.00004174087837
 Gap [au]:  0.12505439
 ALPHA OCC:   4   1   1   0
 BETA  OCC:   4   1   0   0
 
 ***HARTREE-FOCK ENERGY IN STEP  11 IS     -78.5479863113200309 [AU]
 ======================================================================
 ITERATION STEP  12
 CPU time [min]:     0.010                   Wall time [min]:     0.012
 
 Gradient norm:      0.0000E+00
 DIIS is running in this iteration step.
 RMS of [F,P]:                                         0.00002617827584
 RMS of total difference density:                      0.00006954921404
 RMS of open-shell difference density:                 0.00002824960868
 Gap [au]:  0.12499681
 ALPHA OCC:   4   1   1   0
 BETA  OCC:   4   1   0   0
 
 ***HARTREE-FOCK ENERGY IN STEP  12 IS     -78.5479893480962659 [AU]
 ======================================================================
 ITERATION STEP  13
 CPU time [min]:     0.011                   Wall time [min]:     0.012
 
 Gradient norm:      0.0000E+00
 DIIS is running in this iteration step.
 RMS of [F,P]:                                         0.00000349422430
 RMS of total difference density:                      0.00001092864849
 RMS of open-shell difference density:                 0.00000563818998
 Gap [au]:  0.12495454
 ALPHA OCC:   4   1   1   0
 BETA  OCC:   4   1   0   0
 
 ***HARTREE-FOCK ENERGY IN STEP  13 IS     -78.5479901380778358 [AU]
 ======================================================================
 ITERATION STEP  14
 CPU time [min]:     0.011                   Wall time [min]:     0.013
 
 Gradient norm:      0.0000E+00
 DIIS is running in this iteration step.
 RMS of [F,P]:                                         0.00000087258021
 RMS of total difference density:                      0.00000070948818
 RMS of open-shell difference density:                 0.00000048743393
 Gap [au]:  0.12495099
 ALPHA OCC:   4   1   1   0
 BETA  OCC:   4   1   0   0
 
 ***HARTREE-FOCK ENERGY IN STEP  14 IS     -78.5479901554230793 [AU]
 ======================================================================
 ITERATION STEP  15
 CPU time [min]:     0.012                   Wall time [min]:     0.013
 
 Gradient norm:      0.0000E+00
 DIIS is running in this iteration step.
 RMS of [F,P]:                                         0.00000025362903
 RMS of total difference density:                      0.00000022548205
 RMS of open-shell difference density:                 0.00000008425939
 Gap [au]:  0.12495227
 ALPHA OCC:   4   1   1   0
 BETA  OCC:   4   1   0   0
 
 ***HARTREE-FOCK ENERGY IN STEP  15 IS     -78.5479901556329452 [AU]
 ======================================================================
 ITERATION STEP  16
 CPU time [min]:     0.012                   Wall time [min]:     0.014
 
 Gradient norm:      0.0000E+00
 DIIS is running in this iteration step.
 RMS of [F,P]:                                         0.00000001748690
 RMS of total difference density:                      0.00000003846359
 RMS of open-shell difference density:                 0.00000000926917
 Gap [au]:  0.12495237
 ALPHA OCC:   4   1   1   0
 BETA  OCC:   4   1   0   0
 
 ***HARTREE-FOCK ENERGY IN STEP  16 IS     -78.5479901556490745 [AU]
 ======================================================================
 ITERATION STEP  17
 CPU time [min]:     0.013                   Wall time [min]:     0.015
 
 Gradient norm:      0.0000E+00
 DIIS is running in this iteration step.
 RMS of [F,P]:                                         0.00000000128096
 RMS of total difference density:                      0.00000000502384
 RMS of open-shell difference density:                 0.00000000098133
 Gap [au]:  0.12495236
 ALPHA OCC:   4   1   1   0
 BETA  OCC:   4   1   0   0
 
 ***HARTREE-FOCK ENERGY IN STEP  17 IS     -78.5479901556492166 [AU]
 ======================================================================
 ITERATION STEP  18
 CPU time [min]:     0.013                   Wall time [min]:     0.015
 
 Gradient norm:      0.0000E+00
 DIIS is running in this iteration step.
 RMS of [F,P]:                                         0.00000000074434
 RMS of total difference density:                      0.00000000126518
 RMS of open-shell difference density:                 0.00000000036930
 Gap [au]:  0.12495236
 ALPHA OCC:   4   1   1   0
 BETA  OCC:   4   1   0   0
 
 ***HARTREE-FOCK ENERGY IN STEP  18 IS     -78.5479901556492166 [AU]
 ======================================================================
 ITERATION STEP  19
 CPU time [min]:     0.014                   Wall time [min]:     0.016
 
 Gradient norm:      0.0000E+00
 DIIS is running in this iteration step.
 RMS of [F,P]:                                         0.00000000004275
 RMS of total difference density:                      0.00000000008405
 RMS of open-shell difference density:                 0.00000000000635
 Gap [au]:  0.12495236
 ALPHA OCC:   4   1   1   0
 BETA  OCC:   4   1   0   0
 
 ***HARTREE-FOCK ENERGY IN STEP  19 IS     -78.5479901556492166 [AU]
 ======================================================================
 ITERATION STEP  20
 CPU time [min]:     0.014                   Wall time [min]:     0.016
 
 Gradient norm:      0.0000E+00
 DIIS is running in this iteration step.
 RMS of [F,P]:                                         0.00000000000381
 RMS of total difference density:                      0.00000000001174
 RMS of open-shell difference density:                 0.00000000000161
 Gap [au]:  0.12495236
 ALPHA OCC:   4   1   1   0
 BETA  OCC:   4   1   0   0
 
 ***HARTREE-FOCK ENERGY IN STEP  20 IS     -78.5479901556492024 [AU]
 ======================================================================
 ITERATION STEP  21
 CPU time [min]:     0.015                   Wall time [min]:     0.017
 
 Gradient norm:      0.0000E+00
 DIIS is running in this iteration step.
 RMS of [F,P]:                                         0.00000000000038
 RMS of total difference density:                      0.00000000000097
 RMS of open-shell difference density:                 0.00000000000013
 Gap [au]:  0.12495236
 ALPHA OCC:   4   1   1   0
 BETA  OCC:   4   1   0   0
 
 ***HARTREE-FOCK ENERGY IN STEP  21 IS     -78.5479901556492877 [AU]
 ======================================================================
 ITERATION STEP  22
 CPU time [min]:     0.016                   Wall time [min]:     0.018
 
 Gradient norm:      0.0000E+00
 DIIS is running in this iteration step.
 RMS of [F,P]:                                         0.00000000000021
 RMS of total difference density:                      0.00000000000078
 RMS of open-shell difference density:                 0.00000000000002
 Gap [au]:  0.12495236
 ALPHA OCC:   4   1   1   0
 BETA  OCC:   4   1   0   0
 
 ***HARTREE-FOCK ENERGY IN STEP  22 IS     -78.5479901556492734 [AU]
 ======================================================================
 ITERATION STEP  23
 CPU time [min]:     0.016                   Wall time [min]:     0.018
 
 Gradient norm:      0.0000E+00
 DIIS is running in this iteration step.
 RMS of [F,P]:                                         0.00000000000002
 RMS of total difference density:                      0.00000000000007
 RMS of open-shell difference density:                 0.00000000000001
 Gap [au]:  0.12495236
 ALPHA OCC:   4   1   1   0
 BETA  OCC:   4   1   0   0
 
 ***HARTREE-FOCK ENERGY IN STEP  23 IS     -78.5479901556493445 [AU]
 ======================================================================
 ITERATION STEP  24
 CPU time [min]:     0.017                   Wall time [min]:     0.019
 
 Gradient norm:      0.0000E+00
 DIIS is running in this iteration step.
 RMS of [F,P]:                                         0.00000000000000
 RMS of total difference density:                      0.00000000000000
 RMS of open-shell difference density:                 0.00000000000000
 Gap [au]:  0.12495236
 ALPHA OCC:   4   1   1   0
 BETA  OCC:   4   1   0   0
 
 ***HARTREE-FOCK ENERGY IN STEP  24 IS     -78.5479901556492877 [AU]
 ======================================================================
 
 SUCCESS...
 THE SCF ITERATION HAS CONVERGED!
 
                   A1  B1  B2  A2  
 FINAL ALPHA OCC:   4   1   1   0
 FINAL BETA  OCC:   4   1   0   0
 
 ***FINAL HARTREE-FOCK ENERGY:    -78.5479901556492877 [AU]
 
 ***SEMICANONICAL ROHF ENERGY:    -78.5479901556493587 [AU]
 
 Orbital energies [au]:
      Irrep         Alpha          Beta
    1   A1       -15.970143     -15.950992
    2   A1        -8.146152      -8.141171
    3   A1        -1.489241      -1.383122
    4   A1        -0.869920      -0.832047
    5   B1        -0.787708      -0.764490
 
    6   B2        -0.849390      -0.325537
 
    7   A1        -0.430523      -0.418363
    8   B2        -0.199369      -0.088704
    9   B1        -0.173023      -0.163720
   10   A1        -0.062443      -0.060442
   11   A1        -0.057100      -0.051112
   12   B2        -0.011316       0.011914
   13   B1        -0.002946      -0.000793
   14   A1         0.197479       0.206381
   15   A2         0.223791       0.242019
   16   A1         0.225085       0.242319
   17   A1         0.272160       0.282977
   18   B2         0.303450       0.356660
   19   B1         0.327762       0.332701
   20   B2         0.371666       0.410903
   21   B1         0.391755       0.396525
   22   A1         0.396077       0.407926
   23   A1         0.580060       0.585088
   24   B2         0.730922       0.758289
   25   B1         0.748123       0.751707
   26   A1         0.748482       0.765937
   27   A1         0.870387       0.885524
   28   A2         1.010750       1.060137
   29   A1         1.010826       1.060891
   30   B2         1.282830       1.331299
   31   B1         1.313185       1.320545
   32   A1         1.541359       1.556187
   33   B2         1.548477       1.560870
   34   B1         1.548484       1.560860
   35   A2         1.625379       1.639893
   36   A1         1.625952       1.640179
   37   B2         1.674421       1.689430
   38   B1         1.694117       1.697065
   39   A1         1.768619       1.786086
   40   A2         1.768635       1.785990
   41   A1         1.877290       1.886885
   42   B2         2.044623       2.113312
   43   B1         2.084536       2.093797
   44   A1         2.117301       2.134742
   45   B2         2.447926       2.489117
   46   B1         2.483705       2.491022
   47   A1         2.485791       2.497565
   48   A1         3.164403       3.184968
   49   B1         3.953493       3.990974
   50   B2         3.953517       3.991003
   51   A1         4.221000       4.256293
   52   A2         4.221342       4.256001
   53   B2         4.615463       4.665542
   54   A1         4.644007       4.691920
   55   A2         4.644974       4.691618
   56   B1         4.656915       4.665891
   57   A1         4.924349       4.944952
   58   B2         4.982730       5.016415
   59   B1         5.016911       5.023530
   60   A1         5.277534       5.289829
   61   A1        14.035152      14.038543
   62   A1        32.553962      32.565128
 
 RETURNING FROM SCF ALGORITHM
 ======================================================================

 ************************ 2021-07-31 17:15:29 *************************
 Executing ovirt...

 ovirt, the routine of orbital optimization and integral transformation 
Sat Jul 31 17:15:29 EDT 2021
 memory =                  57344  Mb            7516192768  8 byte word
 mrccboot = T
 scftype  = rohf 
 localcc  = off 
 core     = frozen
 ovirt    = off  
 ccprog   = mrcc
 dfnbasis =                      0
 dfbasis_cor =none                
 lmp2dens = on 
 dens =                      0
 verblev =                      3
 task     =                      4
 epsilon =   0.975000000000000     
 lmp2= on 
 localNO  =  F
 localMP2 =  F
 localMP2_TEST =  F
 LMP2_shortcut =  F
 FOCKTR   =  T
 Allocated memory:                   57344  Mb
 onbasis=                    62
 UHF calculation! 
 integral transformation: AOs --- MOs (alpha-alpha)
 # of basis functions, # of int. blocks    62     1
100 % 
 second part
100 %
 integral transformation is completed! 
 integral transformation: AOs ------ MOs (beta-beta)
 # of basis functions, # of int. blocks    62     1
100 % 
 second part
100 %
 integral transformation is completed! 
 integral transformation: AOs ----- MOs (alpha-beta)
# of basis functions, # of int. blocks    62     1
 integral transformation
======================================== 
Sat Jul 31 17:16:07 EDT 2021
  ovirt terminated normally 

 ************************ 2021-07-31 17:16:07 *************************
 Executing goldstone...

 Generation of CC equations in terms of H and T...
 Generation of antisymmetrized Goldstone diagrams...
 Number of diagrams in T^1 equations:    15
 Number of diagrams in T^2 equations:    38
 Number of diagrams in T^3 equations:    53
 Number of diagrams in T^4 equations:    74
 Translation of diagrams to factorized equations...
 Optimizing intermediate calculation...
 Number of floating-point operations per iteration step:   7.4839E+11
 Probable CPU time per iteration step (hours):      7.48
 Required memory (Mbytes):    1343.0
 Number of intermediates:                                 104
 Number of intermediates to be stored:                     44
 Length of intermediate file (Mbytes):     281.1

 ************************ 2021-07-31 17:16:44 *************************
 Executing xmrcc...

 **********************************************************************
 CC(                     4 ) calculation 
 
 
 Allocation of1343.0 Mbytes of memory...
 Number of spinorbitals:                   120
 Number of alpha electrons:                        4
 Number of beta electrons:                         3
 Spin multiplicity:                     2
 z-component of spin:  0.5
 Spatial symmetry:                      3
 Convergence criterion:  1.0E-05
 Construction of occupation graphs...
 Number of                     0 -fold excitations:                      1
 Number of                     1 -fold excitations:                    135
 Number of                     2 -fold excitations:                  13778
 Number of                     3 -fold excitations:                 699446
 Number of                     4 -fold excitations:               17511901
 Total number of configurations:               18225261
 Calculation of coupling coefficients...
 Length of intermediate file (Mbytes):     192.6
 
 ======================================================================
 
 Memory requirements /Mbyte/: 
               Minimal        Optimal
 Real*8:        201.6713       201.6713
 Integer:       125.4656
 Total:         327.1369       327.1369
 

 ************************ 2021-07-31 17:16:47 *************************
 Executing goldstone...

 Generation of CC equations in terms of H and T...
 Generation of antisymmetrized Goldstone diagrams...
 Number of diagrams in T^1 equations:    15
 Number of diagrams in T^2 equations:    34
 Number of diagrams in T^3 equations:     2
 Translation of diagrams to factorized equations...
 Optimizing intermediate calculation...
 Number of floating-point operations per iteration step:   7.5509E+08
 Probable CPU time per iteration step (hours):      0.01
 Required memory (Mbytes):    1343.0
 Number of intermediates:                                  49
 Number of intermediates to be stored:                     20
 Length of intermediate file (Mbytes):      49.1

 ************************ 2021-07-31 17:16:48 *************************
 Executing xmrcc...

 **********************************************************************
 CC(2)(3) calculation 
 
 
 Allocation of1343.0 Mbytes of memory...
 Number of spinorbitals:                   120
 Number of alpha electrons:                        4
 Number of beta electrons:                         3
 Spin multiplicity:                     2
 z-component of spin:  0.5
 Spatial symmetry:                      3
 Convergence criterion:  1.0E-05
 Construction of occupation graphs...
 Number of                     0 -fold excitations:                      1
 Number of                     1 -fold excitations:                    135
 Number of                     2 -fold excitations:                  13778
 Total number of configurations:                  13914
 Calculation of coupling coefficients...
 Length of intermediate file (Mbytes):      38.1
 
 ======================================================================
 
 Spin case  1   Alpha:  0   Beta:  3
 Number of excitations:                   7268
 Spin case  2   Alpha:  1   Beta:  2
 Number of excitations:                 269892
 Spin case  3   Alpha:  2   Beta:  1
 Number of excitations:                 395040
 Spin case  4   Alpha:  3   Beta:  0
 Number of excitations:                  27246
 Number of                     3 -fold excitations:                 699446
 
 Memory requirements /Mbyte/: 
               Minimal        Optimal
 Real*8:         21.2692        98.9907
 Integer:         0.7622
 Total:          22.0313        99.7529
 

 ************************ 2021-07-31 17:16:48 *************************
 Executing mrcc...

 **********************************************************************
 CCSD(T) calculation                                                    
 
 
 OpenMP parallel version is running.
 Number of CPU cores:   1
 Allocation of   99.0 Mbytes of memory...
 Number of spinorbitals: 120
 Number of alpha electrons:  4
 Number of beta  electrons:  3
 Spin multiplicity: 2
 z-component of spin:  0.5
 Spatial symmetry: 3
 Convergence criterion:  1.0E-05
 Construction of occupation graphs...
 Number of 0-fold excitations: 1
 Number of 1-fold excitations: 135
 Number of 2-fold excitations: 13778
 Total number of determinants: 13914
 Calculation of coupling coefficients...
 Initial cluster amplitudes are generated.
 Length of intermediate file (Mbytes):      38.1
 Reading integral list from unit 55...
 Sorting integrals...
 Sorting integrals...
 Sorting integrals...
 Sorting integrals...
 Calculation of MP denominators...
 
 Starting CC iteration...
 ======================================================================
 Norm of residual vector:     0.93461352
 CPU time [min]:     0.122                   Wall time [min]:     0.123
 
 Iteration  1  CC energy:   -78.78952029  Energy decrease:   0.24153014
 ======================================================================
 Norm of residual vector:     0.18403093
 CPU time [min]:     0.147                   Wall time [min]:     0.148
 
 Iteration  2  CC energy:   -78.78470342  Energy decrease:   0.00481687
 ======================================================================
 Norm of residual vector:     0.08404679
 CPU time [min]:     0.172                   Wall time [min]:     0.174
 
 Iteration  3  CC energy:   -78.79676764  Energy decrease:   0.01206421
 ======================================================================
 Norm of residual vector:     0.04002285
 CPU time [min]:     0.198                   Wall time [min]:     0.199
 
 Iteration  4  CC energy:   -78.80289920  Energy decrease:   0.00613156
 ======================================================================
 Norm of residual vector:     0.02530797
 CPU time [min]:     0.223                   Wall time [min]:     0.225
 
 Iteration  5  CC energy:   -78.80440267  Energy decrease:   0.00150347
 ======================================================================
 Norm of residual vector:     0.01537036
 CPU time [min]:     0.249                   Wall time [min]:     0.250
 
 Iteration  6  CC energy:   -78.80503806  Energy decrease:   0.00063539
 ======================================================================
 Norm of residual vector:     0.00875807
 CPU time [min]:     0.274                   Wall time [min]:     0.276
 
 Iteration  7  CC energy:   -78.80591085  Energy decrease:   0.00087279
 ======================================================================
 Norm of residual vector:     0.00460762
 CPU time [min]:     0.300                   Wall time [min]:     0.301
 
 Iteration  8  CC energy:   -78.80590312  Energy decrease:   0.00000773
 ======================================================================
 Norm of residual vector:     0.00276849
 CPU time [min]:     0.325                   Wall time [min]:     0.327
 
 Iteration  9  CC energy:   -78.80613352  Energy decrease:   0.00023040
 ======================================================================
 Norm of residual vector:     0.00197606
 CPU time [min]:     0.350                   Wall time [min]:     0.352
 
 Iteration 10  CC energy:   -78.80624633  Energy decrease:   0.00011281
 ======================================================================
 Norm of residual vector:     0.00151159
 CPU time [min]:     0.376                   Wall time [min]:     0.378
 
 Iteration 11  CC energy:   -78.80625691  Energy decrease:   0.00001058
 ======================================================================
 Norm of residual vector:     0.00106249
 CPU time [min]:     0.402                   Wall time [min]:     0.403
 
 Iteration 12  CC energy:   -78.80636562  Energy decrease:   0.00010871
 ======================================================================
 Norm of residual vector:     0.00080718
 CPU time [min]:     0.427                   Wall time [min]:     0.429
 
 Iteration 13  CC energy:   -78.80637718  Energy decrease:   0.00001155
 ======================================================================
 Norm of residual vector:     0.00048306
 CPU time [min]:     0.453                   Wall time [min]:     0.454
 
 Iteration 14  CC energy:   -78.80636236  Energy decrease:   0.00001481
 ======================================================================
 Norm of residual vector:     0.00023627
 CPU time [min]:     0.478                   Wall time [min]:     0.480
 
 Iteration 15  CC energy:   -78.80637482  Energy decrease:   0.00001246
 ======================================================================
 Norm of residual vector:     0.00010909
 CPU time [min]:     0.504                   Wall time [min]:     0.506
 
 Iteration 16  CC energy:   -78.80637765  Energy decrease:   0.00000283
 ======================================================================
 Norm of residual vector:     0.00004809
 CPU time [min]:     0.529                   Wall time [min]:     0.531
 
 Iteration 17  CC energy:   -78.80637509  Energy decrease:   0.00000256
 ======================================================================
 Norm of residual vector:     0.00001802
 CPU time [min]:     0.555                   Wall time [min]:     0.557
 
 Iteration 18  CC energy:   -78.80637604  Energy decrease:   0.00000096
 ======================================================================
 Norm of residual vector:     0.00000767
 CPU time [min]:     0.580                   Wall time [min]:     0.582
 
 Iteration 19  CC energy:   -78.80637590  Energy decrease:   0.00000014
 ======================================================================
 
 Iteration has converged in 19 steps.
 
 Final results:
 Total CCSD energy [au]:             -78.806375902541
 
 Perturbative corrections are calculated...
 ======================================================================
 Spin case  1   Alpha:  0   Beta:  3
 Number of excitations:        7268
 CPU time [min]:     0.586                   Wall time [min]:     0.588
 ======================================================================
 Spin case  2   Alpha:  1   Beta:  2
 Number of excitations:        269892
 CPU time [min]:     0.627                   Wall time [min]:     0.629
 ======================================================================
 Spin case  3   Alpha:  2   Beta:  1
 Number of excitations:        395040
 CPU time [min]:     0.682                   Wall time [min]:     0.684
 ======================================================================
 Spin case  4   Alpha:  3   Beta:  0
 Number of excitations:        27246
 CPU time [min]:     0.689                   Wall time [min]:     0.691
 ======================================================================
 Number of 3-fold excitations: 699446
 
 
 CPU time [min]:     0.689                   Wall time [min]:     0.691
 
 Total CCSD[T] energy [au]:          -78.838666179770
 Total CCSD(T) energy [au]:          -78.829839036430
 
 Dominant cluster amplitudes
 Printing threshold:  1.00E-02
 
    1.000000  Reference determinant                                     
   -0.024782  3b -> 7b                                                  
    0.010107  3b -> 29b                                                 
   -0.327136  4b -> 7b                                                  
    0.043518  4b -> 10b                                                 
   -0.020763  4b -> 23b                                                 
   -0.011132  4b -> 26b                                                 
   -0.010174  4b -> 27b                                                 
   -0.017210  5b -> 9b                                                  
    0.015060  5b -> 13b                                                 
    0.010517  5b -> 19b                                                 
   -0.014667  5b -> 21b                                                 
    0.010081  5b -> 31b                                                 
    0.011839  5b -> 43b                                                 
   -0.024835  3a -> 7a                                                  
    0.010827  3a -> 16a                                                 
   -0.011848  3a -> 17a                                                 
   -0.012139  3a -> 26a                                                 
    0.013036  3a -> 29a                                                 
    0.140045  4a -> 7a                                                  
    0.019786  4a -> 10a                                                 
    0.012084  4a -> 23a                                                 
    0.034616  5a -> 9a                                                  
    0.023609  5a -> 19a                                                 
   -0.020261  5a -> 21a                                                 
    0.012918  5a -> 43a                                                 
    0.012734  6a -> 18a                                                 
    0.010761  6a -> 20a                                                 
   -0.012782  3b 4b -> 6b 8b                                            
   -0.012802  3b 4b -> 7b 17b                                           
    0.011839  3b 4b -> 7b 26b                                           
   -0.041080  4b 5b -> 7b 9b                                            
    0.011126  4b 5b -> 7b 13b                                           
   -0.013421  4b 5b -> 7b 19b                                           
   -0.015414  3a 3b -> 7a 7b                                            
   -0.010132  3a 3b -> 14a 7b                                           
    0.013094  3a 3b -> 26a 26b                                          
   -0.018933  4a 3b -> 7a 7b                                            
   -0.011340  4a 3b -> 27a 7b                                           
   -0.010037  4a 3b -> 32a 7b                                           
    0.020896  3a 4b -> 7a 7b                                            
   -0.011633  3a 4b -> 11a 7b                                           
    0.010229  3a 4b -> 17a 7b                                           
    0.168889  4a 4b -> 7a 7b                                            
    0.029282  4a 4b -> 10a 7b                                           
    0.030058  4a 4b -> 14a 7b                                           
    0.015596  4a 4b -> 17a 7b                                           
   -0.027373  4a 4b -> 22a 7b                                           
    0.031230  4a 4b -> 26a 7b                                           
    0.010888  4a 4b -> 44a 7b                                           
   -0.028407  4a 4b -> 7a 10b                                           
    0.025768  4a 4b -> 7a 14b                                           
    0.010262  4a 4b -> 7a 17b                                           
   -0.021413  4a 4b -> 7a 22b                                           
    0.010737  4a 4b -> 22a 22b                                          
   -0.023269  4a 4b -> 7a 26b                                           
   -0.010923  4a 4b -> 26a 26b                                          
    0.011825  4a 4b -> 44a 44b                                          
   -0.047964  5a 5b -> 7a 7b                                            
   -0.011208  5a 5b -> 14a 7b                                           
    0.011042  5a 5b -> 16a 7b                                           
   -0.013174  5a 5b -> 7a 14b                                           
    0.012776  5a 5b -> 29a 29b                                          
    0.039850  4a 4b -> 9a 9b                                            
   -0.015310  4a 4b -> 13a 9b                                           
   -0.013172  4a 4b -> 21a 9b                                           
   -0.010925  4a 4b -> 31a 9b                                           
   -0.015828  4a 4b -> 9a 13b                                           
   -0.012332  4a 4b -> 9a 21b                                           
   -0.089982  5a 5b -> 9a 9b                                            
    0.027104  5a 5b -> 13a 9b                                           
   -0.029310  5a 5b -> 19a 9b                                           
    0.026763  5a 5b -> 21a 9b                                           
   -0.010117  5a 5b -> 43a 9b                                           
    0.029462  5a 5b -> 9a 13b                                           
   -0.015247  5a 5b -> 13a 13b                                          
   -0.010397  5a 5b -> 21a 13b                                          
   -0.028015  5a 5b -> 9a 19b                                           
   -0.018576  5a 5b -> 19a 19b                                          
    0.027572  5a 5b -> 9a 21b                                           
   -0.014574  5a 5b -> 21a 21b                                          
    0.010541  5a 5b -> 31a 31b                                          
    0.010686  3a 3b -> 8a 6b                                            
    0.013537  3a 3b -> 8a 8b                                            
   -0.029307  4a 3b -> 8a 6b                                            
    0.012723  4a 3b -> 12a 6b                                           
    0.012913  4a 3b -> 20a 6b                                           
    0.011564  4a 3b -> 30a 6b                                           
   -0.014970  4a 3b -> 8a 8b                                            
    0.010014  4a 3b -> 30a 8b                                           
    0.019464  3a 4b -> 8a 6b                                            
   -0.032247  4a 4b -> 8a 8b                                            
    0.011672  4a 4b -> 20a 8b                                           
    0.011783  4a 4b -> 30a 8b                                           
    0.019937  4a 4b -> 8a 12b                                           
    0.016347  4a 4b -> 8a 20b                                           
    0.011747  5a 5b -> 8a 8b                                            
   -0.012709  5a 5b -> 28a 28b                                          
   -0.010174  3a 5b -> 11a 9b                                           
    0.014504  3a 5b -> 17a 9b                                           
    0.015122  3a 5b -> 26a 9b                                           
   -0.013113  3a 5b -> 7a 31b                                           
    0.073935  4a 5b -> 7a 9b                                            
    0.014662  4a 5b -> 10a 9b                                           
    0.015456  4a 5b -> 14a 9b                                           
   -0.011315  4a 5b -> 22a 9b                                           
    0.015204  4a 5b -> 26a 9b                                           
   -0.021822  4a 5b -> 7a 13b                                           
    0.020604  4a 5b -> 7a 19b                                           
   -0.017922  4a 5b -> 7a 21b                                           
    0.010737  5a 3b -> 29a 9b                                           
   -0.048929  5a 4b -> 7a 9b                                            
   -0.010079  5a 4b -> 14a 9b                                           
    0.017628  5a 4b -> 16a 9b                                           
    0.011824  5a 4b -> 29a 9b                                           
    0.015998  5a 4b -> 7a 13b                                           
   -0.010095  5a 4b -> 7a 19b                                           
    0.010819  5a 4b -> 7a 21b                                           
    0.047370  4a 5b -> 9a 7b                                            
   -0.013825  4a 5b -> 13a 7b                                           
    0.010572  4a 5b -> 19a 7b                                           
   -0.012373  4a 5b -> 21a 7b                                           
    0.013850  4a 5b -> 9a 14b                                           
   -0.012233  4a 5b -> 9a 16b                                           
    0.010251  4a 5b -> 9a 29b                                           
    0.016863  5a 3b -> 31a 7b                                           
    0.013690  5a 3b -> 9a 17b                                           
   -0.014529  5a 3b -> 9a 26b                                           
   -0.093310  5a 4b -> 9a 7b                                            
    0.025742  5a 4b -> 13a 7b                                           
   -0.025568  5a 4b -> 19a 7b                                           
    0.022385  5a 4b -> 21a 7b                                           
    0.018113  5a 4b -> 9a 10b                                           
   -0.016365  5a 4b -> 9a 14b                                           
    0.011271  5a 4b -> 9a 22b                                           
    0.013018  5a 4b -> 9a 26b                                           
   -0.012588  4a 5b -> 8a 15b                                           
   -0.010656  4a 5b -> 8a 28b                                           
   -0.014501  5a 3b -> 15a 6b                                           
   -0.018023  5a 3b -> 28a 6b                                           
   -0.013530  5a 3b -> 28a 8b                                           
   -0.010892  5a 4b -> 28a 8b                                           
   -0.012576  6a 3b -> 16a 6b                                           
   -0.017602  6a 3b -> 29a 6b                                           
   -0.012851  6a 3b -> 29a 8b                                           
   -0.022502  6a 4b -> 7a 6b                                            
    0.012468  6a 4b -> 17a 6b                                           
   -0.048050  6a 4b -> 7a 8b                                            
   -0.011142  6a 4b -> 14a 8b                                           
   -0.010638  6a 4b -> 29a 8b                                           
    0.018913  6a 4b -> 7a 12b                                           
   -0.012810  6a 4b -> 7a 18b                                           
    0.018437  6a 4b -> 7a 20b                                           
   -0.016207  6a 3b -> 30a 7b                                           
   -0.013721  6a 3b -> 8a 17b                                           
    0.014625  6a 3b -> 8a 26b                                           
    0.086317  6a 4b -> 8a 7b                                            
   -0.021785  6a 4b -> 12a 7b                                           
   -0.025669  6a 4b -> 18a 7b                                           
   -0.019159  6a 4b -> 20a 7b                                           
   -0.016953  6a 4b -> 8a 10b                                           
    0.016195  6a 4b -> 8a 14b                                           
   -0.011640  6a 4b -> 8a 22b                                           
   -0.014084  6a 4b -> 8a 26b                                           
   -0.012667  6a 4b -> 15a 9b                                           
   -0.011529  6a 4b -> 28a 9b                                           
   -0.017723  6a 5b -> 9a 6b                                            
   -0.024064  6a 5b -> 9a 8b                                            
    0.011019  6a 5b -> 9a 20b                                           
    0.055910  6a 5b -> 8a 9b                                            
   -0.015465  6a 5b -> 12a 9b                                           
   -0.019968  6a 5b -> 18a 9b                                           
   -0.013799  6a 5b -> 20a 9b                                           
   -0.018328  6a 5b -> 8a 13b                                           
    0.018387  6a 5b -> 8a 19b                                           
   -0.013852  6a 5b -> 18a 19b                                          
   -0.017308  6a 5b -> 8a 21b                                           
    0.011170  3a 4a -> 7a 17a                                           
    0.010124  3a 4a -> 7a 26a                                           
    0.031135  4a 5a -> 7a 9a                                            
    0.012368  4a 5a -> 7a 19a                                           
   -0.031684  4a 6a -> 7a 8a                                            
    0.013922  4a 6a -> 7a 18a                                           
   -0.010657  4a 6a -> 8a 22a                                           
   -0.035841  5a 6a -> 8a 9a                                            
   -0.010030  5a 6a -> 9a 12a                                           
    0.010925  5a 6a -> 8a 13a                                           
   -0.013577  5a 6a -> 9a 18a                                           
   -0.013027  5a 6a -> 8a 19a                                           
    0.010867  5a 6a -> 18a 19a                                          
    0.011115  5a 6a -> 8a 21a                                           
   -0.014213  5a 6a -> 28a 29a                                          

 ************************ 2021-07-31 17:17:29 *************************
 Executing goldstone...

 Generation of CC equations in terms of H and T...
 Generation of antisymmetrized Goldstone diagrams...
 Number of diagrams in T^1 equations:    15
 Number of diagrams in T^2 equations:    38
 Number of diagrams in T^3 equations:    50
 Number of diagrams in T^4 equations:     5
 Translation of diagrams to factorized equations...
 Optimizing intermediate calculation...
 Number of floating-point operations per iteration step:   9.2107E+10
 Probable CPU time per iteration step (hours):      0.92
 Required memory (Mbytes):    1343.0
 Number of intermediates:                                  80
 Number of intermediates to be stored:                     32
 Length of intermediate file (Mbytes):      57.7

 ************************ 2021-07-31 17:17:29 *************************
 Executing xmrcc...

 **********************************************************************
 CC(3)(4) calculation 
 
 
 Allocation of1343.0 Mbytes of memory...
 Number of spinorbitals:                   120
 Number of alpha electrons:                        4
 Number of beta electrons:                         3
 Spin multiplicity:                     2
 z-component of spin:  0.5
 Spatial symmetry:                      3
 Convergence criterion:  1.0E-05
 Construction of occupation graphs...
 Number of                     0 -fold excitations:                      1
 Number of                     1 -fold excitations:                    135
 Number of                     2 -fold excitations:                  13778
 Number of                     3 -fold excitations:                 699446
 Total number of configurations:                 713360
 Calculation of coupling coefficients...
 Length of intermediate file (Mbytes):      44.6
 
 ======================================================================
 
 Spin case  1   Alpha:  1   Beta:  3
 Number of excitations:                1636148
 Spin case  2   Alpha:  2   Beta:  2
 Number of excitations:               11060520
 Spin case  3   Alpha:  3   Beta:  1
 Number of excitations:                4723530
 Spin case  4   Alpha:  4   Beta:  0
 Number of excitations:                  91703
 Number of                     4 -fold excitations:               17511901
 
 Memory requirements /Mbyte/: 
               Minimal        Optimal
 Real*8:         86.2993        98.9907
 Integer:        11.4500
 Total:          97.7493       110.4407
 

 ************************ 2021-07-31 17:17:30 *************************
 Executing mrcc...

 **********************************************************************
 CCSDT(Q) calculation                                                   
 
 
 OpenMP parallel version is running.
 Number of CPU cores:   1
 Allocation of   99.0 Mbytes of memory...
 Number of spinorbitals: 120
 Number of alpha electrons:  4
 Number of beta  electrons:  3
 Spin multiplicity: 2
 z-component of spin:  0.5
 Spatial symmetry: 3
 Convergence criterion:  1.0E-05
 Construction of occupation graphs...
 Number of 0-fold excitations: 1
 Number of 1-fold excitations: 135
 Number of 2-fold excitations: 13778
 Number of 3-fold excitations: 699446
 Total number of determinants: 713360
 Calculation of coupling coefficients...
 Initial cluster amplitudes are read from unit 16.
 Length of intermediate file (Mbytes):      44.6
 Reading integral list from unit 55...
 Sorting integrals...
 Sorting integrals...
 Sorting integrals...
 Sorting integrals...
 Calculation of MP denominators...
 
 Starting CC iteration...
 ======================================================================
 Norm of residual vector:     0.31476475
 CPU time [min]:     0.225                   Wall time [min]:     0.231
 
 Iteration  1  CC energy:   -78.80637595  Energy decrease:   0.00000005
 ======================================================================
 Norm of residual vector:     0.12903925
 CPU time [min]:     0.359                   Wall time [min]:     0.366
 
 Iteration  2  CC energy:   -78.81804723  Energy decrease:   0.01167128
 ======================================================================
 Norm of residual vector:     0.05434560
 CPU time [min]:     0.494                   Wall time [min]:     0.502
 
 Iteration  3  CC energy:   -78.82389683  Energy decrease:   0.00584960
 ======================================================================
 Norm of residual vector:     0.02740062
 CPU time [min]:     0.630                   Wall time [min]:     0.638
 
 Iteration  4  CC energy:   -78.82583292  Energy decrease:   0.00193609
 ======================================================================
 Norm of residual vector:     0.01658534
 CPU time [min]:     0.767                   Wall time [min]:     0.776
 
 Iteration  5  CC energy:   -78.82783902  Energy decrease:   0.00200609
 ======================================================================
 Norm of residual vector:     0.01071898
 CPU time [min]:     0.904                   Wall time [min]:     0.913
 
 Iteration  6  CC energy:   -78.82887442  Energy decrease:   0.00103540
 ======================================================================
 Norm of residual vector:     0.00777410
 CPU time [min]:     1.042                   Wall time [min]:     1.052
 
 Iteration  7  CC energy:   -78.82935492  Energy decrease:   0.00048050
 ======================================================================
 Norm of residual vector:     0.00513741
 CPU time [min]:     1.181                   Wall time [min]:     1.191
 
 Iteration  8  CC energy:   -78.82962324  Energy decrease:   0.00026832
 ======================================================================
 Norm of residual vector:     0.00363266
 CPU time [min]:     1.321                   Wall time [min]:     1.331
 
 Iteration  9  CC energy:   -78.82978706  Energy decrease:   0.00016382
 ======================================================================
 Norm of residual vector:     0.00290138
 CPU time [min]:     1.461                   Wall time [min]:     1.472
 
 Iteration 10  CC energy:   -78.82977141  Energy decrease:   0.00001565
 ======================================================================
 Norm of residual vector:     0.00227538
 CPU time [min]:     1.602                   Wall time [min]:     1.614
 
 Iteration 11  CC energy:   -78.82980190  Energy decrease:   0.00003049
 ======================================================================
 Norm of residual vector:     0.00175945
 CPU time [min]:     1.744                   Wall time [min]:     1.756
 
 Iteration 12  CC energy:   -78.82993294  Energy decrease:   0.00013104
 ======================================================================
 Norm of residual vector:     0.00130623
 CPU time [min]:     1.887                   Wall time [min]:     1.899
 
 Iteration 13  CC energy:   -78.82992696  Energy decrease:   0.00000598
 ======================================================================
 Norm of residual vector:     0.00096754
 CPU time [min]:     2.031                   Wall time [min]:     2.043
 
 Iteration 14  CC energy:   -78.82994024  Energy decrease:   0.00001327
 ======================================================================
 Norm of residual vector:     0.00069731
 CPU time [min]:     2.175                   Wall time [min]:     2.188
 
 Iteration 15  CC energy:   -78.82995883  Energy decrease:   0.00001859
 ======================================================================
 Norm of residual vector:     0.00048133
 CPU time [min]:     2.320                   Wall time [min]:     2.334
 
 Iteration 16  CC energy:   -78.82993508  Energy decrease:   0.00002375
 ======================================================================
 Norm of residual vector:     0.00029648
 CPU time [min]:     2.466                   Wall time [min]:     2.480
 
 Iteration 17  CC energy:   -78.82992530  Energy decrease:   0.00000977
 ======================================================================
 Norm of residual vector:     0.00015305
 CPU time [min]:     2.613                   Wall time [min]:     2.627
 
 Iteration 18  CC energy:   -78.82992569  Energy decrease:   0.00000038
 ======================================================================
 Norm of residual vector:     0.00008039
 CPU time [min]:     2.761                   Wall time [min]:     2.776
 
 Iteration 19  CC energy:   -78.82992538  Energy decrease:   0.00000031
 ======================================================================
 Norm of residual vector:     0.00004057
 CPU time [min]:     2.909                   Wall time [min]:     2.925
 
 Iteration 20  CC energy:   -78.82992468  Energy decrease:   0.00000070
 ======================================================================
 Norm of residual vector:     0.00002146
 CPU time [min]:     3.058                   Wall time [min]:     3.075
 
 Iteration 21  CC energy:   -78.82992480  Energy decrease:   0.00000011
 ======================================================================
 Norm of residual vector:     0.00001097
 CPU time [min]:     3.209                   Wall time [min]:     3.225
 
 Iteration 22  CC energy:   -78.82992469  Energy decrease:   0.00000011
 ======================================================================
 Norm of residual vector:     0.00000567
 CPU time [min]:     3.340                   Wall time [min]:     3.357
 
 Iteration 23  CC energy:   -78.82992469  Energy decrease:   1.7057E-09
 ======================================================================
 
 Iteration has converged in 23 steps.
 
 Final results:
 Total CCSDT energy [au]:            -78.829924690170
 
 Perturbative corrections are calculated...
 ======================================================================
 Spin case  1   Alpha:  1   Beta:  3
 Number of excitations:        1636148
 CPU time [min]:     6.806                   Wall time [min]:     6.825
 ======================================================================
 Spin case  2   Alpha:  2   Beta:  2
 Number of excitations:        11060520
 CPU time [min]:    15.262                   Wall time [min]:    15.284
 ======================================================================
 Spin case  3   Alpha:  3   Beta:  1
 Number of excitations:        4723530
 CPU time [min]:    20.256                   Wall time [min]:    20.279
 ======================================================================
 Spin case  4   Alpha:  4   Beta:  0
 Number of excitations:        91703
 CPU time [min]:    20.609                   Wall time [min]:    20.638
 ======================================================================
 Number of 4-fold excitations: 17511901
 
 T_2^+ contribution:               0.003550084210
 T_3^+ contribution:              -0.007692620549
 T_1^+ * T_2^+ contribution:       0.005614231601
 T_1^+ * <ab||ij> contribution:    0.003087683806
 T_2^+ * f_ai contribution:        0.000007309164
 
 CPU time [min]:    20.624                   Wall time [min]:    20.656
 
 Total CCSDT[Q] energy [au]:         -78.826374605960
 Total CCSDT(Q)/A energy [au]:       -78.828452994908
 Total CCSDT(Q)/B energy [au]:       -78.830972233539
 
 Dominant cluster amplitudes
 Printing threshold:  1.00E-02
 
    1.000000  Reference determinant                                     
   -0.032106  3b -> 7b                                                  
    0.010159  3b -> 29b                                                 
   -0.359809  4b -> 7b                                                  
    0.049578  4b -> 10b                                                 
   -0.024448  4b -> 23b                                                 
   -0.013367  4b -> 26b                                                 
   -0.012300  4b -> 27b                                                 
    0.011266  5b -> 13b                                                 
    0.011093  5b -> 19b                                                 
   -0.016768  5b -> 21b                                                 
    0.010686  5b -> 31b                                                 
    0.011549  5b -> 43b                                                 
   -0.032063  3a -> 7a                                                  
    0.010831  3a -> 16a                                                 
   -0.012867  3a -> 17a                                                 
   -0.012657  3a -> 26a                                                 
    0.013138  3a -> 29a                                                 
    0.198832  4a -> 7a                                                  
    0.028009  4a -> 10a                                                 
    0.010318  4a -> 22a                                                 
    0.016386  4a -> 23a                                                 
   -0.010173  4a -> 26a                                                 
    0.043305  5a -> 9a                                                  
    0.023812  5a -> 19a                                                 
   -0.022099  5a -> 21a                                                 
    0.012570  5a -> 43a                                                 
   -0.015610  6a -> 8a                                                  
    0.014999  6a -> 18a                                                 
    0.014188  6a -> 20a                                                 
   -0.015059  3b 4b -> 6b 8b                                            
   -0.014024  3b 4b -> 7b 17b                                           
    0.012130  3b 4b -> 7b 26b                                           
   -0.054058  4b 5b -> 7b 9b                                            
   -0.012795  4b 5b -> 9b 10b                                           
    0.016320  4b 5b -> 7b 13b                                           
    0.011431  4b 5b -> 9b 16b                                           
   -0.013383  4b 5b -> 7b 19b                                           
   -0.013800  3a 3b -> 7a 7b                                            
   -0.010755  3a 3b -> 14a 7b                                           
   -0.010036  3a 3b -> 7a 14b                                           
    0.013568  3a 3b -> 26a 26b                                          
   -0.016667  4a 3b -> 7a 7b                                            
   -0.012786  4a 3b -> 27a 7b                                           
   -0.010310  4a 3b -> 32a 7b                                           
    0.010195  4a 3b -> 7a 11b                                           
    0.019938  3a 4b -> 7a 7b                                            
   -0.012277  3a 4b -> 11a 7b                                           
    0.010067  3a 4b -> 17a 7b                                           
    0.272556  4a 4b -> 7a 7b                                            
    0.043699  4a 4b -> 10a 7b                                           
    0.034525  4a 4b -> 14a 7b                                           
   -0.010496  4a 4b -> 16a 7b                                           
    0.017599  4a 4b -> 17a 7b                                           
   -0.029918  4a 4b -> 22a 7b                                           
    0.014588  4a 4b -> 23a 7b                                           
    0.032634  4a 4b -> 26a 7b                                           
    0.010440  4a 4b -> 44a 7b                                           
   -0.043727  4a 4b -> 7a 10b                                           
    0.032213  4a 4b -> 7a 14b                                           
    0.011989  4a 4b -> 7a 17b                                           
   -0.025200  4a 4b -> 7a 22b                                           
    0.010399  4a 4b -> 22a 22b                                          
    0.015101  4a 4b -> 7a 23b                                           
   -0.025341  4a 4b -> 7a 26b                                           
   -0.010163  4a 4b -> 26a 26b                                          
    0.011471  4a 4b -> 44a 44b                                          
   -0.045544  5a 5b -> 7a 7b                                            
   -0.010607  5a 5b -> 14a 7b                                           
    0.011643  5a 5b -> 16a 7b                                           
   -0.013306  5a 5b -> 7a 14b                                           
   -0.010199  5a 5b -> 16a 16b                                          
    0.013172  5a 5b -> 29a 29b                                          
    0.040833  4a 4b -> 9a 9b                                            
   -0.016070  4a 4b -> 13a 9b                                           
   -0.013857  4a 4b -> 21a 9b                                           
   -0.011004  4a 4b -> 31a 9b                                           
   -0.016627  4a 4b -> 9a 13b                                           
   -0.013074  4a 4b -> 9a 21b                                           
   -0.096993  5a 5b -> 9a 9b                                            
    0.029569  5a 5b -> 13a 9b                                           
   -0.030213  5a 5b -> 19a 9b                                           
    0.027301  5a 5b -> 21a 9b                                           
   -0.010146  5a 5b -> 43a 9b                                           
    0.032119  5a 5b -> 9a 13b                                           
   -0.016745  5a 5b -> 13a 13b                                          
   -0.010629  5a 5b -> 21a 13b                                          
   -0.029064  5a 5b -> 9a 19b                                           
   -0.019589  5a 5b -> 19a 19b                                          
    0.028358  5a 5b -> 9a 21b                                           
   -0.010187  5a 5b -> 13a 21b                                          
    0.010083  5a 5b -> 19a 21b                                          
   -0.015016  5a 5b -> 21a 21b                                          
    0.010932  5a 5b -> 31a 31b                                          
   -0.010071  5a 5b -> 43a 43b                                          
    0.012090  3a 3b -> 8a 6b                                            
    0.013759  3a 3b -> 8a 8b                                            
   -0.034741  4a 3b -> 8a 6b                                            
    0.014663  4a 3b -> 12a 6b                                           
    0.013321  4a 3b -> 20a 6b                                           
    0.011127  4a 3b -> 30a 6b                                           
   -0.016599  4a 3b -> 8a 8b                                            
    0.021327  3a 4b -> 8a 6b                                            
   -0.010878  3a 4b -> 20a 6b                                           
   -0.034487  4a 4b -> 8a 8b                                            
    0.010855  4a 4b -> 12a 8b                                           
    0.012053  4a 4b -> 20a 8b                                           
    0.011655  4a 4b -> 30a 8b                                           
    0.021942  4a 4b -> 8a 12b                                           
    0.017607  4a 4b -> 8a 20b                                           
    0.010069  4a 4b -> 8a 30b                                           
    0.011776  5a 5b -> 8a 6b                                            
    0.011507  5a 5b -> 8a 8b                                            
   -0.013062  5a 5b -> 28a 28b                                          
   -0.010370  3a 5b -> 11a 9b                                           
    0.014857  3a 5b -> 17a 9b                                           
    0.015373  3a 5b -> 26a 9b                                           
   -0.014656  3a 5b -> 7a 31b                                           
    0.099788  4a 5b -> 7a 9b                                            
    0.019549  4a 5b -> 10a 9b                                           
    0.015066  4a 5b -> 14a 9b                                           
   -0.011196  4a 5b -> 22a 9b                                           
    0.013863  4a 5b -> 26a 9b                                           
   -0.030306  4a 5b -> 7a 13b                                           
    0.023174  4a 5b -> 7a 19b                                           
   -0.020894  4a 5b -> 7a 21b                                           
    0.010180  5a 3b -> 17a 9b                                           
    0.011017  5a 3b -> 29a 9b                                           
   -0.064157  5a 4b -> 7a 9b                                            
   -0.011092  5a 4b -> 14a 9b                                           
    0.019723  5a 4b -> 16a 9b                                           
    0.012572  5a 4b -> 29a 9b                                           
    0.020180  5a 4b -> 7a 13b                                           
   -0.012657  5a 4b -> 7a 19b                                           
    0.015056  5a 4b -> 7a 21b                                           
    0.010348  3a 5b -> 9a 17b                                           
    0.061402  4a 5b -> 9a 7b                                            
   -0.017537  4a 5b -> 13a 7b                                           
    0.012572  4a 5b -> 19a 7b                                           
   -0.015807  4a 5b -> 21a 7b                                           
    0.015772  4a 5b -> 9a 14b                                           
   -0.014061  4a 5b -> 9a 16b                                           
    0.010897  4a 5b -> 9a 29b                                           
    0.017980  5a 3b -> 31a 7b                                           
    0.014280  5a 3b -> 9a 17b                                           
   -0.015072  5a 3b -> 9a 26b                                           
   -0.118226  5a 4b -> 9a 7b                                            
    0.033677  5a 4b -> 13a 7b                                           
   -0.027128  5a 4b -> 19a 7b                                           
    0.024663  5a 4b -> 21a 7b                                           
    0.023259  5a 4b -> 9a 10b                                           
   -0.010544  5a 4b -> 13a 10b                                          
   -0.015916  5a 4b -> 9a 14b                                           
    0.011064  5a 4b -> 9a 22b                                           
   -0.011204  5a 4b -> 9a 23b                                           
    0.011626  5a 4b -> 9a 26b                                           
   -0.014686  4a 5b -> 8a 15b                                           
   -0.011261  4a 5b -> 8a 28b                                           
   -0.010117  3a 5b -> 28a 6b                                           
   -0.015799  5a 3b -> 15a 6b                                           
   -0.018859  5a 3b -> 28a 6b                                           
   -0.014234  5a 3b -> 28a 8b                                           
    0.010094  5a 4b -> 15a 6b                                           
   -0.011384  5a 4b -> 28a 8b                                           
   -0.013766  6a 3b -> 16a 6b                                           
   -0.018199  6a 3b -> 29a 6b                                           
    0.010560  6a 3b -> 17a 8b                                           
   -0.013457  6a 3b -> 29a 8b                                           
   -0.089611  6a 4b -> 7a 6b                                            
    0.010556  6a 4b -> 16a 6b                                           
    0.013533  6a 4b -> 17a 6b                                           
   -0.096632  6a 4b -> 7a 8b                                            
   -0.012950  6a 4b -> 10a 8b                                           
   -0.013518  6a 4b -> 14a 8b                                           
   -0.011006  6a 4b -> 29a 8b                                           
    0.028461  6a 4b -> 7a 12b                                           
   -0.026853  6a 4b -> 7a 18b                                           
    0.034190  6a 4b -> 7a 20b                                           
   -0.010486  6a 3b -> 20a 7b                                           
   -0.017912  6a 3b -> 30a 7b                                           
   -0.014104  6a 3b -> 8a 17b                                           
    0.014919  6a 3b -> 8a 26b                                           
    0.113218  6a 4b -> 8a 7b                                            
   -0.029653  6a 4b -> 12a 7b                                           
   -0.027665  6a 4b -> 18a 7b                                           
   -0.021685  6a 4b -> 20a 7b                                           
   -0.022258  6a 4b -> 8a 10b                                           
    0.016593  6a 4b -> 8a 14b                                           
   -0.011048  6a 4b -> 8a 22b                                           
    0.010634  6a 4b -> 8a 23b                                           
   -0.012931  6a 4b -> 8a 26b                                           
   -0.010222  6a 3b -> 28a 9b                                           
   -0.014286  6a 4b -> 15a 9b                                           
   -0.012359  6a 4b -> 28a 9b                                           
   -0.031761  6a 5b -> 9a 6b                                            
   -0.033088  6a 5b -> 9a 8b                                            
   -0.011111  6a 5b -> 9a 18b                                           
    0.014093  6a 5b -> 9a 20b                                           
    0.062545  6a 5b -> 8a 9b                                            
   -0.017714  6a 5b -> 12a 9b                                           
   -0.020808  6a 5b -> 18a 9b                                           
   -0.014108  6a 5b -> 20a 9b                                           
   -0.021280  6a 5b -> 8a 13b                                           
    0.011533  6a 5b -> 12a 13b                                          
    0.018898  6a 5b -> 8a 19b                                           
   -0.014691  6a 5b -> 18a 19b                                          
   -0.017556  6a 5b -> 8a 21b                                           
    0.013285  3a 4a -> 7a 17a                                           
    0.011649  3a 4a -> 7a 26a                                           
    0.044225  4a 5a -> 7a 9a                                            
   -0.010913  4a 5a -> 9a 10a                                           
   -0.011607  4a 5a -> 7a 13a                                           
    0.013209  4a 5a -> 7a 19a                                           
   -0.048054  4a 6a -> 7a 8a                                            
    0.011372  4a 6a -> 8a 10a                                           
    0.011011  4a 6a -> 7a 12a                                           
    0.016077  4a 6a -> 7a 18a                                           
[...]
 Norm of residual vector:     0.00001924
 CPU time [min]:   115.348                   Wall time [min]:   115.661
 
 Iteration 21  CC energy:   -78.83160602  Energy decrease:   0.00000055
 ======================================================================
 Norm of residual vector:     0.00001147
 CPU time [min]:   121.059                   Wall time [min]:   121.373
 
 Iteration 22  CC energy:   -78.83160601  Energy decrease:   0.00000001
 ======================================================================
 Norm of residual vector:     0.00000647
 CPU time [min]:   126.282                   Wall time [min]:   126.599
 
 Iteration 23  CC energy:   -78.83160595  Energy decrease:   0.00000006
 ======================================================================
 
 Iteration has converged in 23 steps.
 
 Final results:
 Total CCSDTQ energy [au]:           -78.831605953362
 
 Dominant cluster amplitudes
 Printing threshold:  1.00E-02
 
    1.000000  Reference determinant                                     
   -0.031969  3b -> 7b                                                  
    0.010198  3b -> 29b                                                 
   -0.344886  4b -> 7b                                                  
    0.048059  4b -> 10b                                                 
    0.010257  4b -> 17b                                                 
   -0.024021  4b -> 23b                                                 
   -0.013642  4b -> 26b                                                 
   -0.012073  4b -> 27b                                                 
    0.011028  5b -> 19b                                                 
   -0.016699  5b -> 21b                                                 
    0.010593  5b -> 31b                                                 
    0.011428  5b -> 43b                                                 
   -0.032125  3a -> 7a                                                  
    0.010825  3a -> 16a                                                 
   -0.012626  3a -> 17a                                                 
   -0.012379  3a -> 26a                                                 
    0.013156  3a -> 29a                                                 
    0.200244  4a -> 7a                                                  
    0.028540  4a -> 10a                                                 
    0.016716  4a -> 23a                                                 
    0.045224  5a -> 9a                                                  
    0.023377  5a -> 19a                                                 
   -0.021710  5a -> 21a                                                 
    0.012407  5a -> 43a                                                 
   -0.017907  6a -> 8a                                                  
    0.014706  6a -> 18a                                                 
    0.014142  6a -> 20a                                                 
   -0.015008  3b 4b -> 6b 8b                                            
   -0.013711  3b 4b -> 7b 17b                                           
    0.011652  3b 4b -> 7b 26b                                           
   -0.056821  4b 5b -> 7b 9b                                            
   -0.013512  4b 5b -> 9b 10b                                           
    0.017322  4b 5b -> 7b 13b                                           
    0.011389  4b 5b -> 9b 16b                                           
   -0.013305  4b 5b -> 7b 19b                                           
   -0.013506  3a 3b -> 7a 7b                                            
   -0.010688  3a 3b -> 14a 7b                                           
   -0.010043  3a 3b -> 7a 14b                                           
    0.013588  3a 3b -> 26a 26b                                          
   -0.016670  4a 3b -> 7a 7b                                            
   -0.012610  4a 3b -> 27a 7b                                           
   -0.010221  4a 3b -> 32a 7b                                           
    0.010166  4a 3b -> 7a 11b                                           
    0.020107  3a 4b -> 7a 7b                                            
   -0.012163  3a 4b -> 11a 7b                                           
    0.280137  4a 4b -> 7a 7b                                            
    0.044604  4a 4b -> 10a 7b                                           
    0.034646  4a 4b -> 14a 7b                                           
   -0.010558  4a 4b -> 16a 7b                                           
    0.017423  4a 4b -> 17a 7b                                           
   -0.029446  4a 4b -> 22a 7b                                           
    0.015210  4a 4b -> 23a 7b                                           
    0.032029  4a 4b -> 26a 7b                                           
    0.010117  4a 4b -> 44a 7b                                           
   -0.044840  4a 4b -> 7a 10b                                           
    0.032967  4a 4b -> 7a 14b                                           
    0.012124  4a 4b -> 7a 17b                                           
   -0.025342  4a 4b -> 7a 22b                                           
    0.010496  4a 4b -> 22a 22b                                          
    0.015719  4a 4b -> 7a 23b                                           
   -0.025304  4a 4b -> 7a 26b                                           
   -0.010225  4a 4b -> 26a 26b                                          
    0.011503  4a 4b -> 44a 44b                                          
   -0.039364  5a 5b -> 7a 7b                                            
   -0.010085  5a 5b -> 14a 7b                                           
    0.011537  5a 5b -> 16a 7b                                           
   -0.012790  5a 5b -> 7a 14b                                           
   -0.010199  5a 5b -> 16a 16b                                          
    0.013296  5a 5b -> 29a 29b                                          
    0.039289  4a 4b -> 9a 9b                                            
   -0.015520  4a 4b -> 13a 9b                                           
   -0.014075  4a 4b -> 21a 9b                                           
   -0.011161  4a 4b -> 31a 9b                                           
   -0.016073  4a 4b -> 9a 13b                                           
   -0.013373  4a 4b -> 9a 21b                                           
    0.010027  4a 4b -> 9a 31b                                           
   -0.096889  5a 5b -> 9a 9b                                            
    0.029472  5a 5b -> 13a 9b                                           
   -0.030301  5a 5b -> 19a 9b                                           
    0.027276  5a 5b -> 21a 9b                                           
   -0.010128  5a 5b -> 43a 9b                                           
    0.031964  5a 5b -> 9a 13b                                           
   -0.016692  5a 5b -> 13a 13b                                          
   -0.010531  5a 5b -> 21a 13b                                          
   -0.029232  5a 5b -> 9a 19b                                           
   -0.019861  5a 5b -> 19a 19b                                          
    0.028422  5a 5b -> 9a 21b                                           
   -0.010127  5a 5b -> 13a 21b                                          
    0.010237  5a 5b -> 19a 21b                                          
   -0.015215  5a 5b -> 21a 21b                                          
    0.011032  5a 5b -> 31a 31b                                          
   -0.010103  5a 5b -> 43a 43b                                          
    0.011859  3a 3b -> 8a 6b                                            
    0.013615  3a 3b -> 8a 8b                                            
   -0.035170  4a 3b -> 8a 6b                                            
    0.014811  4a 3b -> 12a 6b                                           
    0.013376  4a 3b -> 20a 6b                                           
    0.011161  4a 3b -> 30a 6b                                           
   -0.016614  4a 3b -> 8a 8b                                            
    0.021117  3a 4b -> 8a 6b                                            
   -0.010982  3a 4b -> 20a 6b                                           
   -0.034210  4a 4b -> 8a 8b                                            
    0.010727  4a 4b -> 12a 8b                                           
    0.012203  4a 4b -> 20a 8b                                           
    0.011727  4a 4b -> 30a 8b                                           
    0.021554  4a 4b -> 8a 12b                                           
    0.017966  4a 4b -> 8a 20b                                           
    0.010335  4a 4b -> 8a 30b                                           
    0.011453  5a 5b -> 8a 6b                                            
    0.011799  5a 5b -> 8a 8b                                            
   -0.013184  5a 5b -> 28a 28b                                          
   -0.010346  3a 5b -> 11a 9b                                           
    0.014858  3a 5b -> 17a 9b                                           
    0.015347  3a 5b -> 26a 9b                                           
   -0.014606  3a 5b -> 7a 31b                                           
    0.102074  4a 5b -> 7a 9b                                            
    0.020128  4a 5b -> 10a 9b                                           
    0.014871  4a 5b -> 14a 9b                                           
   -0.011145  4a 5b -> 22a 9b                                           
    0.013670  4a 5b -> 26a 9b                                           
   -0.031121  4a 5b -> 7a 13b                                           
    0.023087  4a 5b -> 7a 19b                                           
   -0.020954  4a 5b -> 7a 21b                                           
    0.010184  5a 3b -> 17a 9b                                           
    0.010910  5a 3b -> 29a 9b                                           
   -0.062951  5a 4b -> 7a 9b                                            
   -0.011053  5a 4b -> 14a 9b                                           
    0.019571  5a 4b -> 16a 9b                                           
    0.012618  5a 4b -> 29a 9b                                           
    0.019629  5a 4b -> 7a 13b                                           
   -0.012614  5a 4b -> 7a 19b                                           
    0.015555  5a 4b -> 7a 21b                                           
    0.010389  3a 5b -> 9a 17b                                           
    0.059990  4a 5b -> 9a 7b                                            
   -0.017148  4a 5b -> 13a 7b                                           
    0.012273  4a 5b -> 19a 7b                                           
   -0.015993  4a 5b -> 21a 7b                                           
    0.015777  4a 5b -> 9a 14b                                           
   -0.014096  4a 5b -> 9a 16b                                           
    0.010991  4a 5b -> 9a 29b                                           
    0.017629  5a 3b -> 31a 7b                                           
    0.014354  5a 3b -> 9a 17b                                           
   -0.015130  5a 3b -> 9a 26b                                           
   -0.118785  5a 4b -> 9a 7b                                            
    0.033930  5a 4b -> 13a 7b                                           
   -0.026680  5a 4b -> 19a 7b                                           
    0.024370  5a 4b -> 21a 7b                                           
    0.023538  5a 4b -> 9a 10b                                           
   -0.010570  5a 4b -> 13a 10b                                          
   -0.015780  5a 4b -> 9a 14b                                           
    0.011038  5a 4b -> 9a 22b                                           
   -0.011417  5a 4b -> 9a 23b                                           
    0.011607  5a 4b -> 9a 26b                                           
   -0.014762  4a 5b -> 8a 15b                                           
   -0.011348  4a 5b -> 8a 28b                                           
   -0.010164  3a 5b -> 28a 6b                                           
   -0.015841  5a 3b -> 15a 6b                                           
   -0.018936  5a 3b -> 28a 6b                                           
   -0.014298  5a 3b -> 28a 8b                                           
    0.010061  5a 4b -> 15a 6b                                           
   -0.011416  5a 4b -> 28a 8b                                           
   -0.013820  6a 3b -> 16a 6b                                           
   -0.018286  6a 3b -> 29a 6b                                           
    0.010624  6a 3b -> 17a 8b                                           
   -0.013541  6a 3b -> 29a 8b                                           
   -0.105103  6a 4b -> 7a 6b                                            
   -0.011391  6a 4b -> 10a 6b                                           
    0.010822  6a 4b -> 16a 6b                                           
    0.013381  6a 4b -> 17a 6b                                           
   -0.104233  6a 4b -> 7a 8b                                            
   -0.013952  6a 4b -> 10a 8b                                           
   -0.013748  6a 4b -> 14a 8b                                           
   -0.011039  6a 4b -> 29a 8b                                           
    0.028981  6a 4b -> 7a 12b                                           
   -0.029235  6a 4b -> 7a 18b                                           
    0.036701  6a 4b -> 7a 20b                                           
   -0.010239  6a 3b -> 20a 7b                                           
   -0.017652  6a 3b -> 30a 7b                                           
   -0.014107  6a 3b -> 8a 17b                                           
    0.014907  6a 3b -> 8a 26b                                           
    0.115129  6a 4b -> 8a 7b                                            
   -0.030236  6a 4b -> 12a 7b                                           
   -0.027413  6a 4b -> 18a 7b                                           
   -0.021530  6a 4b -> 20a 7b                                           
   -0.022693  6a 4b -> 8a 10b                                           
    0.016678  6a 4b -> 8a 14b                                           
   -0.010950  6a 4b -> 8a 22b                                           
    0.010890  6a 4b -> 8a 23b                                           
   -0.012946  6a 4b -> 8a 26b                                           
   -0.010128  6a 3b -> 28a 9b                                           
   -0.014179  6a 4b -> 15a 9b                                           
   -0.012389  6a 4b -> 28a 9b                                           
   -0.033144  6a 5b -> 9a 6b                                            
   -0.033673  6a 5b -> 9a 8b                                            
   -0.011314  6a 5b -> 9a 18b                                           
    0.014300  6a 5b -> 9a 20b                                           
    0.062108  6a 5b -> 8a 9b                                            
   -0.017594  6a 5b -> 12a 9b                                           
   -0.020785  6a 5b -> 18a 9b                                           
   -0.014045  6a 5b -> 20a 9b                                           
   -0.021110  6a 5b -> 8a 13b                                           
    0.011497  6a 5b -> 12a 13b                                          
    0.018879  6a 5b -> 8a 19b                                           
   -0.014875  6a 5b -> 18a 19b                                          
   -0.017563  6a 5b -> 8a 21b                                           
    0.013258  3a 4a -> 7a 17a                                           
    0.011471  3a 4a -> 7a 26a                                           
    0.047382  4a 5a -> 7a 9a                                            
   -0.011649  4a 5a -> 9a 10a                                           
   -0.012647  4a 5a -> 7a 13a                                           
   -0.010138  4a 5a -> 8a 15a                                           
    0.013314  4a 5a -> 7a 19a                                           
    0.010053  4a 5a -> 9a 22a                                           
   -0.052056  4a 6a -> 7a 8a                                            
    0.012116  4a 6a -> 8a 10a                                           
    0.012068  4a 6a -> 7a 12a                                           
    0.016456  4a 6a -> 7a 18a                                           
    0.010528  4a 6a -> 7a 20a                                           
   -0.010936  4a 6a -> 8a 22a                                           
   -0.041619  5a 6a -> 8a 9a                                            
   -0.012054  5a 6a -> 9a 12a                                           
    0.013366  5a 6a -> 8a 13a                                           
   -0.010836  5a 6a -> 15a 16a                                          
   -0.014581  5a 6a -> 9a 18a                                           
   -0.013529  5a 6a -> 8a 19a                                           
    0.011859  5a 6a -> 18a 19a                                          
    0.010827  5a 6a -> 8a 21a                                           
   -0.014928  5a 6a -> 28a 29a                                          
   -0.019735  5a 4b 5b -> 9a 7b 9b                                      
    0.066914  4a 4b 5b -> 7a 7b 9b                                      
    0.011649  4a 4b 5b -> 10a 7b 9b                                     
    0.012067  4a 4b 5b -> 7a 9b 10b                                     
   -0.021241  4a 4b 5b -> 7a 7b 13b                                     
    0.012286  4a 4b 5b -> 7a 7b 19b                                     
   -0.013388  6a 4b 5b -> 7a 6b 9b                                      
   -0.012450  6a 4b 5b -> 7a 8b 9b                                      
    0.018319  6a 4b 5b -> 8a 7b 9b                                      
    0.016959  4a 5a 5b -> 7a 9a 9b                                      
    0.065028  4a 5a 4b -> 7a 9a 7b                                      
   -0.011750  4a 5a 4b -> 9a 10a 7b                                     
   -0.019058  4a 5a 4b -> 7a 13a 7b                                     
    0.012598  4a 5a 4b -> 7a 19a 7b                                     
   -0.011613  4a 5a 4b -> 7a 9a 10b                                     
   -0.069690  4a 6a 4b -> 7a 8a 7b                                      
    0.012220  4a 6a 4b -> 8a 10a 7b                                     
    0.018388  4a 6a 4b -> 7a 12a 7b                                     
    0.014949  4a 6a 4b -> 7a 18a 7b                                     
    0.011502  4a 6a 4b -> 7a 20a 7b                                     
    0.012310  4a 6a 4b -> 7a 8a 10b                                     
   -0.012508  5a 6a 5b -> 8a 9a 9b                                      
   -0.016087  4a 6a 5b -> 7a 8a 9b                                      
    0.013422  5a 6a 4b -> 7a 8a 9b                                      
    0.012548  4a 6a 5b -> 8a 9a 7b                                      
   -0.026000  5a 6a 4b -> 8a 9a 7b                                      
    0.024538  4a 5a 4b 5b -> 7a 9a 7b 9b                                
   -0.021218  4a 6a 4b 5b -> 7a 8a 7b 9b                                
    0.015894  4a 5a 6a 4b -> 7a 8a 9a 7b                                
 
 ************************ 2021-07-31 19:44:51 *************************
                      Normal termination of mrcc.
 **********************************************************************
