 --invoking executable--
/home/nike/cfour_v2.00beta/bin/xjoda


   *************************************************************************
         <<<     CCCCCC     CCCCCC   |||     CCCCCC     CCCCCC   >>>
       <<<      CCC        CCC       |||    CCC        CCC         >>>
      <<<      CCC        CCC        |||   CCC        CCC            >>>
    <<<        CCC        CCC        |||   CCC        CCC              >>>
      <<<      CCC        CCC        |||   CCC        CCC            >>>
       <<<      CCC        CCC       |||    CCC        CCC         >>>
         <<<     CCCCCC     CCCCCC   |||     CCCCCC     CCCCCC   >>>
   *************************************************************************

     ****************************************************************
     * CFOUR Coupled-Cluster techniques for Computational Chemistry *
     ****************************************************************
 

   Department of Chemistry                Institut fuer Physikalische Chemie
   University of Texas at Austin          Universitaet Mainz
   Austin, TX  78712, USA                 D-55099 Mainz, Germany
 
                       Version 2.00beta
 
                     wob142                                            
                     Tue Oct 10 23:45:29 EDT 2017                      
                     integer*8 version is running
 
********************************************************************************
*                          Input from ZMAT file                                *
********************************************************************************
Li2                                                                             
Li                                                                              
Li 1 R                                                                          
                                                                                
R=4.170                                                                         
                                                                                
*ACES2(CALC=CCSDT                                                               
cctol=9                                                                         
CC_MAXCYC=999                                                                   
REFERENCE=ROHF                                                                  
MULT=3                                                                          
ABCDTYPE=STANDARD                                                               
MEM=710                                                                         
MEM_UNIT=GB                                                                     
BASIS=SPECIAL)                                                                  
                                                                                
LI:aCV6Z-KOPUT                                                                  
LI:aCV6Z-KOPUT                                                                  
                                                                                
********************************************************************************
  @GTFLGS-W, Keyword cctol not known and is ignored.
    -------------------------------------------------------------------
                    CFOUR Control Parameters 
    -------------------------------------------------------------------
        External           Internal           Value            Units
          Name               Name
    -------------------------------------------------------------------
       ABCDTYPE             IABCDT         STANDARD     [  0]   ***   
       ANHARMONIC           IANHAR         OFF          [  0]   ***   
       ANH_ALGORIT          IANALG         STANDARD     [  0]   ***   
       ANH_DERIVAT          IANDER         SECOND       [  1]   ***   
       ANH_STEPSIZ          ICUBST             50000          x 10-6  
       ANH_SYMMETR          IANHSM         ABELIAN      [  0]   ***   
       AO_LADDERS           IAOLAD         SINGLEPASS   [  1]   ***   
       BASIS                IBASIS         SPECIAL      [  0]   ***   
       BREIT                IBREIT         OFF          [  0]   ***   
       BRUCK_CONV           IBRTOL          10D-  4             ***   
       BRUECKNER            IBRKNR             OFF      [  0]   ***   
       BUFFERSIZE           IBUFFS            600               ***   
       CACHE_RECS           ICHREC             10               ***   
       CALCLEVEL            ICLLVL           CCSDT      [ 18]   ***   
       CCORBOPT             ICCORB             OFF      [  0] x 0.01  
       CC_CONV              ICCCNV          10D-  7             ***   
       CC_EXPORDER          ICCEOR              5               ***   
       CC_EXTRAPOL          ICCEXT             DIIS     [  1]   ***   
       CC_MAXCYC            ICCCYC            999              cycles 
       CC_PROGRAM           ICCPRO         VCC          [  0]   ***   
       CHARGE               ICHRGE              0               ***   
       CHOLESKY             ICHOLE         OFF          [  0]   ***   
       CIS_CONV             ICISTL              5               ***   
       COMM_SIZE            IPSIZE            ***               ***   
       CONSTANT             ICONST         OLD          [  1]   ***   
       CONTINUUM            ICONTU         NONE         [  0]   ***   
       CONTRACTION          ICNTYP          GENERAL     [  1]   ***   
       COORDINATES          ICOORD         INTERNAL     [  0]   ***   
       CPHF_CONVER          ICPHFT          10D- 16             ***   
       CPHF_MAXCYC          ICPHFC             64              cycles 
       CUBIC                ICUBIC         OFF          [  0]   ***   
       CURVILINEAR          ICURVY            OFF       [  0]   ***   
       DBOC                 IDBOC          OFF          [  0]   ***   
       DCT                  IDCT           OFF          [  0]   ***   
       DERIV_LEV            IDRLVL            ZERO      [  0]   ***   
       DIAG_MRCC            IEOMST          10D-  0             ***   
       DIFF_TYPE            IDIFTY         RELAXED      [  0]   ***   
       DIRECT               IDIRCT         OFF          [  0]   ***   
       DROPMO               IDRPMO      NONE         
       ECP                  IECP           OFF          [  0]   ***   
       EIGENVECTOR          IVEC                1               ***   
       EL_ANHARM            IELANH         OFF          [  0]   ***   
       EOMFOLLOW            IEOMSR         ENERGY       [  0]   ***   
       EOM_MRCC             IMRCCE         NEW          [  1]   ***   
       EOM_NONIT            EOMNON         OFF          [  0]   ***   
       EOM_NSING            IEOMSI          10D-  0             ***   
       EOM_NSTATES          IMRCCD         DAVIDSON     [  0]   ***   
       EOM_NTRIP            IEOMTR          10D-  0             ***   
       EOM_ORDER            IEXORD         ENERGY       [  0]   ***   
       ESTATE_CONV          IEXTOL          10D-  5             ***   
       ESTATE_DIAG          IEXDIG         ITERATIVE    [  0]   ***   
       ESTATE_LOCK          IESLOC         ON           [  1]   ***   
       ESTATE_MAXC          IEXMXC             20               ***   
       ESTATE_PROP          IEXPRP         OFF          [  0]   ***   
       EVAL_HESS            IRECAL              0            # of cyc.
       EXCITATION           IEXCIT              0               ***   
       EXCITE               IEXCIT         NONE         [  0]   ***   
       FCGRADNEW            IFCGNW         OFF          [  0]   ***   
       FC_FIELD             IFINFC              0             x 10-6  
       FD_CALTYPE           IFDCAL         GRADONLY     [  0]   ***   
       FD_PROJECT           IFDPRJ         OFF          [  1]   ***   
       FD_STEPSIZE          IDISFD              0            10-4 bohr
       FD_USEGROUP          IFDGRP         FULL         [  0]   ***   
       FILE_RECSIZ          IFLREC              4096           words  
       FINITE_PERT          IFIPER              0             x 10-6  
       FIXGEOM              IFIXGM         OFF          [  0]   ***   
       FOCK                 IFOCK          AO           [  1]   ***   
       FREQ_ALGORI          IVIALG         STANDARD     [  0]   ***   
       FROZEN_CORE          IFROCO         OFF          [  0]   ***   
       FROZEN_VIRT          IFROVI         OFF          [  0]   ***   
       GAMMA_ABCD           IGABCD         STORE        [  0]   ***   
       GAMMA_ABCI           IGABCI         STORE        [  0]   ***   
       GENBAS_1             IGNBS1              0               ***   
       GENBAS_2             IGNBS2              0               ***   
       GENBAS_3             IGNBS3              0               ***   
       GENBAS_4             IGNBS4              0               ***   
       GEO_CONV             ICONTL              5              H/bohr 
       GEO_MAXCYC           IOPTCY             50               ***   
       GEO_MAXSTEP          IMXSTP            300            millibohr
       GEO_METHOD           INR            SINGLE_POINT [  5]   ***   
       GIAO                 IGIAO          OFF          [  1]   ***   
       GIMIC                IGIMIC         OFF          [  0]   ***   
       GRID                 IGRID          OFF          [  0]   ***   
       GRID_ALGO            IGALGO         SERIAL       [  0]   ***   
       GUESS                IGUESS            MOREAD    [  0]   ***   
       HBAR                 IHBAR              OFF      [  0]   ***   
       HESS_TYPE            IHESTP         SCF          [  0]   ***   
       HF2_FILE             IHF2Fl         USE          [  1]   ***   
       HFSTABILITY          ISTABL         OFF          [  0]   ***   
       INCORE               INCORE             OFF      [  0]   ***   
       INPUT_MRCC           IMRCC          ON           [  1]   ***   
       INTEGRALS            INTTYP             VMOL     [  1]   ***   
       JODA_PRINT           IJPRNT              0               ***   
       LINDEP_TOL           ILINDP              8               ***   
       LINEQ_CONV           IZTACN          10D-  7           cycles  
       LINEQ_EXPOR          ILMAXD              5               ***   
       LINEQ_MAXCY          ILMAXC             50               ***   
       LINEQ_TYPE           ILTYPE         DIIS         [  1]   ***   
       LOCK_ORBOCC          ILOCOC             OFF      [  0]   ***   
       MEMORY_SIZE          IMEMSZ         *********           words  
       MEM_UNIT             IMEMU          GB           [  3]   ***   
       MRCC                 IMRCCC         OFF          [  0]   ***   
       MULTIPLICTY          IMULTP              3               ***   
       NEGEVAL              IDIE             ABORT      [  0]   ***   
       NEWNORM              INEWNO         OFF          [  0]   ***   
       NON-HF               INONHF              ON      [  1]   ***   
       NTOP_TAMP            ITOPT2             15               ***   
       NUC_MODEL            INUCMO         POINT        [  0]   ***   
       OCCUPATION           IOCCU   ESTIMATED BY SCF 
       OPEN-SHELL           IOPEN          SPIN-ORBITAL [  0]   ***   
       ORBITALS             IORBTP         SEMICANONICAL[  1]   ***   
       PARALLEL             IPARAL         ON           [  1]   ***   
       PARA_INT             IPINTS         ON           [  1]   ***   
       PARA_PRINT           IPPRIN              0               ***   
       PERT_ORB             IPTORB         STANDARD     [  0]   ***   
       POINTS               IGRDFD              0               ***   
       PRINT                IPRNT               0               ***   
       PROPS                IPROPS             OFF      [  0]   ***   
       PROP_INTEGR          IINTYP         INTERNAL     [  0]   ***   
       PSI                  IPSI           OFF          [  0]   ***   
       QUARTIC              IQUART         OFF          [  0]   ***   
       RAMAN_INT            IRAMIN         OFF          [  0]   ***   
       RAMAN_ORB            IRAMRE         UNRELAXED    [  0]   ***   
       RDO                  IRDOFM             OFF      [  0]   ***   
       REFERENCE            IREFNC             ROHF     [  2]   ***   
       RELATIVIST           IRELAT         OFF          [  0]   ***   
       RELAX_DENS           IRDENS             OFF      [  0]   ***   
       RESET_FLAGS          IRESET             OFF      [  0]   ***   
       RESTART_CC           ICCRES         OFF          [  0]   ***   
       ROT_EVEC             ROTVEC              0               ***   
       SAVE_INTS            ISVINT             OFF      [  0]   ***   
       SCALE_ON             ISTCRT              0               ***   
       SCF_CONV             ISCFCV          10D-  7             ***   
       SCF_DAMPING          IDAMP               0             x 10-3  
       SCF_EXPORDE          IRPPOR              6               ***   
       SCF_EXPSTAR          IRPPLS              8               ***   
       SCF_EXTRAPO          IRPP                ON      [  1]   ***   
       SCF_MAXCYC           ISCFCY            150              cycles 
       SCF_NOSTOP           ISCFST         OFF          [  0]   ***   
       SCF_PRINT            ISCFPR              0               ***   
       SD_FIELD             IFINSD              0             x 10-6  
       SEQUENCE             ISEQUE         OFF          [  0]   ***   
       SOPERT               IPERSO         OFF          [  0]   ***   
       SPHERICAL            IDFGHI             ON       [  1]   ***   
       SPINORBIT            ISOCAL         OFF          [  0]   ***   
       SPINROTATIO          ISRCON         OFF          [  0]   ***   
       SPIN_FLIP            ISPFLP         OFF          [  0]   ***   
       SPIN_ORBIT           ISPORB         OFF          [  0]   ***   
       SPIN_SCAL            ISCSMP         OFF          [  0]   ***   
       SUBGROUP             ISUBGP         DEFAULT      [  0]   ***   
       SUBGRPAXIS           ISBXYZ         X            [  0]   ***   
       SYMMETRY             ISYM             ON         [  0]   ***   
       SYM_CHECK            ISYMCK         OVERRIDE     [  1]   ***   
       T3_EXTRAPOL          IT3EXT         OFF          [  0]   ***   
       TAMP_SUM             IEVERY              5               ***   
       TESTSUITE            ITESTS         OFF          [  0]   ***   
       THERMOCH             ITHERM         OFF          [  0]   ***   
       TOL_CHOLESK          ITOLCH          10D-  4             ***   
       TRANGRAD             IRESRM         OFF          [  0]   ***   
       TRANS_INV            ITRAIN         USE          [  0]   ***   
       TREAT_PERT           ITREAT         SIMULTANEOUS [  0]   ***   
       UIJ_THRESHO          IUIJTH              1               ***   
       UNITS                IUNITS         ANGSTROM     [  0]   ***   
       UNOS                 IUNOS          OFF          [  0]   ***   
       UPDATE_HESS          IHUPDT         ON           [  1]   ***   
       VIBPHASE             ISETPH         STANDARD     [  0]   ***   
       VIBRATION            IVIB              NO        [  0]   ***   
       VIB_ALGORIT          IGEALG         STANDARD     [  0]   ***   
       VNATORB              IVNORB         OFF          [  0]   ***   
       VTRAN                IVTRAN         FULL/PARTIAL [  0]   ***   
       XFIELD               IXEFLD              0             x 10-6  
       XFORM_TOL            IXFTOL          10D- 11             ***   
       YFIELD               IYEFLD              0             x 10-6  
       ZFIELD               IZEFLD              0             x 10-6  
    -------------------------------------------------------------------
   2 entries found in Z-matrix 
   Job Title : Li2                                                                             
   There are  1 unique internal coordinates.
   Of these,  0 will be optimized.
   User supplied Z-matrix: 
--------------------------------------------------------------------------------
       SYMBOL    BOND      LENGTH    ANGLE     ANGLE     DIHED     ANGLE
                  TO      (ANGST)    WRT      (DEG)      WRT      (DEG)
--------------------------------------------------------------------------------
        Li   
        Li         1         R    
                  *Initial values for internal coordinates* 
                      Name             Value
                        R               4.1700000000
--------------------------------------------------------------------------------
  1  LI         3     7.01600
  2  LI         3     7.01600
 factor:   60.1997200000000     
   Rotational constants (in cm-1): 
          0.2763533126             0.2763533126
   Rotational constants (in MHz): 
       8284.8650478640          8284.8650478640
********************************************************************************
   The full molecular point group is DXh .
   The largest Abelian subgroup of the full molecular point group is D2h .
   The computational point group is D2h .
********************************************************************************
--------------------------------------------------------------------------------
   Analysis of internal coordinates specified by Z-matrix 
--------------------------------------------------------------------------------
   *The nuclear repulsion energy is    1.142108848920863 a.u.
   *There is   1 degree of freedom within the tot. symm. molecular subspace.
   *Z-matrix requests optimization of   0 coordinates.
   *The optimization is constrained.
   *The following   1 parameters can have non-zero 
    derivatives within the totally symmetric subspace:
             R    [ 1]
   *The following   0 parameters are to be optimized:

   *The following coordinates must be varied in an  unconstrained optimization.
             R    [ 1]
--------------------------------------------------------------------------------
 ----------------------------------------------------------------
 Z-matrix   Atomic            Coordinates (in bohr)
  Symbol    Number           X              Y              Z
 ----------------------------------------------------------------
     LI        3         0.00000000     0.00000000     3.94007980
     LI        3         0.00000000     0.00000000    -3.94007980
 ----------------------------------------------------------------
   Interatomic distance matrix (Angstroms) 
 
                 LI            LI   
                [ 1]        [ 2]
  LI   [ 1]     0.00000
  LI   [ 2]     4.17000     0.00000
   Rotational constants (in cm-1): 
          0.2763533126             0.0000000000
   Rotational constants (in MHz): 
       8284.8650478640             0.0000000000
  @GTFLGS-W, Keyword cctol not known and is ignored.
  There are  558 basis functions.
 @GEOPT-W, Archive file not created for single-point calculation.
  @CHECKOUT-I, Total execution time (CPU/WALL):        0.11/       1.41 seconds.
--executable xjoda finished with status     0 in        1.59 seconds (walltime).
 --invoking executable--
/home/nike/cfour_v2.00beta/bin/xvmol
 Serial version of molecule started
********************************************************************************
                    Input from MOL file
********************************************************************************
INTGRL        1    0    1    0    0    0    0    0    0                         
         *** CFOUR Program System (Release V0.1) ***                            
Li2                                                                             
    1    3 X  Y   Z   0.10E-08              0    0                              
   9999.00      3.00                                                            
          3.00000000    1    7    1    1    1    1    1    1    1               
LI#1   0.000000000000000   0.000000000000000   3.940079795592062                
   22   13                                                                      
   103207.000000000       4.000000000000000E-006  1.000000000000000E-006        
  0.000000000000000E+000  0.000000000000000E+000  0.000000000000000E+000        
  0.000000000000000E+000  0.000000000000000E+000  0.000000000000000E+000        
  0.000000000000000E+000  0.000000000000000E+000  0.000000000000000E+000        
  0.000000000000000E+000  0.000000000000000E+000                                
   15664.8000000000       2.900000000000000E-005  5.000000000000000E-006        
  0.000000000000000E+000  0.000000000000000E+000  0.000000000000000E+000        
  0.000000000000000E+000  0.000000000000000E+000  0.000000000000000E+000        
  0.000000000000000E+000  0.000000000000000E+000  0.000000000000000E+000        
  0.000000000000000E+000  0.000000000000000E+000                                
   3600.84000000000       1.490000000000000E-004  2.300000000000000E-005        
  0.000000000000000E+000  0.000000000000000E+000  0.000000000000000E+000        
  0.000000000000000E+000  0.000000000000000E+000  0.000000000000000E+000        
  0.000000000000000E+000  0.000000000000000E+000  0.000000000000000E+000        
  0.000000000000000E+000  0.000000000000000E+000                                
   1026.35000000000       6.270000000000000E-004  9.800000000000000E-005        
  0.000000000000000E+000  0.000000000000000E+000  0.000000000000000E+000        
  0.000000000000000E+000  0.000000000000000E+000  0.000000000000000E+000        
  0.000000000000000E+000  0.000000000000000E+000  0.000000000000000E+000        
  0.000000000000000E+000  0.000000000000000E+000                                
   335.925000000000       2.274000000000000E-003  3.550000000000000E-004        
  0.000000000000000E+000  0.000000000000000E+000  0.000000000000000E+000        
  0.000000000000000E+000  0.000000000000000E+000  0.000000000000000E+000        
  0.000000000000000E+000  0.000000000000000E+000  0.000000000000000E+000        
  0.000000000000000E+000  0.000000000000000E+000                                
   121.409000000000       7.358000000000000E-003  1.159000000000000E-003        
  0.000000000000000E+000  0.000000000000000E+000  0.000000000000000E+000        
  0.000000000000000E+000  0.000000000000000E+000  0.000000000000000E+000        
  0.000000000000000E+000  0.000000000000000E+000  0.000000000000000E+000        
  0.000000000000000E+000  0.000000000000000E+000                                
   47.3372000000000       2.145000000000000E-002  3.373000000000000E-003        
  0.000000000000000E+000  0.000000000000000E+000  0.000000000000000E+000        
  0.000000000000000E+000  0.000000000000000E+000  0.000000000000000E+000        
  0.000000000000000E+000  0.000000000000000E+000  0.000000000000000E+000        
  0.000000000000000E+000  0.000000000000000E+000                                
   19.6309000000000       5.559900000000000E-002  8.978000000000000E-003        
  0.000000000000000E+000  0.000000000000000E+000  0.000000000000000E+000        
  0.000000000000000E+000  0.000000000000000E+000  0.000000000000000E+000        
  0.000000000000000E+000  0.000000000000000E+000  0.000000000000000E+000        
  0.000000000000000E+000  0.000000000000000E+000                                
   8.54706000000000       0.124328000000000       2.042300000000000E-002        
  0.000000000000000E+000  0.000000000000000E+000  0.000000000000000E+000        
  0.000000000000000E+000  0.000000000000000E+000  0.000000000000000E+000        
  0.000000000000000E+000  0.000000000000000E+000  0.000000000000000E+000        
  0.000000000000000E+000  0.000000000000000E+000                                
   3.85303000000000       0.228994000000000       4.070500000000000E-002        
  0.000000000000000E+000  0.000000000000000E+000  0.000000000000000E+000        
  0.000000000000000E+000  0.000000000000000E+000  0.000000000000000E+000        
  0.000000000000000E+000  0.000000000000000E+000  0.000000000000000E+000        
  0.000000000000000E+000  0.000000000000000E+000                                
   1.78035000000000       0.323811000000000       6.462500000000000E-002        
  0.000000000000000E+000  0.000000000000000E+000  0.000000000000000E+000        
  0.000000000000000E+000  0.000000000000000E+000  0.000000000000000E+000        
  0.000000000000000E+000  0.000000000000000E+000  0.000000000000000E+000        
  0.000000000000000E+000  0.000000000000000E+000                                
  0.837931000000000       0.000000000000000E+000  0.000000000000000E+000        
   1.00000000000000       0.000000000000000E+000  0.000000000000000E+000        
  0.000000000000000E+000  0.000000000000000E+000  0.000000000000000E+000        
  0.000000000000000E+000  0.000000000000000E+000  0.000000000000000E+000        
  0.000000000000000E+000  0.000000000000000E+000                                
  0.390527000000000       0.000000000000000E+000  0.000000000000000E+000        
  0.000000000000000E+000   1.00000000000000       0.000000000000000E+000        
  0.000000000000000E+000  0.000000000000000E+000  0.000000000000000E+000        
  0.000000000000000E+000  0.000000000000000E+000  0.000000000000000E+000        
  0.000000000000000E+000  0.000000000000000E+000                                
  9.777600000000000E-002  0.000000000000000E+000  0.000000000000000E+000        
  0.000000000000000E+000  0.000000000000000E+000   1.00000000000000             
  0.000000000000000E+000  0.000000000000000E+000  0.000000000000000E+000        
  0.000000000000000E+000  0.000000000000000E+000  0.000000000000000E+000        
  0.000000000000000E+000  0.000000000000000E+000                                
  4.493300000000000E-002  0.000000000000000E+000  0.000000000000000E+000        
  0.000000000000000E+000  0.000000000000000E+000  0.000000000000000E+000        
   1.00000000000000       0.000000000000000E+000  0.000000000000000E+000        
  0.000000000000000E+000  0.000000000000000E+000  0.000000000000000E+000        
  0.000000000000000E+000  0.000000000000000E+000                                
  2.060200000000000E-002  0.000000000000000E+000  0.000000000000000E+000        
  0.000000000000000E+000  0.000000000000000E+000  0.000000000000000E+000        
  0.000000000000000E+000   1.00000000000000       0.000000000000000E+000        
  0.000000000000000E+000  0.000000000000000E+000  0.000000000000000E+000        
  0.000000000000000E+000  0.000000000000000E+000                                
  6.100000000000000E-003  0.000000000000000E+000  0.000000000000000E+000        
  0.000000000000000E+000  0.000000000000000E+000  0.000000000000000E+000        
  0.000000000000000E+000  0.000000000000000E+000   1.00000000000000             
  0.000000000000000E+000  0.000000000000000E+000  0.000000000000000E+000        
  0.000000000000000E+000  0.000000000000000E+000                                
   49.3907000000000       0.000000000000000E+000  0.000000000000000E+000        
  0.000000000000000E+000  0.000000000000000E+000  0.000000000000000E+000        
  0.000000000000000E+000  0.000000000000000E+000  0.000000000000000E+000        
   1.00000000000000       0.000000000000000E+000  0.000000000000000E+000        
  0.000000000000000E+000  0.000000000000000E+000                                
   26.3401000000000       0.000000000000000E+000  0.000000000000000E+000        
  0.000000000000000E+000  0.000000000000000E+000  0.000000000000000E+000        
  0.000000000000000E+000  0.000000000000000E+000  0.000000000000000E+000        
  0.000000000000000E+000   1.00000000000000       0.000000000000000E+000        
  0.000000000000000E+000  0.000000000000000E+000                                
   14.0472000000000       0.000000000000000E+000  0.000000000000000E+000        
  0.000000000000000E+000  0.000000000000000E+000  0.000000000000000E+000        
  0.000000000000000E+000  0.000000000000000E+000  0.000000000000000E+000        
  0.000000000000000E+000  0.000000000000000E+000   1.00000000000000             
  0.000000000000000E+000  0.000000000000000E+000                                
   7.49140000000000       0.000000000000000E+000  0.000000000000000E+000        
  0.000000000000000E+000  0.000000000000000E+000  0.000000000000000E+000        
  0.000000000000000E+000  0.000000000000000E+000  0.000000000000000E+000        
  0.000000000000000E+000  0.000000000000000E+000  0.000000000000000E+000        
   1.00000000000000       0.000000000000000E+000                                
   3.99510000000000       0.000000000000000E+000  0.000000000000000E+000        
  0.000000000000000E+000  0.000000000000000E+000  0.000000000000000E+000        
  0.000000000000000E+000  0.000000000000000E+000  0.000000000000000E+000        
  0.000000000000000E+000  0.000000000000000E+000  0.000000000000000E+000        
  0.000000000000000E+000   1.00000000000000                                     
   15   12                                                                      
   32.6443000000000       2.290000000000000E-004  0.000000000000000E+000        
  0.000000000000000E+000  0.000000000000000E+000  0.000000000000000E+000        
  0.000000000000000E+000  0.000000000000000E+000  0.000000000000000E+000        
  0.000000000000000E+000  0.000000000000000E+000  0.000000000000000E+000        
  0.000000000000000E+000                                                        
   7.75817000000000       1.768000000000000E-003  0.000000000000000E+000        
  0.000000000000000E+000  0.000000000000000E+000  0.000000000000000E+000        
  0.000000000000000E+000  0.000000000000000E+000  0.000000000000000E+000        
  0.000000000000000E+000  0.000000000000000E+000  0.000000000000000E+000        
  0.000000000000000E+000                                                        
   2.46169000000000       7.560000000000000E-003  0.000000000000000E+000        
  0.000000000000000E+000  0.000000000000000E+000  0.000000000000000E+000        
  0.000000000000000E+000  0.000000000000000E+000  0.000000000000000E+000        
  0.000000000000000E+000  0.000000000000000E+000  0.000000000000000E+000        
  0.000000000000000E+000                                                        
  0.869615000000000       2.332200000000000E-002  0.000000000000000E+000        
  0.000000000000000E+000  0.000000000000000E+000  0.000000000000000E+000        
  0.000000000000000E+000  0.000000000000000E+000  0.000000000000000E+000        
  0.000000000000000E+000  0.000000000000000E+000  0.000000000000000E+000        
  0.000000000000000E+000                                                        
  0.327205000000000       0.000000000000000E+000   1.00000000000000             
  0.000000000000000E+000  0.000000000000000E+000  0.000000000000000E+000        
  0.000000000000000E+000  0.000000000000000E+000  0.000000000000000E+000        
  0.000000000000000E+000  0.000000000000000E+000  0.000000000000000E+000        
  0.000000000000000E+000                                                        
  0.134815000000000       0.000000000000000E+000  0.000000000000000E+000        
   1.00000000000000       0.000000000000000E+000  0.000000000000000E+000        
  0.000000000000000E+000  0.000000000000000E+000  0.000000000000000E+000        
  0.000000000000000E+000  0.000000000000000E+000  0.000000000000000E+000        
  0.000000000000000E+000                                                        
  5.999500000000000E-002  0.000000000000000E+000  0.000000000000000E+000        
  0.000000000000000E+000   1.00000000000000       0.000000000000000E+000        
  0.000000000000000E+000  0.000000000000000E+000  0.000000000000000E+000        
  0.000000000000000E+000  0.000000000000000E+000  0.000000000000000E+000        
  0.000000000000000E+000                                                        
  2.810100000000000E-002  0.000000000000000E+000  0.000000000000000E+000        
  0.000000000000000E+000  0.000000000000000E+000   1.00000000000000             
  0.000000000000000E+000  0.000000000000000E+000  0.000000000000000E+000        
  0.000000000000000E+000  0.000000000000000E+000  0.000000000000000E+000        
  0.000000000000000E+000                                                        
  1.332000000000000E-002  0.000000000000000E+000  0.000000000000000E+000        
  0.000000000000000E+000  0.000000000000000E+000  0.000000000000000E+000        
   1.00000000000000       0.000000000000000E+000  0.000000000000000E+000        
  0.000000000000000E+000  0.000000000000000E+000  0.000000000000000E+000        
  0.000000000000000E+000                                                        
  3.900000000000000E-003  0.000000000000000E+000  0.000000000000000E+000        
  0.000000000000000E+000  0.000000000000000E+000  0.000000000000000E+000        
  0.000000000000000E+000   1.00000000000000       0.000000000000000E+000        
  0.000000000000000E+000  0.000000000000000E+000  0.000000000000000E+000        
  0.000000000000000E+000                                                        
   51.4577000000000       0.000000000000000E+000  0.000000000000000E+000        
  0.000000000000000E+000  0.000000000000000E+000  0.000000000000000E+000        
  0.000000000000000E+000  0.000000000000000E+000   1.00000000000000             
  0.000000000000000E+000  0.000000000000000E+000  0.000000000000000E+000        
  0.000000000000000E+000                                                        
   23.0522000000000       0.000000000000000E+000  0.000000000000000E+000        
  0.000000000000000E+000  0.000000000000000E+000  0.000000000000000E+000        
  0.000000000000000E+000  0.000000000000000E+000  0.000000000000000E+000        
   1.00000000000000       0.000000000000000E+000  0.000000000000000E+000        
  0.000000000000000E+000                                                        
   10.3270000000000       0.000000000000000E+000  0.000000000000000E+000        
  0.000000000000000E+000  0.000000000000000E+000  0.000000000000000E+000        
  0.000000000000000E+000  0.000000000000000E+000  0.000000000000000E+000        
  0.000000000000000E+000   1.00000000000000       0.000000000000000E+000        
  0.000000000000000E+000                                                        
   4.62630000000000       0.000000000000000E+000  0.000000000000000E+000        
  0.000000000000000E+000  0.000000000000000E+000  0.000000000000000E+000        
  0.000000000000000E+000  0.000000000000000E+000  0.000000000000000E+000        
  0.000000000000000E+000  0.000000000000000E+000   1.00000000000000             
  0.000000000000000E+000                                                        
   2.07250000000000       0.000000000000000E+000  0.000000000000000E+000        
  0.000000000000000E+000  0.000000000000000E+000  0.000000000000000E+000        
  0.000000000000000E+000  0.000000000000000E+000  0.000000000000000E+000        
  0.000000000000000E+000  0.000000000000000E+000  0.000000000000000E+000        
   1.00000000000000                                                             
   10   10                                                                      
  0.825300000000000        1.00000000000000       0.000000000000000E+000        
  0.000000000000000E+000  0.000000000000000E+000  0.000000000000000E+000        
  0.000000000000000E+000  0.000000000000000E+000  0.000000000000000E+000        
  0.000000000000000E+000  0.000000000000000E+000                                
  0.437300000000000       0.000000000000000E+000   1.00000000000000             
  0.000000000000000E+000  0.000000000000000E+000  0.000000000000000E+000        
  0.000000000000000E+000  0.000000000000000E+000  0.000000000000000E+000        
  0.000000000000000E+000  0.000000000000000E+000                                
  0.231700000000000       0.000000000000000E+000  0.000000000000000E+000        
   1.00000000000000       0.000000000000000E+000  0.000000000000000E+000        
  0.000000000000000E+000  0.000000000000000E+000  0.000000000000000E+000        
  0.000000000000000E+000  0.000000000000000E+000                                
  0.122800000000000       0.000000000000000E+000  0.000000000000000E+000        
  0.000000000000000E+000   1.00000000000000       0.000000000000000E+000        
  0.000000000000000E+000  0.000000000000000E+000  0.000000000000000E+000        
  0.000000000000000E+000  0.000000000000000E+000                                
  6.500000000000000E-002  0.000000000000000E+000  0.000000000000000E+000        
  0.000000000000000E+000  0.000000000000000E+000   1.00000000000000             
  0.000000000000000E+000  0.000000000000000E+000  0.000000000000000E+000        
  0.000000000000000E+000  0.000000000000000E+000                                
  3.450000000000000E-002  0.000000000000000E+000  0.000000000000000E+000        
  0.000000000000000E+000  0.000000000000000E+000  0.000000000000000E+000        
   1.00000000000000       0.000000000000000E+000  0.000000000000000E+000        
  0.000000000000000E+000  0.000000000000000E+000                                
   34.9147000000000       0.000000000000000E+000  0.000000000000000E+000        
  0.000000000000000E+000  0.000000000000000E+000  0.000000000000000E+000        
  0.000000000000000E+000   1.00000000000000       0.000000000000000E+000        
  0.000000000000000E+000  0.000000000000000E+000                                
   15.0047000000000       0.000000000000000E+000  0.000000000000000E+000        
  0.000000000000000E+000  0.000000000000000E+000  0.000000000000000E+000        
  0.000000000000000E+000  0.000000000000000E+000   1.00000000000000             
  0.000000000000000E+000  0.000000000000000E+000                                
   6.44830000000000       0.000000000000000E+000  0.000000000000000E+000        
  0.000000000000000E+000  0.000000000000000E+000  0.000000000000000E+000        
  0.000000000000000E+000  0.000000000000000E+000  0.000000000000000E+000        
   1.00000000000000       0.000000000000000E+000                                
   2.77120000000000       0.000000000000000E+000  0.000000000000000E+000        
  0.000000000000000E+000  0.000000000000000E+000  0.000000000000000E+000        
  0.000000000000000E+000  0.000000000000000E+000  0.000000000000000E+000        
  0.000000000000000E+000   1.00000000000000                                     
    8    8                                                                      
  0.679100000000000        1.00000000000000       0.000000000000000E+000        
  0.000000000000000E+000  0.000000000000000E+000  0.000000000000000E+000        
  0.000000000000000E+000  0.000000000000000E+000  0.000000000000000E+000        
  0.358800000000000       0.000000000000000E+000   1.00000000000000             
  0.000000000000000E+000  0.000000000000000E+000  0.000000000000000E+000        
  0.000000000000000E+000  0.000000000000000E+000  0.000000000000000E+000        
  0.189500000000000       0.000000000000000E+000  0.000000000000000E+000        
   1.00000000000000       0.000000000000000E+000  0.000000000000000E+000        
  0.000000000000000E+000  0.000000000000000E+000  0.000000000000000E+000        
  0.100100000000000       0.000000000000000E+000  0.000000000000000E+000        
  0.000000000000000E+000   1.00000000000000       0.000000000000000E+000        
  0.000000000000000E+000  0.000000000000000E+000  0.000000000000000E+000        
  5.290000000000000E-002  0.000000000000000E+000  0.000000000000000E+000        
  0.000000000000000E+000  0.000000000000000E+000   1.00000000000000             
  0.000000000000000E+000  0.000000000000000E+000  0.000000000000000E+000        
   23.0476000000000       0.000000000000000E+000  0.000000000000000E+000        
  0.000000000000000E+000  0.000000000000000E+000  0.000000000000000E+000        
   1.00000000000000       0.000000000000000E+000  0.000000000000000E+000        
   8.99420000000000       0.000000000000000E+000  0.000000000000000E+000        
  0.000000000000000E+000  0.000000000000000E+000  0.000000000000000E+000        
  0.000000000000000E+000   1.00000000000000       0.000000000000000E+000        
   3.50990000000000       0.000000000000000E+000  0.000000000000000E+000        
  0.000000000000000E+000  0.000000000000000E+000  0.000000000000000E+000        
  0.000000000000000E+000  0.000000000000000E+000   1.00000000000000             
    6    6                                                                      
  0.419900000000000        1.00000000000000       0.000000000000000E+000        
  0.000000000000000E+000  0.000000000000000E+000  0.000000000000000E+000        
  0.000000000000000E+000                                                        
  0.230900000000000       0.000000000000000E+000   1.00000000000000             
  0.000000000000000E+000  0.000000000000000E+000  0.000000000000000E+000        
  0.000000000000000E+000                                                        
  0.127000000000000       0.000000000000000E+000  0.000000000000000E+000        
   1.00000000000000       0.000000000000000E+000  0.000000000000000E+000        
  0.000000000000000E+000                                                        
  6.990000000000000E-002  0.000000000000000E+000  0.000000000000000E+000        
  0.000000000000000E+000   1.00000000000000       0.000000000000000E+000        
  0.000000000000000E+000                                                        
   15.9134000000000       0.000000000000000E+000  0.000000000000000E+000        
  0.000000000000000E+000  0.000000000000000E+000   1.00000000000000             
  0.000000000000000E+000                                                        
   5.49930000000000       0.000000000000000E+000  0.000000000000000E+000        
  0.000000000000000E+000  0.000000000000000E+000  0.000000000000000E+000        
   1.00000000000000                                                             
    4    4                                                                      
  0.337100000000000        1.00000000000000       0.000000000000000E+000        
  0.000000000000000E+000  0.000000000000000E+000                                
  0.183500000000000       0.000000000000000E+000   1.00000000000000             
  0.000000000000000E+000  0.000000000000000E+000                                
  9.990000000000000E-002  0.000000000000000E+000  0.000000000000000E+000        
   1.00000000000000       0.000000000000000E+000                                
   10.2035000000000       0.000000000000000E+000  0.000000000000000E+000        
  0.000000000000000E+000   1.00000000000000                                     
    2    2                                                                      
  0.292700000000000        1.00000000000000       0.000000000000000E+000        
  0.146200000000000       0.000000000000000E+000   1.00000000000000             
FINISH                                                                          
 
********************************************************************************
 One- and two-electron integrals over symmetry-adapted AOs are calculated.

  Spherical harmonics are used.
  
  Integrals less than  0.10E-13 are neglected.

   Basis function not normalized: 
   Center (as ordered in MOL file):   1
   Angular Momentum type          : s
   Offset within angular momentum :  1
   <chi|chi>                      :    1.4563396204
   Basis function not normalized: 
   Center (as ordered in MOL file):   1
   Angular Momentum type          : s
   Offset within angular momentum :  2
   <chi|chi>                      :    7.9137943001
   Basis function not normalized: 
   Center (as ordered in MOL file):   1
   Angular Momentum type          : p
   Offset within angular momentum :  1
   <chi|chi>                      :   33.2919650428
  Nuclear repulsion energy :    1.1421088489 a.u.
  required memory for a1 array              458573584  words 
  required memory for a2 array              133231759  words 
 @GETMEM-I,  Allocated    4530 MB of main memory.
  @MOLECU-I, One electron integrals (CPU/WALL):        0.61/       0.65 seconds.
  @TWOEL-I,   23424309 integrals of symmetry type  I I I I
  @TWOEL-I,  264134295 integrals of symmetry type  I J I J
  @TWOEL-I,  141567246 integrals of symmetry type  I I J J
  @TWOEL-I,  711433957 integrals of symmetry type  I J K L
  @TWOEL-I, Total number of 2-e integrals 1140559807.
  @MOLECU-I, Two electron integrals (CPU/WALL):     2819.09/    2850.26 seconds.
  @CHECKOUT-I, Total execution time (CPU/WALL):     2820.13/    2851.70 seconds.
--executable xvmol finished with status     0 in     2851.89 seconds (walltime).
 --invoking executable--
/home/nike/cfour_v2.00beta/bin/xvmol2ja
 @GETMEM-I,  Allocated  677108 MB of main memory.
  @CHECKOUT-I, Total execution time (CPU/WALL):        0.11/       0.43 seconds.
--executable xvmol2ja finished with status     0 in        0.86 seconds (walltime).
 --invoking executable--
/home/nike/cfour_v2.00beta/bin/xvscf
  There are  558 functions in the AO basis.

  There are 8 irreducible representations.

       Irrep        # of functions
         1                 99
         2                 68
         3                 68
         4                 44
         5                 99
         6                 68
         7                 68
         8                 44


  Parameters for SCF calculation: 
        SCF reference function: ROHF  
  Maximum number of iterations:  150
     Full symmetry point group: DXh 
     Computational point group: D2h 
        Initial density matrix: CORE                   
     SCF convergence tolerance: 10**(- 7)
  DIIS convergence acceleration:  ON
          Latest start for DIIS:   8
                     DIIS order:   6

  Memory information:   21866638 words required.
  Fock matrices are constructed from AO integral file.
 @GETMEM-I,  Allocated     166 MB of main memory.
  Initialization and symmetry analysis required      0.001 seconds.

  @INITGES-I, Occupancies from core Hamiltonian:

          Alpha population by irrep:   2    0    0    0    2    0    0    0
           Beta population by irrep:   1    0    0    0    1    0    0    0


 total no. of electrons in initial guess :  0.000000000000000E+000
 total no. of electrons in initial guess :  0.000000000000000E+000
  --------------------------------------------------------------------
  Iteration         Total Energy            Largest Density Difference
  --------------------------------------------------------------------
       0             1.142108848920863              0.0000000000D+00
   current occupation vector 
     2  0  0  0  2  0  0  0
     1  0  0  0  1  0  0  0
       1           -13.942484033635404              0.3642817761D+00
   current occupation vector 
     2  0  0  0  2  0  0  0
     1  0  0  0  1  0  0  0
       2           -14.542709004599404              0.1121134370D+02
   current occupation vector 
     2  0  0  0  2  0  0  0
     1  0  0  0  1  0  0  0
       3           -14.851408838524209              0.1120741669D+02
   current occupation vector 
     2  0  0  0  2  0  0  0
     1  0  0  0  1  0  0  0
       4           -14.862377092985280              0.1736166824D+00
   current occupation vector 
     2  0  0  0  2  0  0  0
     1  0  0  0  1  0  0  0
       5           -14.863761421453884              0.9572385564D-01
   current occupation vector 
     2  0  0  0  2  0  0  0
     1  0  0  0  1  0  0  0
       6           -14.863781060829485              0.1588076544D+00
   current occupation vector 
     2  0  0  0  2  0  0  0
     1  0  0  0  1  0  0  0
       7           -14.864014844579955              0.1163616786D+00
   current occupation vector 
     2  0  0  0  2  0  0  0
     1  0  0  0  1  0  0  0
       8           -14.864019175641531              0.2717725318D-01
   current occupation vector 
     2  0  0  0  2  0  0  0
     1  0  0  0  1  0  0  0
       9           -14.864019518031132              0.3398069729D-02
   current occupation vector 
     2  0  0  0  2  0  0  0
     1  0  0  0  1  0  0  0
      10           -14.864019536950995              0.1635078846D-02
   current occupation vector 
     2  0  0  0  2  0  0  0
     1  0  0  0  1  0  0  0
      11           -14.864019537907900              0.1107103432D-02
   current occupation vector 
     2  0  0  0  2  0  0  0
     1  0  0  0  1  0  0  0
      12           -14.864019538011028              0.3349726197D-03
   current occupation vector 
     2  0  0  0  2  0  0  0
     1  0  0  0  1  0  0  0
      13           -14.864019538039127              0.7719090584D-04
   current occupation vector 
     2  0  0  0  2  0  0  0
     1  0  0  0  1  0  0  0
      14           -14.864019538040679              0.9087361758D-05
   current occupation vector 
     2  0  0  0  2  0  0  0
     1  0  0  0  1  0  0  0
      15           -14.864019538040512              0.3524026929D-05
   current occupation vector 
     2  0  0  0  2  0  0  0
     1  0  0  0  1  0  0  0
      16           -14.864019538040466              0.1081063474D-05
   current occupation vector 
     2  0  0  0  2  0  0  0
     1  0  0  0  1  0  0  0
      17           -14.864019538040591              0.1536745432D-06
   current occupation vector 
     2  0  0  0  2  0  0  0
     1  0  0  0  1  0  0  0
      18           -14.864019538040615              0.1103589550D-06
   current occupation vector 
     2  0  0  0  2  0  0  0
     1  0  0  0  1  0  0  0
      19           -14.864019538040516              0.4277885408D-06
   current occupation vector 
     2  0  0  0  2  0  0  0
     1  0  0  0  1  0  0  0
      20           -14.864019538040523              0.1621137407D-06
   current occupation vector 
     2  0  0  0  2  0  0  0
     1  0  0  0  1  0  0  0
      21           -14.864019538040512              0.2716734048D-06
   current occupation vector 
     2  0  0  0  2  0  0  0
     1  0  0  0  1  0  0  0
      22           -14.864019538040669              0.3410861754D-06
   current occupation vector 
     2  0  0  0  2  0  0  0
     1  0  0  0  1  0  0  0
      23           -14.864019538040566              0.2569419211D-06
   current occupation vector 
     2  0  0  0  2  0  0  0
     1  0  0  0  1  0  0  0
      24           -14.864019538040612              0.1504436431D-06
   current occupation vector 
     2  0  0  0  2  0  0  0
     1  0  0  0  1  0  0  0

  SCF has converged.

 Density matrix saved to file den.dat
 total alpha spin electron number:   4.00000000000000     
 total  beta spin electron number:   1.99999999999999     
     E(ROHF)=       -14.864019538040498              0.1960625817D-07

  Eigenvector printing suppressed.


       The average multiplicity is    3.0000000
  The expectation value of S**2 is    2.0000000

 @PUTMOS-I, Writing converged MOs to NEWMOS. 
 @PUTMOS-I, Symmetry   1 Full Blocks 24 Partial Blocksize   3
 @PUTMOS-I, Symmetry   2 Full Blocks 17 Partial Blocksize   0
 @PUTMOS-I, Symmetry   3 Full Blocks 17 Partial Blocksize   0
 @PUTMOS-I, Symmetry   4 Full Blocks 11 Partial Blocksize   0
 @PUTMOS-I, Symmetry   5 Full Blocks 24 Partial Blocksize   3
 @PUTMOS-I, Symmetry   6 Full Blocks 17 Partial Blocksize   0
 @PUTMOS-I, Symmetry   7 Full Blocks 17 Partial Blocksize   0
 @PUTMOS-I, Symmetry   8 Full Blocks 11 Partial Blocksize   0
  @DMPJOB-I, Rotating orbitals to semicanonical basis.
             *** Eigenvalues correspond to new basis. ***

  @PRJDEN-I, Basis set contains h and/or higher angular momentum functions.
             Analysis of density matrix symmetry not available.
             Check irreps of the molecular orbitals in the full point group
             for presence of an asymmetric solution.

 
  ORBITAL EIGENVALUES (ALPHA)  (1H = 27.2113838 eV)

       MO #        E(hartree)               E(eV)           FULLSYM    COMPSYM
       ----   --------------------   --------------------   -------   ---------
    1   280          -2.4853085511         -67.6286848927    PI         B1u (5)
    2     1          -2.4853084016         -67.6286808249    PI          Ag (1)
    3     2          -0.2276537831          -6.1947744708    SGg+        Ag (1)
    4   281          -0.1706313876          -4.6431161792    SGu+       B1u (5)
  +++++++++++++++++++++++++++++++++++++++++++++++++++++++++++++++++++++++++++++
    5     3           0.0042152045           0.1147015472    SGg+        Ag (1)
    6   168           0.0045127706           0.1227987335    PIu        B3u (3)
    7   100           0.0045127706           0.1227987335    PIu        B2u (2)
    8   282           0.0072920751           0.1984274555    SGu+       B1u (5)
    9   379           0.0119721732           0.3257794008    PIg        B3g (6)
   10   447           0.0119721732           0.3257794008    PIg        B2g (7)
   11     4           0.0140945197           0.3835313843    SGg+        Ag (1)
   12   101           0.0158743043           0.4319617880    PIu        B2u (2)
   13   169           0.0158743043           0.4319617880    PIu        B3u (3)
   14     5           0.0179736371           0.4890875364    SGg+        Ag (1)
   15   283           0.0255365050           0.6948836387    SGu+       B1u (5)
   16   448           0.0329224026           0.8958641346    PIg        B2g (7)
   17   380           0.0329224026           0.8958641346    PIg        B3g (6)
   18   284           0.0488506403           1.3292935230    SGu+       B1u (5)
   19     6           0.0559861171           1.5234597212    SGg+        Ag (1)
   20   102           0.0601500033           1.6367648257    PIu        B2u (2)
   21   170           0.0601500033           1.6367648257    PIu        B3u (3)
   22   381           0.0719472053           1.9577830179    PIg        B3g (6)
   23   449           0.0719472053           1.9577830179    PIg        B2g (7)
   24     7           0.0792089649           2.1553855450    SGg+        Ag (1)
   25     8           0.0800323552           2.1777911354    DEg         Ag (1)
   26   236           0.0800323552           2.1777911354    DEg        B1g (4)
   27   285           0.0834623992           2.2711273803    SGu+       B1u (5)
   28   103           0.0983331644           2.6757814794    PIu        B2u (2)
   29   171           0.0983331644           2.6757814794    PIu        B3u (3)
   30   286           0.1031234462           2.8061316753    SGu+       B1u (5)
   31   287           0.1054191005           2.8685996047    DEu        B1u (5)
   32   515           0.1054191005           2.8685996047    DEu         Au (8)
   33     9           0.1307645347           3.5582839435    SGg+        Ag (1)
   34   382           0.1313875870           3.5752380593    PIg        B3g (6)
   35   450           0.1313875870           3.5752380593    PIg        B2g (7)
   36    10           0.1584934223           4.3128253461    SGg+        Ag (1)
   37   383           0.1671450247           4.5482474197    PIg        B3g (6)
   38   451           0.1671450247           4.5482474197    PIg        B2g (7)
   39   104           0.1720603876           4.6820012468    PIu        B2u (2)
   40   172           0.1720603876           4.6820012468    PIu        B3u (3)
   41   288           0.1736982319           4.7265692558    SGu+       B1u (5)
   42   105           0.1790467102           4.8721087530    PHu        B2u (2)
   43   173           0.1790467102           4.8721087530    PHu        B3u (3)
   44   289           0.1844001483           5.0177832108    SGu+       B1u (5)
   45   237           0.1927069852           5.2438237402    DEg        B1g (4)
   46    11           0.1927069852           5.2438237402    DEg         Ag (1)
   47   452           0.2109809021           5.7410823066    PHg        B2g (7)
   48   384           0.2109809021           5.7410823066    PHg        B3g (6)
   49   106           0.2226732226           6.0592465254    PIu        B2u (2)
   50   174           0.2226732226           6.0592465254    PIu        B3u (3)
   51   238           0.2362920931           6.4298348394    DEg        B1g (4)
   52    12           0.2362920931           6.4298348394    DEg         Ag (1)
   53    13           0.2412991998           6.5660851411    SGg+        Ag (1)
   54   290           0.2532833900           6.8921915411    DEu        B1u (5)
   55   516           0.2532833900           6.8921915411    DEu         Au (8)
   56   107           0.2549344593           6.9371194214    PIu        B2u (2)
   57   175           0.2549344593           6.9371194214    PIu        B3u (3)
   58   291           0.2578048800           7.0152275403    DEu        B1u (5)
   59   517           0.2578048800           7.0152275403    DEu         Au (8)
   60   292           0.2631041916           7.1594291416    SGu+       B1u (5)
   61    14           0.2716543457           7.3920906672    SGg+        Ag (1)
   62   385           0.2716842706           7.3929049640    PIg        B3g (6)
   63   453           0.2716842706           7.3929049640    PIg        B2g (7)
   64    15           0.3057493311           8.3198624013    GAg         Ag (1)
   65   239           0.3057493311           8.3198624013    GAg        B1g (4)
   66   176           0.3151493770           8.5756506573    PHu        B3u (3)
   67   108           0.3151493770           8.5756506573    PHu        B2u (2)
   68   386           0.3226181569           8.7788864947    PIg        B3g (6)
   69   454           0.3226181569           8.7788864948    PIg        B2g (7)
   70   293           0.3330212948           9.0619702739    SGu+       B1u (5)
   71    16           0.3350801576           9.1179947790    SGg+        Ag (1)
   72   294           0.3398422683           9.2475784008    GAu        B1u (5)
   73   518           0.3398422683           9.2475784008    GAu         Au (8)
   74   387           0.3673548836           9.9962347360    PIg        B3g (6)
   75   455           0.3673548836           9.9962347360    PIg        B2g (7)
   76   240           0.3674828824           9.9997177601    DEg        B1g (4)
   77    17           0.3674828824           9.9997177601    DEg         Ag (1)
   78   295           0.3881466159          10.5620065427    SGu+       B1u (5)
   79    18           0.3887543273          10.5785432115    SGg+        Ag (1)
   80   456           0.3920645205          10.6686181497    PHg        B2g (7)
   81   388           0.3920645205          10.6686181497    PHg        B3g (6)
   82   109           0.4067456646          11.0681123976    PIu        B2u (2)
   83   177           0.4067456646          11.0681123976    PIu        B3u (3)
   84   110           0.4241336733          11.5412641756    PIu        B2u (2)
   85   178           0.4241336733          11.5412641756    PIu        B3u (3)
   86   519           0.4521862320          12.3046131165    DEu         Au (8)
   87   296           0.4521862320          12.3046131165    DEu        B1u (5)
   88   297           0.4560679867          12.4102410348    SGu+       B1u (5)
   89   179           0.4800975101          13.0641176190    PHu        B3u (3)
   90   111           0.4800975101          13.0641176190    PHu        B2u (2)
   91   241           0.4816349555          13.1059536352    DEg        B1g (4)
   92    19           0.4816349555          13.1059536352    DEg         Ag (1)
   93    20           0.4825154237          13.1299123932    SGg+        Ag (1)
   94   457           0.5056577989          13.7596484480    PHg        B2g (7)
   95   389           0.5056577989          13.7596484480    PHg        B3g (6)
   96   112           0.5153105951          14.0223143890    PIu        B2u (2)
   97   180           0.5153105951          14.0223143890    PIu        B3u (3)
   98   390           0.5269172381          14.3381472067    PIg        B3g (6)
   99   458           0.5269172381          14.3381472067    PIg        B2g (7)
  100   520           0.5323243644          14.4852825961    DEu         Au (8)
  101   298           0.5323243644          14.4852825961    DEu        B1u (5)
  102   242           0.5419523562          14.7472735756    DEg        B1g (4)
  103    21           0.5419523562          14.7472735756    DEg         Ag (1)
  104   243           0.5426201286          14.7654445873    GAg        B1g (4)
  105    22           0.5426201286          14.7654445873    GAg         Ag (1)
  106   299           0.5449558025          14.8290015061    SGu+       B1u (5)
  107   113           0.5492016764          14.9445376099    PIu        B2u (2)
  108   181           0.5492016764          14.9445376099    PIu        B3u (3)
  109    23           0.5520433681          15.0218639733    SGg+        Ag (1)
  110   114           0.5529368793          15.0461776496    PHu        B2u (2)
  111   182           0.5529368793          15.0461776496    PHu        B3u (3)
  112   300           0.5688767416          15.4799233616    DEu        B1u (5)
  113   521           0.5688767416          15.4799233616    DEu         Au (8)
  114   391           0.5826185440          15.8538568220    PHg        B3g (6)
  115   459           0.5826185440          15.8538568220    PHg        B2g (7)
  116   301           0.5867335339          15.9658313909    SGu+       B1u (5)
  117   115           0.5925956619          16.1253480052    PHu        B2u (2)
  118   183           0.5925956619          16.1253480052    PHu        B3u (3)
  119   392           0.5935024469          16.1500228812    PIg        B3g (6)
  120   460           0.5935024469          16.1500228812    PIg        B2g (7)
  121    24           0.6354534321          17.2915672414    SGg+        Ag (1)
  122   302           0.6390127700          17.3884217510    GAu        B1u (5)
  123   522           0.6390127700          17.3884217510    GAu         Au (8)
  124   393           0.6764467664          18.4070525940    PIg        B3g (6)
  125   461           0.6764467664          18.4070525940    PIg        B2g (7)
  126   244           0.6880068932          18.7216196415    DEg        B1g (4)
  127    25           0.6880068932          18.7216196415    DEg         Ag (1)
  128    26           0.7305109513          19.8782138793    SGg+        Ag (1)
  129   394           0.7381429934          20.0858923078    PHg        B3g (6)
  130   462           0.7381429934          20.0858923078    PHg        B2g (7)
  131   395           0.7470663523          20.3287092507    PIg        B3g (6)
  132   463           0.7470663523          20.3287092507    PIg        B2g (7)
  133   184           0.7529995209          20.4901589801    PHu        B3u (3)
  134   116           0.7529995209          20.4901589801    PHu        B2u (2)
  135    27           0.7556231811          20.5615524046    GAg         Ag (1)
  136   245           0.7556231811          20.5615524046    GAg        B1g (4)
  137   303           0.7668639938          20.8674304714    SGu+       B1u (5)
  138   117           0.7680311315          20.8991899054    PIu        B2u (2)
  139   185           0.7680311315          20.8991899054    PIu        B3u (3)
  140   304           0.7771292047          21.1467610664    GAu        B1u (5)
  141   523           0.7771292047          21.1467610664    GAu         Au (8)
  142   246           0.7925348596          21.5659702562    DEg        B1g (4)
  143    28           0.7925348596          21.5659702562    DEg         Ag (1)
  144   118           0.8036387093          21.8681213722    PIu        B2u (2)
  145   186           0.8036387093          21.8681213722    PIu        B3u (3)
  146   524           0.8110346694          22.0693756787    DEu         Au (8)
  147   305           0.8110346694          22.0693756787    DEu        B1u (5)
  148   464           0.8135692634          22.1383454892    PHg        B2g (7)
  149   396           0.8135692634          22.1383454892    PHg        B3g (6)
  150    29           0.8138752441          22.1466716478    SGg+        Ag (1)
  151   306           0.8268846504          22.5006755961    SGu+       B1u (5)
  152   307           0.8827978740          24.0221517851    SGu+       B1u (5)
  153   308           0.8938533697          24.3229871212    DEu        B1u (5)
  154   525           0.8938533697          24.3229871212    DEu         Au (8)
  155   397           0.9611471580          26.1541442226    PIg        B3g (6)
  156   465           0.9611471580          26.1541442226    PIg        B2g (7)
  157   119           0.9797790064          26.6611426013    PHu        B2u (2)
  158   187           0.9797790064          26.6611426013    PHu        B3u (3)
  159    30           0.9865011844          26.8440623670    GAg         Ag (1)
  160   247           0.9865011844          26.8440623670    GAg        B1g (4)
  161   120           1.0071238892          27.4052347020    PIu        B2u (2)
  162   188           1.0071238892          27.4052347020    PIu        B3u (3)
  163    31           1.0098078113          27.4782679374    XXXX      XXXX (1)
  164   248           1.0098078113          27.4782679374    XXXX      XXXX (4)
  165   309           1.0253524554          27.9012592149    XXXX      XXXX (5)
  166   526           1.0253524554          27.9012592149    XXXX      XXXX (8)
  167   249           1.0409995460          28.3270382024    DEg        B1g (4)
  168    32           1.0409995460          28.3270382024    DEg         Ag (1)
  169   189           1.0471568028          28.4945856812    PHu        B3u (3)
  170   121           1.0471568028          28.4945856812    PHu        B2u (2)
  171    33           1.0630520588          28.9271175918    SGg+        Ag (1)
  172   466           1.0631000715          28.9284240836    PHg        B2g (7)
  173   398           1.0631000715          28.9284240836    PHg        B3g (6)
  174   122           1.0649705167          28.9793214875    PIu        B2u (2)
  175   190           1.0649705167          28.9793214875    PIu        B3u (3)
  176   467           1.0702471958          29.1229072261    PHg        B2g (7)
  177   399           1.0702471958          29.1229072261    PHg        B3g (6)
  178   123           1.0749762193          29.2515904993    PHu        B2u (2)
  179   191           1.0749762193          29.2515904993    PHu        B3u (3)
  180   310           1.0892521999          29.6400596891    SGu+       B1u (5)
  181    34           1.0998024212          29.9271458089    SGg+        Ag (1)
  182   311           1.1019202758          29.9847755629    DEu        B1u (5)
  183   527           1.1019202758          29.9847755629    DEu         Au (8)
  184   312           1.1026682885          30.0051300253    SGu+       B1u (5)
  185   468           1.1117486095          30.2522181246    PIg        B2g (7)
  186   400           1.1117486095          30.2522181246    PIg        B3g (6)
  187   250           1.1175701813          30.4106311482    DEg        B1g (4)
  188    35           1.1175701813          30.4106311482    DEg         Ag (1)
  189   313           1.1512992328          31.3284453146    DEu        B1u (5)
  190   528           1.1512992328          31.3284453146    DEu         Au (8)
  191   192           1.1646755284          31.6924328298    PIu        B3u (3)
  192   124           1.1646755284          31.6924328298    PIu        B2u (2)
  193    36           1.1681654260          31.7873977725    SGg+        Ag (1)
  194   314           1.1768009265          32.0223816913    GAu        B1u (5)
  195   529           1.1768009265          32.0223816913    GAu         Au (8)
  196   401           1.1922715989          32.4433600945    PIg        B3g (6)
  197   469           1.1922715989          32.4433600945    PIg        B2g (7)
  198    37           1.2069347264          32.8423640857    DEg         Ag (1)
  199   251           1.2069347264          32.8423640857    DEg        B1g (4)
  200   315           1.2440566704          33.8525035519    SGu+       B1u (5)
  201    38           1.2709532726          34.5843973176    SGg+        Ag (1)
  202    39           1.3032910637          35.4643533643    GAg         Ag (1)
  203   252           1.3032910637          35.4643533643    GAg        B1g (4)
  204   125           1.3080246409          35.5931605482    PHu        B2u (2)
  205   193           1.3080246409          35.5931605482    PHu        B3u (3)
  206   470           1.3162775036          35.8177323634    PIg        B2g (7)
  207   402           1.3162775036          35.8177323634    PIg        B3g (6)
  208   126           1.3212792887          35.9538378579    PIu        B2u (2)
  209   194           1.3212792887          35.9538378579    PIu        B3u (3)
  210   403           1.3226610445          35.9914373453    PHg        B3g (6)
  211   471           1.3226610445          35.9914373453    PHg        B2g (7)
  212   404           1.3322886640          36.2534181939    PHg        B3g (6)
  213   472           1.3322886640          36.2534181939    PHg        B2g (7)
  214   127           1.3353925943          36.3378804335    PHu        B2u (2)
  215   195           1.3353925943          36.3378804335    PHu        B3u (3)
  216   316           1.3560549434          36.9001315464    GAu        B1u (5)
  217   530           1.3560549434          36.9001315464    GAu         Au (8)
  218   405           1.3986926111          38.0603614867    PIg        B3g (6)
  219   473           1.3986926111          38.0603614868    PIg        B2g (7)
  220    40           1.4134670303          38.4623938776    SGg+        Ag (1)
  221   531           1.4201829941          38.6451445466    DEu         Au (8)
  222   317           1.4201829941          38.6451445466    DEu        B1u (5)
  223   406           1.4205978138          38.6564323651    PHg        B3g (6)
  224   474           1.4205978138          38.6564323651    PHg        B2g (7)
  225   253           1.4239558534          38.7478092703    DEg        B1g (4)
  226    41           1.4239558534          38.7478092703    DEg         Ag (1)
  227   318           1.4292977342          38.8931692368    SGu+       B1u (5)
  228   196           1.4351156057          39.0514815735    PIu        B3u (3)
  229   128           1.4351156057          39.0514815735    PIu        B2u (2)
  230   532           1.5210260556          41.3892237980    DEu         Au (8)
  231   319           1.5210260556          41.3892237980    DEu        B1u (5)
  232   320           1.5333512107          41.7246083250    SGu+       B1u (5)
  233    42           1.5344179355          41.7536353837    SGg+        Ag (1)
  234    43           1.5658999343          42.6103041358    GAg         Ag (1)
  235   254           1.5658999343          42.6103041358    GAg        B1g (4)
  236   197           1.5709309318          42.7472045400    PHu        B3u (3)
  237   129           1.5709309318          42.7472045400    PHu        B2u (2)
  238   321           1.5824361855          43.0602784148    GAu        B1u (5)
  239   533           1.5824361855          43.0602784148    GAu         Au (8)
  240   475           1.6216964229          44.1286038017    PIg        B2g (7)
  241   407           1.6216964229          44.1286038017    PIg        B3g (6)
  242   255           1.6230142909          44.1644648136    DEg        B1g (4)
  243    44           1.6230142909          44.1644648136    DEg         Ag (1)
  244   476           1.6303835902          44.3649936472    PHg        B2g (7)
  245   408           1.6303835902          44.3649936472    PHg        B3g (6)
  246   322           1.6552962194          45.0429007620    SGu+       B1u (5)
  247   130           1.7588734125          47.8613795166    PIu        B2u (2)
  248   198           1.7588734125          47.8613795166    PIu        B3u (3)
  249   323           1.7770569883          48.3561797784    SGu+       B1u (5)
  250   534           1.7908439786          48.7313428637    DEu         Au (8)
  251   324           1.7908439786          48.7313428638    DEu        B1u (5)
  252    45           1.8560511950          50.5057214547    SGg+        Ag (1)
  253   409           1.8679143575          50.8285345253    PIg        B3g (6)
  254   477           1.8679143575          50.8285345253    PIg        B2g (7)
  255   199           2.1336469210          58.0594853019    PHu        B3u (3)
  256   131           2.1336469210          58.0594853019    PHu        B2u (2)
  257   256           2.1500678542          58.5063216193    DEg        B1g (4)
  258    46           2.1500678542          58.5063216193    DEg         Ag (1)
  259   478           2.1508114380          58.5265555634    PHg        B2g (7)
  260   410           2.1508114380          58.5265555634    PHg        B3g (6)
  261    47           2.1954777283          59.7419871313    SGg+        Ag (1)
  262   132           2.2441027158          61.0651403313    PIu        B2u (2)
  263   200           2.2441027158          61.0651403313    PIu        B3u (3)
  264   325           2.2443540139          61.0719784991    DEu        B1u (5)
  265   535           2.2443540139          61.0719784991    DEu         Au (8)
  266   257           2.2450554556          61.0910656979    DEg        B1g (4)
  267    48           2.2450554556          61.0910656980    DEg         Ag (1)
  268   326           2.2731029808          61.8542776706    DEu        B1u (5)
  269   536           2.2731029808          61.8542776706    DEu         Au (8)
  270   201           2.2923541887          62.3781296786    PIu        B3u (3)
  271   133           2.2923541887          62.3781296786    PIu        B2u (2)
  272   479           2.2931978639          62.4010872484    PIg        B2g (7)
  273   411           2.2931978639          62.4010872484    PIg        B3g (6)
  274   327           2.3035339574          62.6823466564    SGu+       B1u (5)
  275    49           2.4068407188          65.4934665921    SGg+        Ag (1)
  276   328           2.4090290531          65.5530141977    SGu+       B1u (5)
  277   202           2.4167893103          65.7641815324    PIu        B2u (3)
  278   134           2.4167893103          65.7641815324    PIu        B3u (2)
  279   135           2.4430729017          66.4793944268    PHu        B2u (2)
  280   203           2.4430729017          66.4793944268    PHu        B3u (3)
  281    50           2.4530776518          66.7516375233    XXXX      XXXX (1)
  282   258           2.4530776518          66.7516375233    XXXX      XXXX (4)
  283    51           2.4579911136          66.8853396180    GAg         Ag (1)
  284   259           2.4579911136          66.8853396180    GAg        B1g (4)
  285   537           2.4601351861          66.9436827959    XXXX      XXXX (8)
  286   329           2.4601351861          66.9436827959    XXXX      XXXX (5)
  287   480           2.4786231279          67.4467652764    PHg        B2g (7)
  288   412           2.4786231279          67.4467652764    PHg        B3g (6)
  289    52           2.4930116385          67.8382965622    SGg+        Ag (1)
  290   136           2.5019247599          68.0808349306    PHu        B2u (2)
  291   204           2.5019247599          68.0808349306    PHu        B3u (3)
  292   330           2.5145223860          68.4236337693    GAu        B1u (5)
  293   538           2.5145223860          68.4236337693    GAu         Au (8)
  294   260           2.5167414824          68.4840184509    DEg        B1g (4)
  295    53           2.5167414824          68.4840184509    DEg         Ag (1)
  296   413           2.5226196778          68.6439722840    PIg        B3g (6)
  297   481           2.5226196778          68.6439722840    PIg        B2g (7)
  298   414           2.5601114194          69.6641744549    PHg        B3g (6)
  299   482           2.5601114194          69.6641744549    PHg        B2g (7)
  300   539           2.6030746668          70.8332638694    DEu         Au (8)
  301   331           2.6030746668          70.8332638694    DEu        B1u (5)
  302   483           2.6637384070          72.4840081868    PIg        B2g (7)
  303   415           2.6637384070          72.4840081868    PIg        B3g (6)
  304   205           2.7116386775          73.7874408348    PIu        B3u (3)
  305   137           2.7116386775          73.7874408348    PIu        B2u (2)
  306   332           2.7249020070          74.1483543844    SGu+       B1u (5)
  307    54           2.7439432618          74.6664932752    GAg         Ag (1)
  308   261           2.7439432618          74.6664932752    GAg        B1g (4)
  309   206           2.7496112842          74.8207280098    PHu        B3u (3)
  310   138           2.7496112842          74.8207280098    PHu        B2u (2)
  311   207           2.7572723038          75.0291949529    PHu        B3u (3)
  312   139           2.7572723038          75.0291949529    PHu        B2u (2)
  313   484           2.7602492238          75.1102010671    PHg        B2g (7)
  314   416           2.7602492238          75.1102010671    PHg        B3g (6)
  315   417           2.7722406868          75.4365053675    PIg        B3g (6)
  316   485           2.7722406868          75.4365053676    PIg        B2g (7)
  317    55           2.7795699373          75.6359444169    SGg+        Ag (1)
  318   333           2.7864286042          75.8225782347    GAu        B1u (5)
  319   540           2.7864286042          75.8225782347    GAu         Au (8)
  320    56           2.8135538955          76.5606949468    DEg         Ag (1)
  321   262           2.8135538955          76.5606949468    DEg        B1g (4)
  322   334           2.8257829454          76.8934643183    SGu+       B1u (5)
  323   486           2.8477974359          77.4925090677    PHg        B2g (7)
  324   418           2.8477974359          77.4925090677    PHg        B3g (6)
  325   208           2.9010154780          78.9406456379    PIu        B3u (3)
  326   140           2.9010154780          78.9406456379    PIu        B2u (2)
  327   335           2.9400219025          80.0020644262    SGu+       B1u (5)
  328   336           2.9403019996          80.0096862557    DEu        B1u (5)
  329   541           2.9403019996          80.0096862557    DEu         Au (8)
  330    57           3.0188792878          82.1478830047    SGg+        Ag (1)
  331   419           3.0593452904          83.2490189335    PIg        B3g (6)
  332   487           3.0593452904          83.2490189335    PIg        B2g (7)
  333    58           3.1578216970          85.9286982310    GAg         Ag (1)
  334   263           3.1578216970          85.9286982310    GAg        B1g (4)
  335   209           3.1618911112          86.0394326216    PHu        B2u (3)
  336   141           3.1618911112          86.0394326216    PHu        B3u (2)
  337   337           3.1702271198          86.2662669521    GAu        B1u (5)
  338   542           3.1702271198          86.2662669521    GAu         Au (8)
  339    59           3.1724432303          86.3265703858    SGg+        Ag (1)
  340   264           3.1941749462          86.9179204473    DEg        B1g (4)
  341    60           3.1941749462          86.9179204473    DEg         Ag (1)
  342   420           3.1988585532          87.0453678765    PHg        B3g (6)
  343   488           3.1988585532          87.0453678765    PHg        B2g (7)
  344   142           3.2622817188          88.7711999776    PIu        B2u (2)
  345   210           3.2622817188          88.7711999776    PIu        B3u (3)
[...]
   223        38.3364154        3       502        44.0315773        7
   224        44.0278762        3       503        44.0779164        7
   225        44.0527472        3       504        64.1142098        7
   226        64.1142081        3       505        64.1143002        7
   227        64.1142859        3       506        64.1143754        7
   228        64.1143436        3       507        67.8696263        7
   229        67.7999308        3       508        91.1137906        7
   230        91.0499885        3       509        92.8349911        7
   231        92.8345535        3       510        92.8363994        7
   232        92.8358283        3       511       122.9096503        7
   233       122.9073161        3       512       122.9386500        7
   234       122.9230074        3       513       171.0398608        7
   235       170.9852469        3       514       222.3605810        7
   236       222.3034191        3       515         0.1093169        8
   237         0.0844646        4       516         0.2564903        8
   238         0.1968770        4       517         0.2693447        8
   239         0.2481654        4       518         0.3419066        8
   240         0.3078009        4       519         0.4553971        8
   241         0.3711993        4       520         0.5404291        8
   242         0.4898370        4       521         0.5802449        8
   243         0.5451167        4       522         0.6412925        8
   244         0.5551619        4       523         0.7824852        8
   245         0.6929456        4       524         0.8148045        8
   246         0.7610135        4       525         0.9001770        8
   247         0.7973811        4       526         1.0279753        8
   248         0.9896877        4       527         1.1093489        8
   249         1.0124307        4       528         1.1599884        8
   250         1.0497885        4       529         1.1796565        8
   251         1.1269358        4       530         1.3608089        8
   252         1.2130775        4       531         1.4246864        8
   253         1.3081637        4       532         1.5272927        8
   254         1.4278609        4       533         1.5890082        8
   255         1.5725461        4       534         1.7961772        8
   256         1.6299090        4       535         2.2505562        8
   257         2.1568882        4       536         2.2784091        8
   258         2.2504620        4       537         2.4645937        8
   259         2.4575483        4       538         2.5191237        8
   260         2.4626648        4       539         2.6081705        8
   261         2.5215643        4       540         2.7916139        8
   262         2.7492336        4       541         2.9452814        8
   263         2.8189961        4       542         3.1752310        8
   264         3.1628527        4       543         3.2755281        8
   265         3.1993347        4       544         4.4766874        8
   266         4.3933976        4       545         4.5565782        8
   267         4.5326755        4       546        10.9191357        8
   268        10.9024257        4       547        14.9421327        8
   269        14.9067816        4       548        27.4511250        8
   270        27.4382936        4       549        27.8868973        8
   271        27.8865400        4       550        27.8901383        8
   272        27.8876687        4       551        44.0520785        8
   273        44.0308251        4       552        64.1142570        8
   274        64.1142503        4       553        64.1143410        8
   275        64.1143174        4       554        67.7861831        8
   276        67.7759984        4       555        92.8346322        8
   277        92.8344892        4       556        92.8359188        8
   278        92.8349380        4       557       122.9226040        8
   279       122.9091683        4       558       170.9744838        8
------------------------------------------------------------------------
  @CHECKOUT-I, Total execution time (CPU/WALL):     2484.58/    3346.22 seconds.
--executable xvtran finished with status     0 in     3346.44 seconds (walltime).
 --invoking executable--
/home/nike/cfour_v2.00beta/bin/xintprc
 @GETMEM-I,  Allocated  677108 MB of main memory.
  @GMOIAA-I, Processing MO integrals for spin case AA.
  @GMOIAA-I, Generation of integral list completed.
                      TYPE                NUMBER
                      ----               --------
                      PPPP            1427515686
                      PPPH              37931287
                      PPHH                270113
                      PHPH                188658
                      PHHH                  3744
                      HHHH                    31

                     TOTAL            1465909519
  @GMOIAA-I, Processing MO integrals for spin case BB.
  @GMOIAA-I, Generation of integral list completed.
                      TYPE                NUMBER
                      ----               --------
                      PPPP            1444804156
                      PPPH              18339534
                      PPHH                 71214
                      PHPH                 61066
                      PHHH                   587
                      HHHH                     4

                     TOTAL            1463276561
  @GMOIAB-I, Processing MO integrals for spin case AB.
                      TYPE                NUMBER
                      ----               --------
                      PPPP            2872160342
                      PPPH1H            38057032
                      PPPH2H            18289864
                      PPHH                272323
                      PHPH1P               60657
                      PHPH2P              189565
                      PHHH1P                1162
                      PHHH2P                1901
                      HHHH                    16

                     TOTAL            2929032862
            ----------------------------------------------
                     Projected spin multiplicities: 
            ----------------------------------------------
             <0|S^2|0>                  =    2.0000000000.
             <0|S^2 T2|0>               =    0.0000000000.
             Projected <0|S^2 exp(T)|0> =    2.0000000000.
             Approximate spin mult.     =    3.0000000000.
            ----------------------------------------------
   Largest T2 amplitudes for spin case AA:
   i   j   a   b             i   j   a   b             i   j   a   b
-----------------------------------------------------------------------------
[  4   2 286   5] 0.01285 [  4   2 286   7]-0.00903 [  4   2 286   8] 0.00877
[  4   2 284   5]-0.00817 [  4   2 286   6]-0.00752 [  4   2 380 103]-0.00732
[  4   2 448 171]-0.00732 [  4   2 381 103] 0.00706 [  4   2 449 171] 0.00706
[  4   2 288   5] 0.00685 [  4   2 448 170] 0.00648 [  4   2 380 102] 0.00648
[  4   2 286  12]-0.00647 [  4   2 283   5] 0.00637 [  4   2 285   5]-0.00620
-----------------------------------------------------------------------------
   Norm of T2AA vector (   123004 symmetry allowed elements):  0.0493724599.
-----------------------------------------------------------------------------
   Largest T2 amplitudes for spin case BB:
   i   j   a   b             i   j   a   b             i   j   a   b
-----------------------------------------------------------------------------
[  2   1 315  34]-0.00001 [  2   1 294  34] 0.00001 [  2   1 311  34] 0.00001
[  2   1 289  34]-0.00001 [  2   1 299  34]-0.00001 [  2   1 334  34] 0.00001
[  2   1 315  21] 0.00001 [  2   1 315  19] 0.00001 [  2   1 315  11]-0.00001
[  2   1 294  21]-0.00001 [  2   1 315  56] 0.00001 [  2   1 294  19]-0.00001
[  2   1 315  27]-0.00001 [  2   1 311  21]-0.00001 [  2   1 289  21] 0.00001
-----------------------------------------------------------------------------
   Norm of T2BB vector (    20788 symmetry allowed elements):  0.0001006046.
-----------------------------------------------------------------------------
   Largest T2 amplitudes for spin case AB:
       _       _                 _       _                 _       _
   i   j   a   b             i   j   a   b             i   j   a   b
-----------------------------------------------------------------------------
[  3   2 340 340]-0.00508 [  1   1 340 340]-0.00508 [  3   1 340  62]-0.00447
[  3   1  63 340]-0.00447 [  1   2  63 340]-0.00447 [  1   2 340  62]-0.00447
[  1   1  63  62]-0.00411 [  3   2  63  62]-0.00411 [  1   1 148 147]-0.00350
[  1   1 216 215]-0.00350 [  3   2 216 215]-0.00350 [  3   2 148 147]-0.00350
[  3   2 340 346] 0.00349 [  1   1 340 346] 0.00349 [  3   2 346 340] 0.00348
-----------------------------------------------------------------------------
   Norm of T2AB vector (   331040 symmetry allowed elements):  0.0743246269.
-----------------------------------------------------------------------------
  @CHECKOUT-I, Total execution time (CPU/WALL):     1097.33/    2649.46 seconds.
--executable xintprc finished with status     0 in     2649.99 seconds (walltime).
  calling xvcc 
 --invoking executable--
/home/nike/cfour_v2.00beta/bin/xvcc
 @GETMEM-I,  Allocated  677108 MB of main memory.
   CCSDT   energy will be calculated.
   The reference state is a ROHF wave function.
   The reference state is a general non-HF wave function.
   The total correlation energy is -0.083914046438 a.u.
  transposing abij 
   The total correlation energy is -0.090673234576 a.u.
  Convergence information after     1 iterations: 
  Largest element of residual vector :  0.73817923E-02.
  Largest element of DIIS residual   :  0.73817923E-02.
  transposing abij 
   The total correlation energy is -0.092082223003 a.u.
  Convergence information after     2 iterations: 
  Largest element of residual vector :  0.50826590E-02.
  Largest element of DIIS residual   :  0.45643092E-02.
  transposing abij 
   The total correlation energy is -0.092846108056 a.u.
  Convergence information after     3 iterations: 
  Largest element of residual vector :  0.27386687E-02.
  Largest element of DIIS residual   : -0.10473032E-02.
  transposing abij 
   The total correlation energy is -0.092895315230 a.u.
  Convergence information after     4 iterations: 
  Largest element of residual vector : -0.64886531E-03.
  Largest element of DIIS residual   :  0.26857570E-03.
  transposing abij 
   The total correlation energy is -0.092932411860 a.u.
  Convergence information after     5 iterations: 
  Largest element of residual vector :  0.12199494E-03.
  Largest element of DIIS residual   : -0.81986547E-04.
  transposing abij 
   The total correlation energy is -0.092936738130 a.u.
  Convergence information after     6 iterations: 
  Largest element of residual vector : -0.56409114E-04.
  Largest element of DIIS residual   : -0.43191401E-04.
  transposing abij 
   The total correlation energy is -0.092936927670 a.u.
  Convergence information after     7 iterations: 
  Largest element of residual vector : -0.26408492E-04.
  Largest element of DIIS residual   :  0.13370798E-04.
  transposing abij 
   The total correlation energy is -0.092936913322 a.u.
  Convergence information after     8 iterations: 
  Largest element of residual vector : -0.86384832E-05.
  Largest element of DIIS residual   : -0.48123606E-05.
  transposing abij 
   The total correlation energy is -0.092936918416 a.u.
  Convergence information after     9 iterations: 
  Largest element of residual vector : -0.29603743E-05.
  Largest element of DIIS residual   : -0.32747653E-05.
  transposing abij 
   The total correlation energy is -0.092936909078 a.u.
  Convergence information after    10 iterations: 
  Largest element of residual vector : -0.20713615E-05.
  Largest element of DIIS residual   : -0.19924924E-05.
  transposing abij 
   The total correlation energy is -0.092936877922 a.u.
  Convergence information after    11 iterations: 
  Largest element of residual vector : -0.12494569E-05.
  Largest element of DIIS residual   :  0.57266182E-06.
  transposing abij 
   The total correlation energy is -0.092936848271 a.u.
  Convergence information after    12 iterations: 
  Largest element of residual vector : -0.40035851E-06.
  Largest element of DIIS residual   : -0.28288540E-06.
  transposing abij 
   The total correlation energy is -0.092936834367 a.u.
  Convergence information after    13 iterations: 
  Largest element of residual vector :  0.17083259E-06.
  Largest element of DIIS residual   :  0.97896023E-07.
  transposing abij 
   The total correlation energy is -0.092936827755 a.u.
  Convergence information after    14 iterations: 
  Largest element of residual vector :  0.65244719E-07.
  Largest element of DIIS residual   :  0.64348547E-07.
  Amplitude equations converged in    14iterations.
   The total correlation energy is -0.092936826437 a.u.
   The CC iterations have converged.

            ----------------------------------------------
                     Projected spin multiplicities: 
            ----------------------------------------------
             <0|S^2|0>                  =    2.0000000000.
             <0|S^2 (T2+T1**2) |0>      =    0.0000000000.
             <0|S^2 T1|0>               =    0.0000000000.
             Projected <0|S^2 exp(T)|0> =    2.0000000000.
             Approximate spin mult.     =    3.0000000000.
            ----------------------------------------------
   Largest T1 amplitudes for spin case AA:
   i       a                 i       a                 i       a    
-----------------------------------------------------------------------------
[  2       5    ] 0.02442 [  2       7    ]-0.01437 [  2       6    ]-0.01339
[  2       8    ] 0.01185 [  2      12    ]-0.00469 [  2      15    ] 0.00423
[  4     295    ] 0.00293 [  2      11    ]-0.00263 [  4     288    ]-0.00217
[  4     292    ] 0.00199 [  2       9    ]-0.00194 [  2      18    ]-0.00166
[  2      28    ]-0.00165 [  2      22    ] 0.00158 [  2      25    ]-0.00154
-----------------------------------------------------------------------------
   Norm of T1AA vector (      388 symmetry allowed elements):  0.0350435126.
-----------------------------------------------------------------------------
   Largest T2 amplitudes for spin case AA:
   i   j   a   b             i   j   a   b             i   j   a   b
-----------------------------------------------------------------------------
[  4   2 286   5] 0.03404 [  4   2 286   7]-0.02297 [  4   2 380 103]-0.02197
[  4   2 448 171]-0.02197 [  4   2 286   8] 0.02140 [  4   2 381 103] 0.02126
[  4   2 449 171] 0.02126 [  4   2 284   5]-0.02083 [  4   2 448 170] 0.01969
[  4   2 380 102] 0.01969 [  4   2 286   6]-0.01957 [  4   2 449 170]-0.01898
[  4   2 381 102]-0.01898 [  4   2 448 172] 0.01770 [  4   2 380 104] 0.01770
-----------------------------------------------------------------------------
   Norm of T2AA vector (   123004 symmetry allowed elements):  0.1169892493.
-----------------------------------------------------------------------------
   Largest T1 amplitudes for spin case BB:
   i       a                 i       a                 i       a    
-----------------------------------------------------------------------------
[  1      19    ] 0.00095 [  2     295    ] 0.00094 [  2     310    ]-0.00076
[  1      14    ]-0.00071 [  1      39    ]-0.00070 [  1      34    ]-0.00069
[  2     318    ]-0.00067 [  2     288    ]-0.00066 [  2     322    ]-0.00059
[  2     292    ] 0.00059 [  1       9    ] 0.00057 [  1      35    ]-0.00057
[  2     340    ] 0.00056 [  2     315    ]-0.00055 [  1      46    ]-0.00053
-----------------------------------------------------------------------------
   Norm of T1BB vector (      196 symmetry allowed elements):  0.0032901731.
-----------------------------------------------------------------------------
   Largest T2 amplitudes for spin case BB:
   i   j   a   b             i   j   a   b             i   j   a   b
-----------------------------------------------------------------------------
[  2   1 315  34]-0.00002 [  2   1 294  34] 0.00001 [  2   1 311  34] 0.00001
[  2   1 289  34]-0.00001 [  2   1 299  34]-0.00001 [  2   1 334  34] 0.00001
[  2   1 315  21] 0.00001 [  2   1 315  19] 0.00001 [  2   1 294  21]-0.00001
[  2   1 315  11]-0.00001 [  2   1 294  19]-0.00001 [  2   1 315  27]-0.00001
[  2   1 315  56] 0.00001 [  2   1 289  21] 0.00001 [  2   1 311  21]-0.00001
-----------------------------------------------------------------------------
   Norm of T2BB vector (    20788 symmetry allowed elements):  0.0001155983.
-----------------------------------------------------------------------------
   Largest T2 amplitudes for spin case AB:
       _       _                 _       _                 _       _
   i   j   a   b             i   j   a   b             i   j   a   b
-----------------------------------------------------------------------------
[  3   2 340 340]-0.00584 [  1   1 340 340]-0.00584 [  3   1  63 340]-0.00513
[  1   2  63 340]-0.00513 [  3   1 340  62]-0.00513 [  1   2 340  62]-0.00513
[  1   1  63  62]-0.00468 [  3   2  63  62]-0.00468 [  3   2 346 340] 0.00394
[  1   1 346 340] 0.00394 [  3   2 340 346] 0.00393 [  1   1 340 346] 0.00393
[  3   1  69 340] 0.00383 [  1   2  69 340] 0.00383 [  3   1 340  68] 0.00383
-----------------------------------------------------------------------------
   Norm of T2AB vector (   331040 symmetry allowed elements):  0.0844228927.
-----------------------------------------------------------------------------
       Summary of iterative solution of CC equations 
      -----------------------------------------------------------
                       Correlation           Total
       Iteration         Energy              Energy
      -----------------------------------------------------------
            0        -0.083914046438     -14.947933584478  DIIS 
            1        -0.090673234576     -14.954692772617  DIIS 
            2        -0.092082223003     -14.956101761043  DIIS 
            3        -0.092846108056     -14.956865646097  DIIS 
            4        -0.092895315230     -14.956914853271  DIIS 
            5        -0.092932411860     -14.956951949901  DIIS 
            6        -0.092936738130     -14.956956276170  DIIS 
            7        -0.092936927670     -14.956956465711  DIIS 
            8        -0.092936913322     -14.956956451363  DIIS 
            9        -0.092936918416     -14.956956456456  DIIS 
           10        -0.092936909078     -14.956956447119  DIIS 
           11        -0.092936877922     -14.956956415962  DIIS 
           12        -0.092936848271     -14.956956386311  DIIS 
           13        -0.092936834367     -14.956956372407  DIIS 
           14        -0.092936826437     -14.956956364477  DIIS 
      -----------------------------------------------------------
      A miracle has come to pass. The CC iterations have converged.
      The reference energy is       -14.86401953804050 a.u.
      The correlation energy is      -0.09293682643684 a.u.
      The total energy is           -14.95695636447733 a.u.
  @CHECKOUT-I, Total execution time (CPU/WALL):   636281.64/  753554.83 seconds.
--executable xvcc finished with status     0 in   753555.30 seconds (walltime).
  The final electronic energy is       -14.956956364477334 a.u. 
  This computation required                       762595.38 seconds (walltime).
--- SharcNET Job Epilogue ---
Job completed successfully.
               jobid: 1482410
               resid: 2963210
         exit status: 0
      allocated time: 762597
           user time: 621417
         system time: 21448.8
peak rss=286793736192; peak vsz=286793736192 (bytes)
atime=762597; utime=621417; stime=21448.8; exit=0
