 --invoking executable--
/home/nike/cfour/cfour_v2.00beta/bin/xjoda


   *************************************************************************
         <<<     CCCCCC     CCCCCC   |||     CCCCCC     CCCCCC   >>>
       <<<      CCC        CCC       |||    CCC        CCC         >>>
      <<<      CCC        CCC        |||   CCC        CCC            >>>
    <<<        CCC        CCC        |||   CCC        CCC              >>>
      <<<      CCC        CCC        |||   CCC        CCC            >>>
       <<<      CCC        CCC       |||    CCC        CCC         >>>
         <<<     CCCCCC     CCCCCC   |||     CCCCCC     CCCCCC   >>>
   *************************************************************************

     ****************************************************************
     * CFOUR Coupled-Cluster techniques for Computational Chemistry *
     ****************************************************************
 

   Department of Chemistry                Institut fuer Physikalische Chemie
   University of Texas at Austin          Universitaet Mainz
   Austin, TX  78712, USA                 D-55099 Mainz, Germany
 
                       Version 2.00beta
 
                     cdr464.int.cedar.computecanada.ca                 
                     Sa 20. Jan 21:29:29 PST 2018                      
                     integer*8 version is running
 
********************************************************************************
*                          Input from ZMAT file                                *
********************************************************************************
Li2                                                                             
Li                                                                              
Li 1 R                                                                          
                                                                                
R=4.170                                                                         
                                                                                
*ACES2(CALC=CCSDT                                                               
INPUT_MRCC=OFF                                                                  
CC_PROG=MRCC                                                                    
SAVE_INTS=ON                                                                    
SCF_EXPSTART=2                                                                  
SCF_DAMPING=900                                                                 
SCF_EXTRAPOLATION=ON                                                            
XFORM_TOL=18                                                                    
SCF_CONV=7                                                                      
CC_CONV=10                                                                      
CC_MAXCYC=999                                                                   
SCF_MAXCYC=9999                                                                 
T3_EXTRAPOL=ON                                                                  
REFERENCE=ROHF                                                                  
MULT=3                                                                          
ABCDTYPE=STANDARD                                                               
OCCUPATION=2-0-0-0-2-0-0-0/1-0-0-0-1-0-0-0                                      
MEM=1450                                                                        
MEM_UNIT=GB                                                                     
BASIS=SPECIAL)                                                                  
                                                                                
LI:aCV6Z-KOPUT                                                                  
LI:aCV6Z-KOPUT                                                                  
                                                                                
********************************************************************************
    -------------------------------------------------------------------
                    CFOUR Control Parameters 
    -------------------------------------------------------------------
        External           Internal           Value            Units
          Name               Name
    -------------------------------------------------------------------
       ABCDTYPE             IABCDT         STANDARD     [  0]   ***   
       ANHARMONIC           IANHAR         OFF          [  0]   ***   
       ANH_ALGORIT          IANALG         STANDARD     [  0]   ***   
       ANH_DERIVAT          IANDER         SECOND       [  1]   ***   
       ANH_STEPSIZ          ICUBST             50000          x 10-6  
       ANH_SYMMETR          IANHSM         ABELIAN      [  0]   ***   
       AO_LADDERS           IAOLAD         SINGLEPASS   [  1]   ***   
       BASIS                IBASIS         SPECIAL      [  0]   ***   
       BREIT                IBREIT         OFF          [  0]   ***   
       BRUCK_CONV           IBRTOL          10D-  4             ***   
       BRUECKNER            IBRKNR             OFF      [  0]   ***   
       BUFFERSIZE           IBUFFS            600               ***   
       CACHE_RECS           ICHREC             10               ***   
       CALCLEVEL            ICLLVL           CCSDT      [ 18]   ***   
       CCORBOPT             ICCORB             OFF      [  0] x 0.01  
       CC_CONV              ICCCNV          10D- 10             ***   
       CC_EXPORDER          ICCEOR              5               ***   
       CC_EXTRAPOL          ICCEXT             DIIS     [  1]   ***   
       CC_MAXCYC            ICCCYC            999              cycles 
       CC_PROGRAM           ICCPRO         MRCC         [  2]   ***   
       CHARGE               ICHRGE              0               ***   
       CHOLESKY             ICHOLE         OFF          [  0]   ***   
       CIS_CONV             ICISTL              5               ***   
       COMM_SIZE            IPSIZE            ***               ***   
       CONSTANT             ICONST         OLD          [  1]   ***   
       CONTINUUM            ICONTU         NONE         [  0]   ***   
       CONTRACTION          ICNTYP          GENERAL     [  1]   ***   
       COORDINATES          ICOORD         INTERNAL     [  0]   ***   
       CPHF_CONVER          ICPHFT          10D- 16             ***   
       CPHF_MAXCYC          ICPHFC             64              cycles 
       CUBIC                ICUBIC         OFF          [  0]   ***   
       CURVILINEAR          ICURVY            OFF       [  0]   ***   
       DBOC                 IDBOC          OFF          [  0]   ***   
       DCT                  IDCT           OFF          [  0]   ***   
       DERIV_LEV            IDRLVL            ZERO      [  0]   ***   
       DIAG_MRCC            IEOMST          10D-  0             ***   
       DIFF_TYPE            IDIFTY         RELAXED      [  0]   ***   
       DIRECT               IDIRCT         OFF          [  0]   ***   
       DROPMO               IDRPMO      NONE         
       ECP                  IECP           OFF          [  0]   ***   
       EIGENVECTOR          IVEC                1               ***   
       EL_ANHARM            IELANH         OFF          [  0]   ***   
       EOMFOLLOW            IEOMSR         ENERGY       [  0]   ***   
       EOM_MRCC             IMRCCE         NEW          [  1]   ***   
       EOM_NONIT            EOMNON         OFF          [  0]   ***   
       EOM_NSING            IEOMSI          10D-  0             ***   
       EOM_NSTATES          IMRCCD         DAVIDSON     [  0]   ***   
       EOM_NTRIP            IEOMTR          10D-  0             ***   
       EOM_ORDER            IEXORD         ENERGY       [  0]   ***   
       ESTATE_CONV          IEXTOL          10D-  5             ***   
       ESTATE_DIAG          IEXDIG         ITERATIVE    [  0]   ***   
       ESTATE_LOCK          IESLOC         ON           [  1]   ***   
       ESTATE_MAXC          IEXMXC             20               ***   
       ESTATE_PROP          IEXPRP         OFF          [  0]   ***   
       EVAL_HESS            IRECAL              0            # of cyc.
       EXCITATION           IEXCIT              0               ***   
       EXCITE               IEXCIT         NONE         [  0]   ***   
       FCGRADNEW            IFCGNW         OFF          [  0]   ***   
       FC_FIELD             IFINFC              0             x 10-6  
       FD_CALTYPE           IFDCAL         GRADONLY     [  0]   ***   
       FD_PROJECT           IFDPRJ         OFF          [  1]   ***   
       FD_STEPSIZE          IDISFD              0            10-4 bohr
       FD_USEGROUP          IFDGRP         FULL         [  0]   ***   
       FILE_RECSIZ          IFLREC              4096           words  
       FINITE_PERT          IFIPER              0             x 10-6  
       FIXGEOM              IFIXGM         OFF          [  0]   ***   
       FOCK                 IFOCK          AO           [  1]   ***   
       FREQ_ALGORI          IVIALG         STANDARD     [  0]   ***   
       FROZEN_CORE          IFROCO         OFF          [  0]   ***   
       FROZEN_VIRT          IFROVI         OFF          [  0]   ***   
       GAMMA_ABCD           IGABCD         STORE        [  0]   ***   
       GAMMA_ABCI           IGABCI         STORE        [  0]   ***   
       GENBAS_1             IGNBS1              0               ***   
       GENBAS_2             IGNBS2              0               ***   
       GENBAS_3             IGNBS3              0               ***   
       GENBAS_4             IGNBS4              0               ***   
       GEO_CONV             ICONTL              5              H/bohr 
       GEO_MAXCYC           IOPTCY             50               ***   
       GEO_MAXSTEP          IMXSTP            300            millibohr
       GEO_METHOD           INR            SINGLE_POINT [  5]   ***   
       GIAO                 IGIAO          OFF          [  1]   ***   
       GIMIC                IGIMIC         OFF          [  0]   ***   
       GRID                 IGRID          OFF          [  0]   ***   
       GRID_ALGO            IGALGO         SERIAL       [  0]   ***   
       GUESS                IGUESS            MOREAD    [  0]   ***   
       HBAR                 IHBAR              OFF      [  0]   ***   
       HESS_TYPE            IHESTP         SCF          [  0]   ***   
       HF2_FILE             IHF2Fl         USE          [  1]   ***   
       HFSTABILITY          ISTABL         OFF          [  0]   ***   
       INCORE               INCORE             OFF      [  0]   ***   
       INPUT_MRCC           IMRCC          OFF          [  0]   ***   
       INTEGRALS            INTTYP             VMOL     [  1]   ***   
       JODA_PRINT           IJPRNT              0               ***   
       LINDEP_TOL           ILINDP              8               ***   
       LINEQ_CONV           IZTACN          10D-  7           cycles  
       LINEQ_EXPOR          ILMAXD              5               ***   
       LINEQ_MAXCY          ILMAXC             50               ***   
       LINEQ_TYPE           ILTYPE         DIIS         [  1]   ***   
       LOCK_ORBOCC          ILOCOC             OFF      [  0]   ***   
       MEMORY_SIZE          IMEMSZ         *********           words  
       MEM_UNIT             IMEMU          GB           [  3]   ***   
       MRCC                 IMRCCC         OFF          [  0]   ***   
       MULTIPLICTY          IMULTP              3               ***   
       NEGEVAL              IDIE             ABORT      [  0]   ***   
       NEWNORM              INEWNO         OFF          [  0]   ***   
       NON-HF               INONHF              ON      [  1]   ***   
       NTOP_TAMP            ITOPT2             15               ***   
       NUC_MODEL            INUCMO         POINT        [  0]   ***   
       OCCUPATION           IOCCU  A   2,  0,  0,  0,  2,  0,  0,  0,
                                   B   1,  0,  0,  0,  1,  0,  0,  0,
       OPEN-SHELL           IOPEN          SPIN-ORBITAL [  0]   ***   
       ORBITALS             IORBTP         SEMICANONICAL[  1]   ***   
       PARALLEL             IPARAL         ON           [  1]   ***   
       PARA_INT             IPINTS         ON           [  1]   ***   
       PARA_PRINT           IPPRIN              0               ***   
       PERT_ORB             IPTORB         STANDARD     [  0]   ***   
       POINTS               IGRDFD              0               ***   
       PRINT                IPRNT               0               ***   
       PROPS                IPROPS             OFF      [  0]   ***   
       PROP_INTEGR          IINTYP         INTERNAL     [  0]   ***   
       PSI                  IPSI           OFF          [  0]   ***   
       QUARTIC              IQUART         OFF          [  0]   ***   
       RAMAN_INT            IRAMIN         OFF          [  0]   ***   
       RAMAN_ORB            IRAMRE         UNRELAXED    [  0]   ***   
       RDO                  IRDOFM             OFF      [  0]   ***   
       REFERENCE            IREFNC             ROHF     [  2]   ***   
       RELATIVIST           IRELAT         OFF          [  0]   ***   
       RELAX_DENS           IRDENS             OFF      [  0]   ***   
       RESET_FLAGS          IRESET             OFF      [  0]   ***   
       RESTART_CC           ICCRES         OFF          [  0]   ***   
       ROT_EVEC             ROTVEC              0               ***   
       SAVE_INTS            ISVINT              ON      [  1]   ***   
       SCALE_ON             ISTCRT              0               ***   
       SCF_CONV             ISCFCV          10D-  7             ***   
       SCF_DAMPING          IDAMP             900             x 10-3  
       SCF_EXPORDE          IRPPOR              6               ***   
       SCF_EXPSTAR          IRPPLS              2               ***   
       SCF_EXTRAPO          IRPP                ON      [  1]   ***   
       SCF_MAXCYC           ISCFCY            ***              cycles 
       SCF_NOSTOP           ISCFST         OFF          [  0]   ***   
       SCF_PRINT            ISCFPR              0               ***   
       SD_FIELD             IFINSD              0             x 10-6  
       SEQUENCE             ISEQUE         OFF          [  0]   ***   
       SOPERT               IPERSO         OFF          [  0]   ***   
       SPHERICAL            IDFGHI             ON       [  1]   ***   
       SPINORBIT            ISOCAL         OFF          [  0]   ***   
       SPINROTATIO          ISRCON         OFF          [  0]   ***   
       SPIN_FLIP            ISPFLP         OFF          [  0]   ***   
       SPIN_ORBIT           ISPORB         OFF          [  0]   ***   
       SPIN_SCAL            ISCSMP         OFF          [  0]   ***   
       SUBGROUP             ISUBGP         DEFAULT      [  0]   ***   
       SUBGRPAXIS           ISBXYZ         X            [  0]   ***   
       SYMMETRY             ISYM             ON         [  0]   ***   
       SYM_CHECK            ISYMCK         OVERRIDE     [  1]   ***   
       T3_EXTRAPOL          IT3EXT         ON           [  1]   ***   
       TAMP_SUM             IEVERY              5               ***   
       TESTSUITE            ITESTS         OFF          [  0]   ***   
       THERMOCH             ITHERM         OFF          [  0]   ***   
       TOL_CHOLESK          ITOLCH          10D-  4             ***   
       TRANGRAD             IRESRM         OFF          [  0]   ***   
       TRANS_INV            ITRAIN         USE          [  0]   ***   
       TREAT_PERT           ITREAT         SIMULTANEOUS [  0]   ***   
       UIJ_THRESHO          IUIJTH              1               ***   
       UNITS                IUNITS         ANGSTROM     [  0]   ***   
       UNOS                 IUNOS          OFF          [  0]   ***   
       UPDATE_HESS          IHUPDT         ON           [  1]   ***   
       VIBPHASE             ISETPH         STANDARD     [  0]   ***   
       VIBRATION            IVIB              NO        [  0]   ***   
       VIB_ALGORIT          IGEALG         STANDARD     [  0]   ***   
       VNATORB              IVNORB         OFF          [  0]   ***   
       VTRAN                IVTRAN         FULL/PARTIAL [  0]   ***   
       XFIELD               IXEFLD              0             x 10-6  
       XFORM_TOL            IXFTOL          10D- 18             ***   
       YFIELD               IYEFLD              0             x 10-6  
       ZFIELD               IZEFLD              0             x 10-6  
    -------------------------------------------------------------------
   2 entries found in Z-matrix 
   Job Title : Li2                                                                             
   There are  1 unique internal coordinates.
   Of these,  0 will be optimized.
   User supplied Z-matrix: 
--------------------------------------------------------------------------------
       SYMBOL    BOND      LENGTH    ANGLE     ANGLE     DIHED     ANGLE
                  TO      (ANGST)    WRT      (DEG)      WRT      (DEG)
--------------------------------------------------------------------------------
        Li   
        Li         1         R    
                  *Initial values for internal coordinates* 
                      Name             Value
                        R               4.1700000000
--------------------------------------------------------------------------------
  1  LI         3     7.01600
  2  LI         3     7.01600
 factor:   60.1997200000000     
   Rotational constants (in cm-1): 
          0.2763533126             0.2763533126
   Rotational constants (in MHz): 
       8284.8650478640          8284.8650478640
********************************************************************************
   The full molecular point group is DXh .
   The largest Abelian subgroup of the full molecular point group is D2h .
   The computational point group is D2h .
********************************************************************************
--------------------------------------------------------------------------------
   Analysis of internal coordinates specified by Z-matrix 
--------------------------------------------------------------------------------
   *The nuclear repulsion energy is    1.142108848920863 a.u.
   *There is   1 degree of freedom within the tot. symm. molecular subspace.
   *Z-matrix requests optimization of   0 coordinates.
   *The optimization is constrained.
   *The following   1 parameters can have non-zero 
    derivatives within the totally symmetric subspace:
             R    [ 1]
   *The following   0 parameters are to be optimized:

   *The following coordinates must be varied in an  unconstrained optimization.
             R    [ 1]
--------------------------------------------------------------------------------
 ----------------------------------------------------------------
 Z-matrix   Atomic            Coordinates (in bohr)
  Symbol    Number           X              Y              Z
 ----------------------------------------------------------------
     LI        3        -0.00000000     0.00000000     3.94007980
     LI        3         0.00000000     0.00000000    -3.94007980
 ----------------------------------------------------------------
   Interatomic distance matrix (Angstroms) 
 
                 LI            LI   
                [ 1]        [ 2]
  LI   [ 1]     0.00000
  LI   [ 2]     4.17000     0.00000
   Rotational constants (in cm-1): 
          0.2763533126             0.0000000000
   Rotational constants (in MHz): 
       8284.8650478640             0.0000000000
  There are  558 basis functions.
 @GEOPT-W, Archive file not created for single-point calculation.
  @CHECKOUT-I, Total execution time (CPU/WALL):        0.20/       1.09 seconds.
--executable xjoda finished with status     0 in        1.51 seconds (walltime).
 --invoking executable--
/home/nike/cfour/cfour_v2.00beta/bin/xvmol
 Serial version of molecule started
********************************************************************************
                    Input from MOL file
********************************************************************************
INTGRL        1    0    1    0    0    0    0    0    0                         
         *** CFOUR Program System (Release V0.1) ***                            
Li2                                                                             
    1    3 X  Y   Z   0.10E-08              0    0                              
   9999.00      3.00                                                            
          3.00000000    1    7    1    1    1    1    1    1    1               
LI#1  -0.000000000000000   0.000000000000000   3.940079795592062                
   22   13                                                                      
   103207.000000000       4.000000000000000E-006  1.000000000000000E-006        
  0.000000000000000E+000  0.000000000000000E+000  0.000000000000000E+000        
  0.000000000000000E+000  0.000000000000000E+000  0.000000000000000E+000        
  0.000000000000000E+000  0.000000000000000E+000  0.000000000000000E+000        
  0.000000000000000E+000  0.000000000000000E+000                                
   15664.8000000000       2.900000000000000E-005  5.000000000000000E-006        
  0.000000000000000E+000  0.000000000000000E+000  0.000000000000000E+000        
  0.000000000000000E+000  0.000000000000000E+000  0.000000000000000E+000        
  0.000000000000000E+000  0.000000000000000E+000  0.000000000000000E+000        
  0.000000000000000E+000  0.000000000000000E+000                                
   3600.84000000000       1.490000000000000E-004  2.300000000000000E-005        
  0.000000000000000E+000  0.000000000000000E+000  0.000000000000000E+000        
  0.000000000000000E+000  0.000000000000000E+000  0.000000000000000E+000        
  0.000000000000000E+000  0.000000000000000E+000  0.000000000000000E+000        
  0.000000000000000E+000  0.000000000000000E+000                                
   1026.35000000000       6.270000000000000E-004  9.800000000000000E-005        
  0.000000000000000E+000  0.000000000000000E+000  0.000000000000000E+000        
  0.000000000000000E+000  0.000000000000000E+000  0.000000000000000E+000        
  0.000000000000000E+000  0.000000000000000E+000  0.000000000000000E+000        
  0.000000000000000E+000  0.000000000000000E+000                                
   335.925000000000       2.274000000000000E-003  3.550000000000000E-004        
  0.000000000000000E+000  0.000000000000000E+000  0.000000000000000E+000        
  0.000000000000000E+000  0.000000000000000E+000  0.000000000000000E+000        
  0.000000000000000E+000  0.000000000000000E+000  0.000000000000000E+000        
  0.000000000000000E+000  0.000000000000000E+000                                
   121.409000000000       7.358000000000000E-003  1.159000000000000E-003        
  0.000000000000000E+000  0.000000000000000E+000  0.000000000000000E+000        
  0.000000000000000E+000  0.000000000000000E+000  0.000000000000000E+000        
  0.000000000000000E+000  0.000000000000000E+000  0.000000000000000E+000        
  0.000000000000000E+000  0.000000000000000E+000                                
   47.3372000000000       2.145000000000000E-002  3.373000000000000E-003        
  0.000000000000000E+000  0.000000000000000E+000  0.000000000000000E+000        
  0.000000000000000E+000  0.000000000000000E+000  0.000000000000000E+000        
  0.000000000000000E+000  0.000000000000000E+000  0.000000000000000E+000        
  0.000000000000000E+000  0.000000000000000E+000                                
   19.6309000000000       5.559900000000000E-002  8.978000000000000E-003        
  0.000000000000000E+000  0.000000000000000E+000  0.000000000000000E+000        
  0.000000000000000E+000  0.000000000000000E+000  0.000000000000000E+000        
  0.000000000000000E+000  0.000000000000000E+000  0.000000000000000E+000        
  0.000000000000000E+000  0.000000000000000E+000                                
   8.54706000000000       0.124328000000000       2.042300000000000E-002        
  0.000000000000000E+000  0.000000000000000E+000  0.000000000000000E+000        
  0.000000000000000E+000  0.000000000000000E+000  0.000000000000000E+000        
  0.000000000000000E+000  0.000000000000000E+000  0.000000000000000E+000        
  0.000000000000000E+000  0.000000000000000E+000                                
   3.85303000000000       0.228994000000000       4.070500000000000E-002        
  0.000000000000000E+000  0.000000000000000E+000  0.000000000000000E+000        
  0.000000000000000E+000  0.000000000000000E+000  0.000000000000000E+000        
  0.000000000000000E+000  0.000000000000000E+000  0.000000000000000E+000        
  0.000000000000000E+000  0.000000000000000E+000                                
   1.78035000000000       0.323811000000000       6.462500000000000E-002        
  0.000000000000000E+000  0.000000000000000E+000  0.000000000000000E+000        
  0.000000000000000E+000  0.000000000000000E+000  0.000000000000000E+000        
  0.000000000000000E+000  0.000000000000000E+000  0.000000000000000E+000        
  0.000000000000000E+000  0.000000000000000E+000                                
  0.837931000000000       0.000000000000000E+000  0.000000000000000E+000        
   1.00000000000000       0.000000000000000E+000  0.000000000000000E+000        
  0.000000000000000E+000  0.000000000000000E+000  0.000000000000000E+000        
  0.000000000000000E+000  0.000000000000000E+000  0.000000000000000E+000        
  0.000000000000000E+000  0.000000000000000E+000                                
  0.390527000000000       0.000000000000000E+000  0.000000000000000E+000        
  0.000000000000000E+000   1.00000000000000       0.000000000000000E+000        
  0.000000000000000E+000  0.000000000000000E+000  0.000000000000000E+000        
  0.000000000000000E+000  0.000000000000000E+000  0.000000000000000E+000        
  0.000000000000000E+000  0.000000000000000E+000                                
  9.777600000000000E-002  0.000000000000000E+000  0.000000000000000E+000        
  0.000000000000000E+000  0.000000000000000E+000   1.00000000000000             
  0.000000000000000E+000  0.000000000000000E+000  0.000000000000000E+000        
  0.000000000000000E+000  0.000000000000000E+000  0.000000000000000E+000        
  0.000000000000000E+000  0.000000000000000E+000                                
  4.493300000000000E-002  0.000000000000000E+000  0.000000000000000E+000        
  0.000000000000000E+000  0.000000000000000E+000  0.000000000000000E+000        
   1.00000000000000       0.000000000000000E+000  0.000000000000000E+000        
  0.000000000000000E+000  0.000000000000000E+000  0.000000000000000E+000        
  0.000000000000000E+000  0.000000000000000E+000                                
  2.060200000000000E-002  0.000000000000000E+000  0.000000000000000E+000        
  0.000000000000000E+000  0.000000000000000E+000  0.000000000000000E+000        
  0.000000000000000E+000   1.00000000000000       0.000000000000000E+000        
  0.000000000000000E+000  0.000000000000000E+000  0.000000000000000E+000        
  0.000000000000000E+000  0.000000000000000E+000                                
  6.100000000000000E-003  0.000000000000000E+000  0.000000000000000E+000        
  0.000000000000000E+000  0.000000000000000E+000  0.000000000000000E+000        
  0.000000000000000E+000  0.000000000000000E+000   1.00000000000000             
  0.000000000000000E+000  0.000000000000000E+000  0.000000000000000E+000        
  0.000000000000000E+000  0.000000000000000E+000                                
   49.3907000000000       0.000000000000000E+000  0.000000000000000E+000        
  0.000000000000000E+000  0.000000000000000E+000  0.000000000000000E+000        
  0.000000000000000E+000  0.000000000000000E+000  0.000000000000000E+000        
   1.00000000000000       0.000000000000000E+000  0.000000000000000E+000        
  0.000000000000000E+000  0.000000000000000E+000                                
   26.3401000000000       0.000000000000000E+000  0.000000000000000E+000        
  0.000000000000000E+000  0.000000000000000E+000  0.000000000000000E+000        
  0.000000000000000E+000  0.000000000000000E+000  0.000000000000000E+000        
  0.000000000000000E+000   1.00000000000000       0.000000000000000E+000        
  0.000000000000000E+000  0.000000000000000E+000                                
   14.0472000000000       0.000000000000000E+000  0.000000000000000E+000        
  0.000000000000000E+000  0.000000000000000E+000  0.000000000000000E+000        
  0.000000000000000E+000  0.000000000000000E+000  0.000000000000000E+000        
  0.000000000000000E+000  0.000000000000000E+000   1.00000000000000             
  0.000000000000000E+000  0.000000000000000E+000                                
   7.49140000000000       0.000000000000000E+000  0.000000000000000E+000        
  0.000000000000000E+000  0.000000000000000E+000  0.000000000000000E+000        
  0.000000000000000E+000  0.000000000000000E+000  0.000000000000000E+000        
  0.000000000000000E+000  0.000000000000000E+000  0.000000000000000E+000        
   1.00000000000000       0.000000000000000E+000                                
   3.99510000000000       0.000000000000000E+000  0.000000000000000E+000        
  0.000000000000000E+000  0.000000000000000E+000  0.000000000000000E+000        
  0.000000000000000E+000  0.000000000000000E+000  0.000000000000000E+000        
  0.000000000000000E+000  0.000000000000000E+000  0.000000000000000E+000        
  0.000000000000000E+000   1.00000000000000                                     
   15   12                                                                      
   32.6443000000000       2.290000000000000E-004  0.000000000000000E+000        
  0.000000000000000E+000  0.000000000000000E+000  0.000000000000000E+000        
  0.000000000000000E+000  0.000000000000000E+000  0.000000000000000E+000        
  0.000000000000000E+000  0.000000000000000E+000  0.000000000000000E+000        
  0.000000000000000E+000                                                        
   7.75817000000000       1.768000000000000E-003  0.000000000000000E+000        
  0.000000000000000E+000  0.000000000000000E+000  0.000000000000000E+000        
  0.000000000000000E+000  0.000000000000000E+000  0.000000000000000E+000        
  0.000000000000000E+000  0.000000000000000E+000  0.000000000000000E+000        
  0.000000000000000E+000                                                        
   2.46169000000000       7.560000000000000E-003  0.000000000000000E+000        
  0.000000000000000E+000  0.000000000000000E+000  0.000000000000000E+000        
  0.000000000000000E+000  0.000000000000000E+000  0.000000000000000E+000        
  0.000000000000000E+000  0.000000000000000E+000  0.000000000000000E+000        
  0.000000000000000E+000                                                        
  0.869615000000000       2.332200000000000E-002  0.000000000000000E+000        
  0.000000000000000E+000  0.000000000000000E+000  0.000000000000000E+000        
  0.000000000000000E+000  0.000000000000000E+000  0.000000000000000E+000        
  0.000000000000000E+000  0.000000000000000E+000  0.000000000000000E+000        
  0.000000000000000E+000                                                        
  0.327205000000000       0.000000000000000E+000   1.00000000000000             
  0.000000000000000E+000  0.000000000000000E+000  0.000000000000000E+000        
  0.000000000000000E+000  0.000000000000000E+000  0.000000000000000E+000        
  0.000000000000000E+000  0.000000000000000E+000  0.000000000000000E+000        
  0.000000000000000E+000                                                        
  0.134815000000000       0.000000000000000E+000  0.000000000000000E+000        
   1.00000000000000       0.000000000000000E+000  0.000000000000000E+000        
  0.000000000000000E+000  0.000000000000000E+000  0.000000000000000E+000        
  0.000000000000000E+000  0.000000000000000E+000  0.000000000000000E+000        
  0.000000000000000E+000                                                        
  5.999500000000000E-002  0.000000000000000E+000  0.000000000000000E+000        
  0.000000000000000E+000   1.00000000000000       0.000000000000000E+000        
  0.000000000000000E+000  0.000000000000000E+000  0.000000000000000E+000        
  0.000000000000000E+000  0.000000000000000E+000  0.000000000000000E+000        
  0.000000000000000E+000                                                        
  2.810100000000000E-002  0.000000000000000E+000  0.000000000000000E+000        
  0.000000000000000E+000  0.000000000000000E+000   1.00000000000000             
  0.000000000000000E+000  0.000000000000000E+000  0.000000000000000E+000        
  0.000000000000000E+000  0.000000000000000E+000  0.000000000000000E+000        
  0.000000000000000E+000                                                        
  1.332000000000000E-002  0.000000000000000E+000  0.000000000000000E+000        
  0.000000000000000E+000  0.000000000000000E+000  0.000000000000000E+000        
   1.00000000000000       0.000000000000000E+000  0.000000000000000E+000        
  0.000000000000000E+000  0.000000000000000E+000  0.000000000000000E+000        
  0.000000000000000E+000                                                        
  3.900000000000000E-003  0.000000000000000E+000  0.000000000000000E+000        
  0.000000000000000E+000  0.000000000000000E+000  0.000000000000000E+000        
  0.000000000000000E+000   1.00000000000000       0.000000000000000E+000        
  0.000000000000000E+000  0.000000000000000E+000  0.000000000000000E+000        
  0.000000000000000E+000                                                        
   51.4577000000000       0.000000000000000E+000  0.000000000000000E+000        
  0.000000000000000E+000  0.000000000000000E+000  0.000000000000000E+000        
  0.000000000000000E+000  0.000000000000000E+000   1.00000000000000             
  0.000000000000000E+000  0.000000000000000E+000  0.000000000000000E+000        
  0.000000000000000E+000                                                        
   23.0522000000000       0.000000000000000E+000  0.000000000000000E+000        
  0.000000000000000E+000  0.000000000000000E+000  0.000000000000000E+000        
  0.000000000000000E+000  0.000000000000000E+000  0.000000000000000E+000        
   1.00000000000000       0.000000000000000E+000  0.000000000000000E+000        
  0.000000000000000E+000                                                        
   10.3270000000000       0.000000000000000E+000  0.000000000000000E+000        
  0.000000000000000E+000  0.000000000000000E+000  0.000000000000000E+000        
  0.000000000000000E+000  0.000000000000000E+000  0.000000000000000E+000        
  0.000000000000000E+000   1.00000000000000       0.000000000000000E+000        
  0.000000000000000E+000                                                        
   4.62630000000000       0.000000000000000E+000  0.000000000000000E+000        
  0.000000000000000E+000  0.000000000000000E+000  0.000000000000000E+000        
  0.000000000000000E+000  0.000000000000000E+000  0.000000000000000E+000        
  0.000000000000000E+000  0.000000000000000E+000   1.00000000000000             
  0.000000000000000E+000                                                        
   2.07250000000000       0.000000000000000E+000  0.000000000000000E+000        
  0.000000000000000E+000  0.000000000000000E+000  0.000000000000000E+000        
  0.000000000000000E+000  0.000000000000000E+000  0.000000000000000E+000        
  0.000000000000000E+000  0.000000000000000E+000  0.000000000000000E+000        
   1.00000000000000                                                             
   10   10                                                                      
  0.825300000000000        1.00000000000000       0.000000000000000E+000        
  0.000000000000000E+000  0.000000000000000E+000  0.000000000000000E+000        
  0.000000000000000E+000  0.000000000000000E+000  0.000000000000000E+000        
  0.000000000000000E+000  0.000000000000000E+000                                
  0.437300000000000       0.000000000000000E+000   1.00000000000000             
  0.000000000000000E+000  0.000000000000000E+000  0.000000000000000E+000        
  0.000000000000000E+000  0.000000000000000E+000  0.000000000000000E+000        
  0.000000000000000E+000  0.000000000000000E+000                                
  0.231700000000000       0.000000000000000E+000  0.000000000000000E+000        
   1.00000000000000       0.000000000000000E+000  0.000000000000000E+000        
  0.000000000000000E+000  0.000000000000000E+000  0.000000000000000E+000        
  0.000000000000000E+000  0.000000000000000E+000                                
  0.122800000000000       0.000000000000000E+000  0.000000000000000E+000        
  0.000000000000000E+000   1.00000000000000       0.000000000000000E+000        
  0.000000000000000E+000  0.000000000000000E+000  0.000000000000000E+000        
  0.000000000000000E+000  0.000000000000000E+000                                
  6.500000000000000E-002  0.000000000000000E+000  0.000000000000000E+000        
  0.000000000000000E+000  0.000000000000000E+000   1.00000000000000             
  0.000000000000000E+000  0.000000000000000E+000  0.000000000000000E+000        
  0.000000000000000E+000  0.000000000000000E+000                                
  3.450000000000000E-002  0.000000000000000E+000  0.000000000000000E+000        
  0.000000000000000E+000  0.000000000000000E+000  0.000000000000000E+000        
   1.00000000000000       0.000000000000000E+000  0.000000000000000E+000        
  0.000000000000000E+000  0.000000000000000E+000                                
   34.9147000000000       0.000000000000000E+000  0.000000000000000E+000        
  0.000000000000000E+000  0.000000000000000E+000  0.000000000000000E+000        
  0.000000000000000E+000   1.00000000000000       0.000000000000000E+000        
  0.000000000000000E+000  0.000000000000000E+000                                
   15.0047000000000       0.000000000000000E+000  0.000000000000000E+000        
  0.000000000000000E+000  0.000000000000000E+000  0.000000000000000E+000        
  0.000000000000000E+000  0.000000000000000E+000   1.00000000000000             
  0.000000000000000E+000  0.000000000000000E+000                                
   6.44830000000000       0.000000000000000E+000  0.000000000000000E+000        
  0.000000000000000E+000  0.000000000000000E+000  0.000000000000000E+000        
  0.000000000000000E+000  0.000000000000000E+000  0.000000000000000E+000        
   1.00000000000000       0.000000000000000E+000                                
   2.77120000000000       0.000000000000000E+000  0.000000000000000E+000        
  0.000000000000000E+000  0.000000000000000E+000  0.000000000000000E+000        
  0.000000000000000E+000  0.000000000000000E+000  0.000000000000000E+000        
  0.000000000000000E+000   1.00000000000000                                     
    8    8                                                                      
  0.679100000000000        1.00000000000000       0.000000000000000E+000        
  0.000000000000000E+000  0.000000000000000E+000  0.000000000000000E+000        
  0.000000000000000E+000  0.000000000000000E+000  0.000000000000000E+000        
  0.358800000000000       0.000000000000000E+000   1.00000000000000             
  0.000000000000000E+000  0.000000000000000E+000  0.000000000000000E+000        
  0.000000000000000E+000  0.000000000000000E+000  0.000000000000000E+000        
  0.189500000000000       0.000000000000000E+000  0.000000000000000E+000        
   1.00000000000000       0.000000000000000E+000  0.000000000000000E+000        
  0.000000000000000E+000  0.000000000000000E+000  0.000000000000000E+000        
  0.100100000000000       0.000000000000000E+000  0.000000000000000E+000        
  0.000000000000000E+000   1.00000000000000       0.000000000000000E+000        
  0.000000000000000E+000  0.000000000000000E+000  0.000000000000000E+000        
  5.290000000000000E-002  0.000000000000000E+000  0.000000000000000E+000        
  0.000000000000000E+000  0.000000000000000E+000   1.00000000000000             
  0.000000000000000E+000  0.000000000000000E+000  0.000000000000000E+000        
   23.0476000000000       0.000000000000000E+000  0.000000000000000E+000        
  0.000000000000000E+000  0.000000000000000E+000  0.000000000000000E+000        
   1.00000000000000       0.000000000000000E+000  0.000000000000000E+000        
   8.99420000000000       0.000000000000000E+000  0.000000000000000E+000        
  0.000000000000000E+000  0.000000000000000E+000  0.000000000000000E+000        
  0.000000000000000E+000   1.00000000000000       0.000000000000000E+000        
   3.50990000000000       0.000000000000000E+000  0.000000000000000E+000        
  0.000000000000000E+000  0.000000000000000E+000  0.000000000000000E+000        
  0.000000000000000E+000  0.000000000000000E+000   1.00000000000000             
    6    6                                                                      
  0.419900000000000        1.00000000000000       0.000000000000000E+000        
  0.000000000000000E+000  0.000000000000000E+000  0.000000000000000E+000        
  0.000000000000000E+000                                                        
  0.230900000000000       0.000000000000000E+000   1.00000000000000             
  0.000000000000000E+000  0.000000000000000E+000  0.000000000000000E+000        
  0.000000000000000E+000                                                        
  0.127000000000000       0.000000000000000E+000  0.000000000000000E+000        
   1.00000000000000       0.000000000000000E+000  0.000000000000000E+000        
  0.000000000000000E+000                                                        
  6.990000000000000E-002  0.000000000000000E+000  0.000000000000000E+000        
  0.000000000000000E+000   1.00000000000000       0.000000000000000E+000        
  0.000000000000000E+000                                                        
   15.9134000000000       0.000000000000000E+000  0.000000000000000E+000        
  0.000000000000000E+000  0.000000000000000E+000   1.00000000000000             
  0.000000000000000E+000                                                        
   5.49930000000000       0.000000000000000E+000  0.000000000000000E+000        
  0.000000000000000E+000  0.000000000000000E+000  0.000000000000000E+000        
   1.00000000000000                                                             
    4    4                                                                      
  0.337100000000000        1.00000000000000       0.000000000000000E+000        
  0.000000000000000E+000  0.000000000000000E+000                                
  0.183500000000000       0.000000000000000E+000   1.00000000000000             
  0.000000000000000E+000  0.000000000000000E+000                                
  9.990000000000000E-002  0.000000000000000E+000  0.000000000000000E+000        
   1.00000000000000       0.000000000000000E+000                                
   10.2035000000000       0.000000000000000E+000  0.000000000000000E+000        
  0.000000000000000E+000   1.00000000000000                                     
    2    2                                                                      
  0.292700000000000        1.00000000000000       0.000000000000000E+000        
  0.146200000000000       0.000000000000000E+000   1.00000000000000             
FINISH                                                                          
 
********************************************************************************
 One- and two-electron integrals over symmetry-adapted AOs are calculated.

  Spherical harmonics are used.
  
  Integrals less than  0.10E-13 are neglected.

   Basis function not normalized: 
   Center (as ordered in MOL file):   1
   Angular Momentum type          : s
   Offset within angular momentum :  1
   <chi|chi>                      :    1.4563396204
   Basis function not normalized: 
   Center (as ordered in MOL file):   1
   Angular Momentum type          : s
   Offset within angular momentum :  2
   <chi|chi>                      :    7.9137943001
   Basis function not normalized: 
   Center (as ordered in MOL file):   1
   Angular Momentum type          : p
   Offset within angular momentum :  1
   <chi|chi>                      :   33.2919650428
  Nuclear repulsion energy :    1.1421088489 a.u.
  required memory for a1 array              458573584  words 
  required memory for a2 array              133231759  words 
 @GETMEM-I,  Allocated    4530 MB of main memory.
  @MOLECU-I, One electron integrals (CPU/WALL):        0.70/       0.71 seconds.
  @TWOEL-I,   23423849 integrals of symmetry type  I I I I
  @TWOEL-I,  264102548 integrals of symmetry type  I J I J
  @TWOEL-I,  141529924 integrals of symmetry type  I I J J
  @TWOEL-I,  711342611 integrals of symmetry type  I J K L
  @TWOEL-I, Total number of 2-e integrals 1140398932.
  @MOLECU-I, Two electron integrals (CPU/WALL):     2212.86/    2213.30 seconds.
  @CHECKOUT-I, Total execution time (CPU/WALL):     2214.11/    2214.76 seconds.
--executable xvmol finished with status     0 in     2215.10 seconds (walltime).
 --invoking executable--
/home/nike/cfour/cfour_v2.00beta/bin/xvmol2ja
 @GETMEM-I,  Allocated 1382827 MB of main memory.
  @CHECKOUT-I, Total execution time (CPU/WALL):        0.21/       0.25 seconds.
--executable xvmol2ja finished with status     0 in        0.62 seconds (walltime).
 --invoking executable--
/home/nike/cfour/cfour_v2.00beta/bin/xvscf
  There are  558 functions in the AO basis.

  There are 8 irreducible representations.

       Irrep        # of functions
         1                 99
         2                 68
         3                 68
         4                 44
         5                 99
         6                 68
         7                 68
         8                 44


  Parameters for SCF calculation: 
        SCF reference function: ROHF  
  Maximum number of iterations: 9999
     Full symmetry point group: DXh 
     Computational point group: D2h 
        Initial density matrix: MOREAD                 
     SCF convergence tolerance: 10**(- 7)
  DIIS convergence acceleration:  ON
          Latest start for DIIS:   2
                     DIIS order:   6

     Alpha population by irrep:   2    0    0    0    2    0    0    0
      Beta population by irrep:   1    0    0    0    1    0    0    0


  Memory information:   21866638 words required.
  Fock matrices are constructed from AO integral file.
 @GETMEM-I,  Allocated     166 MB of main memory.
  Initialization and symmetry analysis required      0.008 seconds.

 total no. of electrons in initial guess :  0.000000000000000E+000
 total no. of electrons in initial guess :  0.000000000000000E+000
  --------------------------------------------------------------------
  Iteration         Total Energy            Largest Density Difference
  --------------------------------------------------------------------
       0             1.142108848920863              0.0000000000D+00
   current occupation vector 
     2  0  0  0  2  0  0  0
     1  0  0  0  1  0  0  0
  applying damping factor of   0.100000000000000     
       1            -1.047137948244390              0.3642817758D+00
   current occupation vector 
     2  0  0  0  2  0  0  0
     1  0  0  0  1  0  0  0
       2           -14.125357060433805              0.3621745073D+00
   current occupation vector 
     2  0  0  0  2  0  0  0
     1  0  0  0  1  0  0  0
       3           -13.901815378589314              0.9018479732D-01
   current occupation vector 
     2  0  0  0  2  0  0  0
     1  0  0  0  1  0  0  0
       4           -13.938399112328389              0.2036800850D-01
   current occupation vector 
     2  0  0  0  2  0  0  0
     1  0  0  0  1  0  0  0
       5           -13.942566366065707              0.2031761706D-02
   current occupation vector 
     2  0  0  0  2  0  0  0
     1  0  0  0  1  0  0  0
       6           -13.942491133869700              0.5478502379D-04
   current occupation vector 
     2  0  0  0  2  0  0  0
     1  0  0  0  1  0  0  0
       7           -13.942483850924459              0.8323799822D-05
   current occupation vector 
     2  0  0  0  2  0  0  0
     1  0  0  0  1  0  0  0
       8           -14.619939886655162              0.1089280861D+02
   current occupation vector 
     2  0  0  0  2  0  0  0
     1  0  0  0  1  0  0  0
       9           -14.857432744775686              0.1087967874D+02
   current occupation vector 
     2  0  0  0  2  0  0  0
     1  0  0  0  1  0  0  0
      10           -14.862517372509188              0.1772497872D+00
   current occupation vector 
     2  0  0  0  2  0  0  0
     1  0  0  0  1  0  0  0
      11           -14.863566374766588              0.1453789778D+00
   current occupation vector 
     2  0  0  0  2  0  0  0
     1  0  0  0  1  0  0  0
      12           -14.863725559144072              0.1779553441D+00
   current occupation vector 
     2  0  0  0  2  0  0  0
     1  0  0  0  1  0  0  0
      13           -14.863987306086067              0.1077623299D+00
   current occupation vector 
     2  0  0  0  2  0  0  0
     1  0  0  0  1  0  0  0
      14           -14.864018820992111              0.2239085311D-01
   current occupation vector 
     2  0  0  0  2  0  0  0
     1  0  0  0  1  0  0  0
      15           -14.864019495123234              0.7339380528D-02
   current occupation vector 
     2  0  0  0  2  0  0  0
     1  0  0  0  1  0  0  0
      16           -14.864019536855036              0.1126112778D-02
   current occupation vector 
     2  0  0  0  2  0  0  0
     1  0  0  0  1  0  0  0
      17           -14.864019537956750              0.8470598325D-03
   current occupation vector 
     2  0  0  0  2  0  0  0
     1  0  0  0  1  0  0  0
      18           -14.864019538022653              0.3690616933D-03
   current occupation vector 
     2  0  0  0  2  0  0  0
     1  0  0  0  1  0  0  0
      19           -14.864019538035777              0.6742303302D-04
   current occupation vector 
     2  0  0  0  2  0  0  0
     1  0  0  0  1  0  0  0
      20           -14.864019538040175              0.1216785044D-04
   current occupation vector 
     2  0  0  0  2  0  0  0
     1  0  0  0  1  0  0  0
      21           -14.864019538040544              0.4387939330D-05
   current occupation vector 
     2  0  0  0  2  0  0  0
     1  0  0  0  1  0  0  0
      22           -14.864019538040544              0.1723326487D-05
   current occupation vector 
     2  0  0  0  2  0  0  0
     1  0  0  0  1  0  0  0
      23           -14.864019538040601              0.4811168080D-06
   current occupation vector 
     2  0  0  0  2  0  0  0
     1  0  0  0  1  0  0  0

  SCF has converged.

 Density matrix saved to file den.dat
 total alpha spin electron number:   4.00000000000005     
 total  beta spin electron number:   2.00000000000001     
     E(ROHF)=       -14.864019538040619              0.8063579678D-07

  Eigenvector printing suppressed.


       The average multiplicity is    3.0000000
  The expectation value of S**2 is    2.0000000

 @PUTMOS-I, Writing converged MOs to NEWMOS. 
 @PUTMOS-I, Symmetry   1 Full Blocks 24 Partial Blocksize   3
 @PUTMOS-I, Symmetry   2 Full Blocks 17 Partial Blocksize   0
 @PUTMOS-I, Symmetry   3 Full Blocks 17 Partial Blocksize   0
 @PUTMOS-I, Symmetry   4 Full Blocks 11 Partial Blocksize   0
 @PUTMOS-I, Symmetry   5 Full Blocks 24 Partial Blocksize   3
 @PUTMOS-I, Symmetry   6 Full Blocks 17 Partial Blocksize   0
 @PUTMOS-I, Symmetry   7 Full Blocks 17 Partial Blocksize   0
 @PUTMOS-I, Symmetry   8 Full Blocks 11 Partial Blocksize   0
  @DMPJOB-I, Rotating orbitals to semicanonical basis.
             *** Eigenvalues correspond to new basis. ***

  @PRJDEN-I, Basis set contains h and/or higher angular momentum functions.
             Analysis of density matrix symmetry not available.
             Check irreps of the molecular orbitals in the full point group
             for presence of an asymmetric solution.

 
  ORBITAL EIGENVALUES (ALPHA)  (1H = 27.2113838 eV)

       MO #        E(hartree)               E(eV)           FULLSYM    COMPSYM
       ----   --------------------   --------------------   -------   ---------
    1   280          -2.4853085516         -67.6286849073    PI         B1u (5)
    2     1          -2.4853084021         -67.6286808394    PI          Ag (1)
    3     2          -0.2276537834          -6.1947744771    SGg+        Ag (1)
    4   281          -0.1706313868          -4.6431161588    SGu+       B1u (5)
  +++++++++++++++++++++++++++++++++++++++++++++++++++++++++++++++++++++++++++++
    5     3           0.0042152040           0.1147015349    SGg+        Ag (1)
    6   168           0.0045127706           0.1227987327    PIu        B3u (3)
    7   100           0.0045127706           0.1227987327    PIu        B2u (2)
    8   282           0.0072920751           0.1984274550    SGu+       B1u (5)
    9   379           0.0119721732           0.3257793994    PIg        B3g (6)
   10   447           0.0119721732           0.3257793994    PIg        B2g (7)
   11     4           0.0140945196           0.3835313829    SGg+        Ag (1)
   12   169           0.0158743043           0.4319617884    PIu        B3u (3)
   13   101           0.0158743043           0.4319617884    PIu        B2u (2)
   14     5           0.0179736372           0.4890875395    SGg+        Ag (1)
   15   283           0.0255365050           0.6948836383    SGu+       B1u (5)
   16   448           0.0329224025           0.8958641295    PIg        B2g (7)
   17   380           0.0329224025           0.8958641295    PIg        B3g (6)
   18   284           0.0488506402           1.3292935190    SGu+       B1u (5)
   19     6           0.0559861171           1.5234597213    SGg+        Ag (1)
   20   102           0.0601500033           1.6367648267    PIu        B2u (2)
   21   170           0.0601500033           1.6367648267    PIu        B3u (3)
   22   381           0.0719472053           1.9577830189    PIg        B3g (6)
   23   449           0.0719472053           1.9577830189    PIg        B2g (7)
   24     7           0.0792089650           2.1553855483    SGg+        Ag (1)
   25     8           0.0800323552           2.1777911361    DEg         Ag (1)
   26   236           0.0800323552           2.1777911361    DEg        B1g (4)
   27   285           0.0834623993           2.2711273812    SGu+       B1u (5)
   28   171           0.0983331643           2.6757814753    PIu        B3u (3)
   29   103           0.0983331643           2.6757814753    PIu        B2u (2)
   30   286           0.1031234460           2.8061316689    SGu+       B1u (5)
   31   515           0.1054191004           2.8685996022    DEu         Au (8)
   32   287           0.1054191004           2.8685996022    DEu        B1u (5)
   33     9           0.1307645345           3.5582839388    SGg+        Ag (1)
   34   382           0.1313875869           3.5752380563    PIg        B3g (6)
   35   450           0.1313875869           3.5752380563    PIg        B2g (7)
   36    10           0.1584934223           4.3128253459    SGg+        Ag (1)
   37   383           0.1671450246           4.5482474184    PIg        B3g (6)
   38   451           0.1671450246           4.5482474184    PIg        B2g (7)
   39   104           0.1720603876           4.6820012481    PIu        B2u (2)
   40   172           0.1720603876           4.6820012481    PIu        B3u (3)
   41   288           0.1736982318           4.7265692533    SGu+       B1u (5)
   42   105           0.1790467103           4.8721087544    PHu        B2u (2)
   43   173           0.1790467103           4.8721087544    PHu        B3u (3)
   44   289           0.1844001482           5.0177832078    SGu+       B1u (5)
   45   237           0.1927069852           5.2438237402    DEg        B1g (4)
   46    11           0.1927069852           5.2438237402    DEg         Ag (1)
   47   384           0.2109809021           5.7410823049    PHg        B3g (6)
   48   452           0.2109809021           5.7410823049    PHg        B2g (7)
   49   174           0.2226732226           6.0592465256    PIu        B3u (3)
   50   106           0.2226732226           6.0592465256    PIu        B2u (2)
   51   238           0.2362920931           6.4298348384    DEg        B1g (4)
   52    12           0.2362920931           6.4298348384    DEg         Ag (1)
   53    13           0.2412991999           6.5660851447    SGg+        Ag (1)
   54   516           0.2532833899           6.8921915364    DEu         Au (8)
   55   290           0.2532833899           6.8921915364    DEu        B1u (5)
   56   175           0.2549344591           6.9371194158    PIu        B3u (3)
   57   107           0.2549344591           6.9371194158    PIu        B2u (2)
   58   517           0.2578048800           7.0152275398    DEu         Au (8)
   59   291           0.2578048800           7.0152275398    DEu        B1u (5)
   60   292           0.2631041915           7.1594291394    SGu+       B1u (5)
   61    14           0.2716543455           7.3920906608    SGg+        Ag (1)
   62   385           0.2716842704           7.3929049589    PIg        B3g (6)
   63   453           0.2716842704           7.3929049589    PIg        B2g (7)
   64    15           0.3057493312           8.3198624028    GAg         Ag (1)
   65   239           0.3057493312           8.3198624028    GAg        B1g (4)
   66   176           0.3151493770           8.5756506573    PHu        B3u (3)
   67   108           0.3151493770           8.5756506573    PHu        B2u (2)
   68   386           0.3226181568           8.7788864915    PIg        B3g (6)
   69   454           0.3226181568           8.7788864915    PIg        B2g (7)
   70   293           0.3330212946           9.0619702674    SGu+       B1u (5)
   71    16           0.3350801574           9.1179947747    SGg+        Ag (1)
   72   294           0.3398422683           9.2475784000    GAu        B1u (5)
   73   518           0.3398422683           9.2475784000    GAu         Au (8)
   74   387           0.3673548835           9.9962347320    PIg        B3g (6)
   75   455           0.3673548835           9.9962347320    PIg        B2g (7)
   76   240           0.3674828824           9.9997177599    DEg        B1g (4)
   77    17           0.3674828824           9.9997177599    DEg         Ag (1)
   78   295           0.3881466157          10.5620065383    SGu+       B1u (5)
   79    18           0.3887543272          10.5785432081    SGg+        Ag (1)
   80   388           0.3920645204          10.6686181479    PHg        B3g (6)
   81   456           0.3920645204          10.6686181479    PHg        B2g (7)
   82   109           0.4067456647          11.0681123992    PIu        B2u (2)
   83   177           0.4067456647          11.0681123992    PIu        B3u (3)
   84   110           0.4241336733          11.5412641739    PIu        B2u (2)
   85   178           0.4241336733          11.5412641739    PIu        B3u (3)
   86   296           0.4521862319          12.3046131130    DEu        B1u (5)
   87   519           0.4521862319          12.3046131130    DEu         Au (8)
   88   297           0.4560679866          12.4102410312    SGu+       B1u (5)
   89   179           0.4800975101          13.0641176191    PHu        B3u (3)
   90   111           0.4800975101          13.0641176191    PHu        B2u (2)
   91   241           0.4816349555          13.1059536349    DEg        B1g (4)
   92    19           0.4816349555          13.1059536349    DEg         Ag (1)
   93    20           0.4825154236          13.1299123900    SGg+        Ag (1)
   94   457           0.5056577988          13.7596484454    PHg        B2g (7)
   95   389           0.5056577988          13.7596484454    PHg        B3g (6)
   96   180           0.5153105949          14.0223143839    PIu        B3u (3)
   97   112           0.5153105949          14.0223143839    PIu        B2u (2)
   98   390           0.5269172379          14.3381472010    PIg        B3g (6)
   99   458           0.5269172379          14.3381472010    PIg        B2g (7)
  100   520           0.5323243643          14.4852825942    DEu         Au (8)
  101   298           0.5323243643          14.4852825942    DEu        B1u (5)
  102   242           0.5419523561          14.7472735728    DEg        B1g (4)
  103    21           0.5419523561          14.7472735728    DEg         Ag (1)
  104   243           0.5426201286          14.7654445884    GAg        B1g (4)
  105    22           0.5426201286          14.7654445884    GAg         Ag (1)
  106   299           0.5449558024          14.8290015048    SGu+       B1u (5)
  107   181           0.5492016763          14.9445376072    PIu        B3u (3)
  108   113           0.5492016763          14.9445376072    PIu        B2u (2)
  109    23           0.5520433682          15.0218639775    SGg+        Ag (1)
  110   114           0.5529368793          15.0461776506    PHu        B2u (2)
  111   182           0.5529368793          15.0461776506    PHu        B3u (3)
  112   521           0.5688767415          15.4799233578    DEu         Au (8)
  113   300           0.5688767415          15.4799233578    DEu        B1u (5)
  114   391           0.5826185440          15.8538568215    PHg        B3g (6)
  115   459           0.5826185440          15.8538568215    PHg        B2g (7)
  116   301           0.5867335336          15.9658313834    SGu+       B1u (5)
  117   183           0.5925956619          16.1253480063    PHu        B3u (3)
  118   115           0.5925956619          16.1253480063    PHu        B2u (2)
  119   392           0.5935024469          16.1500228796    PIg        B3g (6)
  120   460           0.5935024469          16.1500228796    PIg        B2g (7)
  121    24           0.6354534319          17.2915672354    SGg+        Ag (1)
  122   302           0.6390127700          17.3884217496    GAu        B1u (5)
  123   522           0.6390127700          17.3884217496    GAu         Au (8)
  124   461           0.6764467662          18.4070525891    PIg        B2g (7)
  125   393           0.6764467662          18.4070525891    PIg        B3g (6)
  126   244           0.6880068933          18.7216196439    DEg        B1g (4)
  127    25           0.6880068933          18.7216196439    DEg         Ag (1)
  128    26           0.7305109512          19.8782138782    SGg+        Ag (1)
  129   394           0.7381429933          20.0858923047    PHg        B3g (6)
  130   462           0.7381429933          20.0858923047    PHg        B2g (7)
  131   395           0.7470663519          20.3287092400    PIg        B3g (6)
  132   463           0.7470663519          20.3287092400    PIg        B2g (7)
  133   184           0.7529995209          20.4901589779    PHu        B3u (3)
  134   116           0.7529995209          20.4901589779    PHu        B2u (2)
  135    27           0.7556231811          20.5615524036    GAg         Ag (1)
  136   245           0.7556231811          20.5615524036    GAg        B1g (4)
  137   303           0.7668639934          20.8674304625    SGu+       B1u (5)
  138   185           0.7680311315          20.8991899056    PIu        B3u (3)
  139   117           0.7680311315          20.8991899056    PIu        B2u (2)
  140   304           0.7771292046          21.1467610639    GAu        B1u (5)
  141   523           0.7771292046          21.1467610639    GAu         Au (8)
  142   246           0.7925348595          21.5659702513    DEg        B1g (4)
  143    28           0.7925348595          21.5659702513    DEg         Ag (1)
  144   186           0.8036387092          21.8681213684    PIu        B3u (3)
  145   118           0.8036387092          21.8681213684    PIu        B2u (2)
  146   524           0.8110346690          22.0693756678    DEu         Au (8)
  147   305           0.8110346690          22.0693756678    DEu        B1u (5)
  148   464           0.8135692633          22.1383454868    PHg        B2g (7)
  149   396           0.8135692633          22.1383454868    PHg        B3g (6)
  150    29           0.8138752441          22.1466716483    SGg+        Ag (1)
  151   306           0.8268846504          22.5006755960    SGu+       B1u (5)
  152   307           0.8827978738          24.0221517789    SGu+       B1u (5)
  153   308           0.8938533698          24.3229871246    DEu        B1u (5)
  154   525           0.8938533698          24.3229871246    DEu         Au (8)
  155   465           0.9611471581          26.1541442254    PIg        B2g (7)
  156   397           0.9611471581          26.1541442254    PIg        B3g (6)
  157   187           0.9797790064          26.6611426016    PHu        B3u (3)
  158   119           0.9797790064          26.6611426016    PHu        B2u (2)
  159   247           0.9865011845          26.8440623694    GAg        B1g (4)
  160    30           0.9865011845          26.8440623694    GAg         Ag (1)
  161   120           1.0071238890          27.4052346979    PIu        B2u (2)
  162   188           1.0071238890          27.4052346979    PIu        B3u (3)
  163    31           1.0098078113          27.4782679368    XXXX      XXXX (1)
  164   248           1.0098078113          27.4782679368    XXXX      XXXX (4)
  165   309           1.0253524554          27.9012592140    XXXX      XXXX (5)
  166   526           1.0253524554          27.9012592140    XXXX      XXXX (8)
  167   249           1.0409995459          28.3270382000    DEg        B1g (4)
  168    32           1.0409995459          28.3270382000    DEg         Ag (1)
  169   189           1.0471568027          28.4945856775    PHu        B3u (3)
  170   121           1.0471568027          28.4945856775    PHu        B2u (2)
  171    33           1.0630520584          28.9271175800    SGg+        Ag (1)
  172   466           1.0631000713          28.9284240789    PHg        B2g (7)
  173   398           1.0631000713          28.9284240789    PHg        B3g (6)
  174   190           1.0649705166          28.9793214831    PIu        B3u (3)
  175   122           1.0649705166          28.9793214831    PIu        B2u (2)
  176   467           1.0702471958          29.1229072256    PHg        B2g (7)
  177   399           1.0702471958          29.1229072256    PHg        B3g (6)
  178   191           1.0749762195          29.2515905063    PHu        B3u (3)
  179   123           1.0749762195          29.2515905063    PHu        B2u (2)
  180   310           1.0892521999          29.6400596866    SGu+       B1u (5)
  181    34           1.0998024208          29.9271457971    SGg+        Ag (1)
  182   527           1.1019202757          29.9847755605    DEu         Au (8)
  183   311           1.1019202757          29.9847755605    DEu        B1u (5)
  184   312           1.1026682883          30.0051300196    SGu+       B1u (5)
  185   400           1.1117486091          30.2522181139    PIg        B3g (6)
  186   468           1.1117486091          30.2522181139    PIg        B2g (7)
  187    35           1.1175701812          30.4106311450    DEg         Ag (1)
  188   250           1.1175701812          30.4106311450    DEg        B1g (4)
  189   313           1.1512992324          31.3284453054    DEu        B1u (5)
  190   528           1.1512992324          31.3284453054    DEu         Au (8)
  191   192           1.1646755283          31.6924328246    PIu        B3u (3)
  192   124           1.1646755283          31.6924328246    PIu        B2u (2)
  193    36           1.1681654262          31.7873977768    SGg+        Ag (1)
  194   529           1.1768009266          32.0223816917    GAu         Au (8)
  195   314           1.1768009266          32.0223816917    GAu        B1u (5)
  196   401           1.1922715987          32.4433600904    PIg        B3g (6)
  197   469           1.1922715987          32.4433600904    PIg        B2g (7)
  198    37           1.2069347267          32.8423640940    DEg         Ag (1)
  199   251           1.2069347267          32.8423640940    DEg        B1g (4)
  200   315           1.2440566698          33.8525035364    SGu+       B1u (5)
  201    38           1.2709532726          34.5843973188    SGg+        Ag (1)
  202   252           1.3032910636          35.4643533612    GAg        B1g (4)
  203    39           1.3032910636          35.4643533612    GAg         Ag (1)
  204   193           1.3080246408          35.5931605457    PHu        B3u (3)
  205   125           1.3080246408          35.5931605457    PHu        B2u (2)
  206   470           1.3162775032          35.8177323537    PIg        B2g (7)
  207   402           1.3162775032          35.8177323537    PIg        B3g (6)
  208   194           1.3212792890          35.9538378656    PIu        B3u (3)
  209   126           1.3212792890          35.9538378656    PIu        B2u (2)
  210   403           1.3226610444          35.9914373418    PHg        B3g (6)
  211   471           1.3226610444          35.9914373418    PHg        B2g (7)
  212   472           1.3322886639          36.2534181925    PHg        B2g (7)
  213   404           1.3322886639          36.2534181925    PHg        B3g (6)
  214   127           1.3353925941          36.3378804275    PHu        B2u (2)
  215   195           1.3353925941          36.3378804275    PHu        B3u (3)
  216   316           1.3560549433          36.9001315424    GAu        B1u (5)
  217   530           1.3560549433          36.9001315424    GAu         Au (8)
  218   473           1.3986926106          38.0603614728    PIg        B2g (7)
  219   405           1.3986926106          38.0603614728    PIg        B3g (6)
  220    40           1.4134670301          38.4623938727    SGg+        Ag (1)
  221   531           1.4201829935          38.6451445289    DEu         Au (8)
  222   317           1.4201829935          38.6451445289    DEu        B1u (5)
  223   406           1.4205978137          38.6564323616    PHg        B3g (6)
  224   474           1.4205978137          38.6564323616    PHg        B2g (7)
  225   253           1.4239558530          38.7478092582    DEg        B1g (4)
  226    41           1.4239558530          38.7478092582    DEg         Ag (1)
  227   318           1.4292977341          38.8931692363    SGu+       B1u (5)
  228   196           1.4351156052          39.0514815574    PIu        B3u (3)
  229   128           1.4351156052          39.0514815574    PIu        B2u (2)
  230   532           1.5210260559          41.3892238075    DEu         Au (8)
  231   319           1.5210260559          41.3892238075    DEu        B1u (5)
  232   320           1.5333512100          41.7246083060    SGu+       B1u (5)
  233    42           1.5344179352          41.7536353753    SGg+        Ag (1)
  234    43           1.5658999341          42.6103041312    GAg         Ag (1)
  235   254           1.5658999341          42.6103041312    GAg        B1g (4)
  236   197           1.5709309316          42.7472045351    PHu        B3u (3)
  237   129           1.5709309316          42.7472045351    PHu        B2u (2)
  238   321           1.5824361853          43.0602784090    GAu        B1u (5)
  239   533           1.5824361853          43.0602784090    GAu         Au (8)
  240   475           1.6216964232          44.1286038095    PIg        B2g (7)
  241   407           1.6216964232          44.1286038095    PIg        B3g (6)
  242   255           1.6230142907          44.1644648101    DEg        B1g (4)
  243    44           1.6230142907          44.1644648101    DEg         Ag (1)
  244   476           1.6303835900          44.3649936415    PHg        B2g (7)
  245   408           1.6303835900          44.3649936415    PHg        B3g (6)
  246   322           1.6552962198          45.0429007720    SGu+       B1u (5)
  247   198           1.7588734125          47.8613795172    PIu        B3u (3)
  248   130           1.7588734125          47.8613795172    PIu        B2u (2)
  249   323           1.7770569883          48.3561797784    SGu+       B1u (5)
  250   534           1.7908439785          48.7313428609    DEu         Au (8)
  251   324           1.7908439785          48.7313428609    DEu        B1u (5)
  252    45           1.8560511950          50.5057214571    SGg+        Ag (1)
  253   477           1.8679143574          50.8285345218    PIg        B2g (7)
  254   409           1.8679143574          50.8285345218    PIg        B3g (6)
  255   131           2.1336469207          58.0594852939    PHu        B2u (2)
  256   199           2.1336469207          58.0594852939    PHu        B3u (3)
  257   256           2.1500678539          58.5063216119    DEg        B1g (4)
  258    46           2.1500678539          58.5063216119    DEg         Ag (1)
  259   410           2.1508114377          58.5265555548    PHg        B3g (6)
  260   478           2.1508114377          58.5265555548    PHg        B2g (7)
  261    47           2.1954777280          59.7419871228    SGg+        Ag (1)
  262   132           2.2441027155          61.0651403225    PIu        B2u (2)
  263   200           2.2441027155          61.0651403225    PIu        B3u (3)
  264   535           2.2443540135          61.0719784888    DEu         Au (8)
  265   325           2.2443540135          61.0719784888    DEu        B1u (5)
  266    48           2.2450554552          61.0910656884    DEg         Ag (1)
  267   257           2.2450554552          61.0910656884    DEg        B1g (4)
  268   536           2.2731029804          61.8542776612    DEu         Au (8)
  269   326           2.2731029804          61.8542776612    DEu        B1u (5)
  270   201           2.2923541883          62.3781296675    PIu        B3u (3)
  271   133           2.2923541883          62.3781296675    PIu        B2u (2)
  272   411           2.2931978634          62.4010872344    PIg        B3g (6)
  273   479           2.2931978634          62.4010872344    PIg        B2g (7)
  274   327           2.3035339572          62.6823466521    SGu+       B1u (5)
  275    49           2.4068407186          65.4934665861    SGg+        Ag (1)
  276   328           2.4090290527          65.5530141868    SGu+       B1u (5)
  277   202           2.4167893102          65.7641815318    PIu        B3u (3)
  278   134           2.4167893102          65.7641815318    PIu        B2u (2)
  279   203           2.4430729015          66.4793944215    PHu        B3u (3)
  280   135           2.4430729015          66.4793944215    PHu        B2u (2)
  281    50           2.4530776516          66.7516375174    XXXX      XXXX (1)
  282   258           2.4530776516          66.7516375174    XXXX      XXXX (4)
  283    51           2.4579911135          66.8853396138    GAg         Ag (1)
  284   259           2.4579911135          66.8853396138    GAg        B1g (4)
  285   537           2.4601351858          66.9436827900    XXXX      XXXX (8)
  286   329           2.4601351858          66.9436827900    XXXX      XXXX (5)
  287   412           2.4786231277          67.4467652719    PHg        B3g (6)
  288   480           2.4786231277          67.4467652719    PHg        B2g (7)
  289    52           2.4930116387          67.8382965680    SGg+        Ag (1)
  290   204           2.5019247599          68.0808349286    PHu        B3u (3)
  291   136           2.5019247599          68.0808349286    PHu        B2u (2)
  292   538           2.5145223860          68.4236337677    GAu         Au (8)
  293   330           2.5145223860          68.4236337677    GAu        B1u (5)
  294   260           2.5167414823          68.4840184503    DEg        B1g (4)
  295    53           2.5167414823          68.4840184503    DEg         Ag (1)
  296   413           2.5226196775          68.6439722761    PIg        B3g (6)
  297   481           2.5226196775          68.6439722761    PIg        B2g (7)
  298   414           2.5601114196          69.6641744583    PHg        B3g (6)
  299   482           2.5601114196          69.6641744583    PHg        B2g (7)
  300   539           2.6030746671          70.8332638777    DEu         Au (8)
  301   331           2.6030746671          70.8332638777    DEu        B1u (5)
  302   415           2.6637384075          72.4840082015    PIg        B3g (6)
  303   483           2.6637384075          72.4840082015    PIg        B2g (7)
  304   137           2.7116386772          73.7874408243    PIu        B2u (2)
  305   205           2.7116386772          73.7874408243    PIu        B3u (3)
  306   332           2.7249020073          74.1483543910    SGu+       B1u (5)
  307   261           2.7439432615          74.6664932677    GAg        B1g (4)
  308    54           2.7439432615          74.6664932677    GAg         Ag (1)
  309   138           2.7496112840          74.8207280023    PHu        B2u (2)
  310   206           2.7496112840          74.8207280023    PHu        B3u (3)
  311   207           2.7572723035          75.0291949457    PHu        B3u (3)
  312   139           2.7572723035          75.0291949457    PHu        B2u (2)
  313   484           2.7602492235          75.1102010587    PHg        B2g (7)
  314   416           2.7602492235          75.1102010587    PHg        B3g (6)
  315   485           2.7722406863          75.4365053553    PIg        B2g (7)
  316   417           2.7722406863          75.4365053553    PIg        B3g (6)
  317    55           2.7795699368          75.6359444030    SGg+        Ag (1)
  318   333           2.7864286039          75.8225782258    GAu        B1u (5)
  319   540           2.7864286039          75.8225782258    GAu         Au (8)
  320   262           2.8135538953          76.5606949432    DEg        B1g (4)
  321    56           2.8135538953          76.5606949432    DEg         Ag (1)
  322   334           2.8257829450          76.8934643079    SGu+       B1u (5)
  323   486           2.8477974355          77.4925090574    PHg        B2g (7)
  324   418           2.8477974355          77.4925090574    PHg        B3g (6)
  325   140           2.9010154781          78.9406456414    PIu        B2u (2)
  326   208           2.9010154781          78.9406456414    PIu        B3u (3)
  327   335           2.9400219017          80.0020644046    SGu+       B1u (5)
  328   541           2.9403019992          80.0096862444    DEu         Au (8)
  329   336           2.9403019992          80.0096862444    DEu        B1u (5)
  330    57           3.0188792876          82.1478829986    SGg+        Ag (1)
  331   419           3.0593452899          83.2490189188    PIg        B3g (6)
  332   487           3.0593452899          83.2490189188    PIg        B2g (7)
  333    58           3.1578216967          85.9286982214    GAg         Ag (1)
  334   263           3.1578216967          85.9286982214    GAg        B1g (4)
  335   141           3.1618911108          86.0394326120    PHu        B2u (2)
  336   209           3.1618911108          86.0394326120    PHu        B3u (3)
[...]
 
 Iteration 10  CC energy:   -14.95680843  Energy decrease:   0.00000005
 ======================================================================
 Norm of residual vector:     0.00000394
 CPU time [min]:  2023.966                   Wall time [min]:  1705.571
 
 Iteration 11  CC energy:   -14.95680843  Energy decrease:   2.8064E-09
 ======================================================================
 Norm of residual vector:     0.00000132
 CPU time [min]:  2142.615                   Wall time [min]:  1789.974
 
 Iteration 12  CC energy:   -14.95680842  Energy decrease:   0.00000001
 ======================================================================
 Norm of residual vector:     0.00000052
 CPU time [min]:  2258.683                   Wall time [min]:  1872.024
 
 Iteration 13  CC energy:   -14.95680842  Energy decrease:   1.6449E-09
 ======================================================================
 Norm of residual vector:     0.00000020
 CPU time [min]:  2376.231                   Wall time [min]:  1956.923
 
 Iteration 14  CC energy:   -14.95680842  Energy decrease:   1.5433E-09
 ======================================================================
 Norm of residual vector:     0.00000008
 CPU time [min]:  2490.197                   Wall time [min]:  2039.104
 
 Iteration 15  CC energy:   -14.95680842  Energy decrease:   9.4822E-12
 ======================================================================
 Norm of residual vector:     0.00000003
 CPU time [min]:  2607.429                   Wall time [min]:  2123.107
 
 Iteration 16  CC energy:   -14.95680842  Energy decrease:   1.4382E-10
 ======================================================================
 Norm of residual vector:     0.00000001
 CPU time [min]:  2721.575                   Wall time [min]:  2206.092
 
 Iteration 17  CC energy:   -14.95680842  Energy decrease:   7.2848E-12
 ======================================================================
 Norm of residual vector:     1.8920E-09
 CPU time [min]:  2836.344                   Wall time [min]:  2287.539
 
 Iteration 18  CC energy:   -14.95680842  Energy decrease:   6.0698E-12
 ======================================================================
 Norm of residual vector:     6.0990E-10
 CPU time [min]:  2952.020                   Wall time [min]:  2370.717
 
 Iteration 19  CC energy:   -14.95680842  Energy decrease:   1.3749E-12
 ======================================================================
 Norm of residual vector:     2.1276E-10
 CPU time [min]:  3068.006                   Wall time [min]:  2454.053
 
 Iteration 20  CC energy:   -14.95680842  Energy decrease:   3.9790E-13
 ======================================================================
 Norm of residual vector:     7.5611E-11
 CPU time [min]:  3183.925                   Wall time [min]:  2537.442
 
 Iteration 21  CC energy:   -14.95680842  Energy decrease:   5.8620E-14
 ======================================================================
 Norm of residual vector:     2.4170E-11
 CPU time [min]:  3300.883                   Wall time [min]:  2621.535
 
 Iteration 22  CC energy:   -14.95680842  Energy decrease:   1.0303E-13
 ======================================================================
 Norm of residual vector:     6.1014E-12
 CPU time [min]:  3416.687                   Wall time [min]:  2704.531
 
 Iteration 23  CC energy:   -14.95680842  Energy decrease:   1.4211E-14
 ======================================================================
 Norm of residual vector:     1.9644E-12
 CPU time [min]:  3534.799                   Wall time [min]:  2788.717
 
 Iteration 24  CC energy:   -14.95680842  Energy decrease:   8.8818E-15
 ======================================================================
 Norm of residual vector:     4.8757E-13
 CPU time [min]:  3653.020                   Wall time [min]:  2872.887
 
 Iteration 25  CC energy:   -14.95680842  Energy decrease:   1.7764E-15
 ======================================================================
 Norm of residual vector:     1.4454E-13
 CPU time [min]:  3769.742                   Wall time [min]:  2958.341
 
 Iteration 26  CC energy:   -14.95680842  Energy decrease:   0.0000E+00
 ======================================================================
 Norm of residual vector:     4.7460E-14
 CPU time [min]:  3891.779                   Wall time [min]:  3046.735
 
 Iteration 27  CC energy:   -14.95680842  Energy decrease:   0.0000E+00
 ======================================================================
 Norm of residual vector:     1.1666E-14
 CPU time [min]:  4013.355                   Wall time [min]:  3138.419
 
 Iteration 28  CC energy:   -14.95680842  Energy decrease:   0.0000E+00
 ======================================================================
 Norm of residual vector:     3.7906E-15
 CPU time [min]:  4135.797                   Wall time [min]:  3228.458
 
 Iteration 29  CC energy:   -14.95680842  Energy decrease:   0.0000E+00
 ======================================================================
 Norm of residual vector:     1.0501E-15
 CPU time [min]:  4252.035                   Wall time [min]:  3311.064
 
 Iteration 30  CC energy:   -14.95680842  Energy decrease:   0.0000E+00
 ======================================================================
 Norm of residual vector:     5.1904E-16
 CPU time [min]:  4366.438                   Wall time [min]:  3393.046
 
 Iteration 31  CC energy:   -14.95680842  Energy decrease:   0.0000E+00
 ======================================================================
 
 Iteration has converged in 31 steps.
 
 Final results:
 Total CCSD energy [au]:             -14.956808418226
 
 Perturbative corrections are calculated...
 ======================================================================
 Spin case  1   Alpha:  1   Beta:  2
 Number of excitations:        43326024
 CPU time [min]:  4433.314                   Wall time [min]:  3395.955
 ======================================================================
 Spin case  2   Alpha:  2   Beta:  1
 Number of excitations:        129479352
 CPU time [min]:  4520.649                   Wall time [min]:  3399.297
 ======================================================================
 Spin case  3   Alpha:  3   Beta:  0
 Number of excitations:        14260528
 CPU time [min]:  4535.493                   Wall time [min]:  3400.115
 ======================================================================
 Number of 3-fold excitations: 187065904
 
 
 CPU time [min]:  4535.588                   Wall time [min]:  3400.118
 
 Total CCSD[T] energy [au]:          -14.956939734596
 Total CCSD(T) energy [au]:          -14.956937267989

 ************************ 2018-01-23 13:25:25 *************************
 Executing goldstone...

 Generation of CC equations in terms of H and T...
 Generation of antisymmetrized Goldstone diagrams...
 Number of diagrams in T^1 equations:    15
 Number of diagrams in T^2 equations:    38
 Number of diagrams in T^3 equations:    50
 Number of diagrams in T^4 equations:     5
 Translation of diagrams to factorized equations...
 Optimizing intermediate calculation...
 Number of floating-point operations per iteration step:   9.6011E+14
 Probable CPU time per iteration step (hours):   9601.15
 Required memory (Mbytes): *********
 Number of intermediates:                                  80
 Number of intermediates to be stored:                     32
 Length of intermediate file (Mbytes):  186646.9

 ************************ 2018-01-23 13:25:27 *************************
 Executing xmrcc...

 **********************************************************************
 CC(3)(4) calculation 
 
 
 Allocation of****** Mbytes of memory...
 Number of spinorbitals:                  1116
 Number of alpha electrons:                        4
 Number of beta electrons:                         2
 Spin multiplicity:                     2
 z-component of spin:  1.0
 Spatial symmetry:                      5
 Convergence criterion:  1.0E-15
 Construction of occupation graphs...
 Number of                     0 -fold excitations:                      1
 Number of                     1 -fold excitations:                    584
 Number of                     2 -fold excitations:                 474832
 Number of                     3 -fold excitations:              187065904
 Total number of configurations:              187541321
 Calculation of coupling coefficients...
 Length of intermediate file (Mbytes):  140500.3
 
 ======================================================================
 
 Spin case  1   Alpha:  2   Beta:  2
 Number of excitations:            17770330316
 Spin case  2   Alpha:  3   Beta:  1
 Number of excitations:            15707539840
 Spin case  3   Alpha:  4   Beta:  0
 Number of excitations:              486274446
 Number of                     4 -fold excitations:            33964144602
 
 Memory requirements /Mbyte/: 
               Minimal        Optimal
 Real*8:     365176.6806    739655.7902
 Integer:      6964.8475
 Total:      372141.5280    746620.6377
 

 ************************ 2018-01-23 14:04:57 *************************
 Executing mrcc...

 **********************************************************************
 CCSDT(Q) calculation                                                   
 
 
 OpenMP parallel version is running.
 Number of CPUs:  32
 Allocation of******* Mbytes of memory...
 Number of spinorbitals:1116
 Number of alpha electrons:  4
 Number of beta  electrons:  2
 Spin multiplicity: 2
 z-component of spin:  1.0
 Spatial symmetry: 5
 Convergence criterion:  1.0E-15
 Construction of occupation graphs...
 Number of 0-fold excitations: 1
 Number of 1-fold excitations: 584
 Number of 2-fold excitations: 474832
 Number of 3-fold excitations: 187065904
 Total number of determinants: 187541321
 Calculation of coupling coefficients...
 Initial cluster amplitudes are read from unit 16.
 Length of intermediate file (Mbytes):  140500.3
 Reading integral list from unit 55...
 Sorting integrals...
 Sorting integrals...
 Sorting integrals...
 Sorting integrals...
 Energy of reference determinant [au]:     -14.864019538041
 Calculation of MP denominators...
 
 Starting CC iteration...
 ======================================================================
 Norm of residual vector:     0.04035775
 CPU time [min]:  2194.772                   Wall time [min]:  1003.578
 
 Iteration  1  CC energy:   -14.95680842  Energy decrease:   0.0000E+00
 ======================================================================
 Norm of residual vector:     0.00570665
 CPU time [min]:  3725.741                   Wall time [min]:  1188.094
 
 Iteration  2  CC energy:   -14.95689950  Energy decrease:   0.00009108
 ======================================================================
 Norm of residual vector:     0.00137939
 CPU time [min]:  5077.985                   Wall time [min]:  1368.193
 
 Iteration  3  CC energy:   -14.95693717  Energy decrease:   0.00003766
 ======================================================================
 Norm of residual vector:     0.00031484
 CPU time [min]:  6419.729                   Wall time [min]:  1548.555
 
 Iteration  4  CC energy:   -14.95695323  Energy decrease:   0.00001606
 ======================================================================
 Norm of residual vector:     0.00014017
 CPU time [min]:  7746.221                   Wall time [min]:  1740.336
 
 Iteration  5  CC energy:   -14.95695524  Energy decrease:   0.00000201
 ======================================================================
 Norm of residual vector:     0.00005392
 CPU time [min]:  9052.000                   Wall time [min]:  1916.723
 
 Iteration  6  CC energy:   -14.95695610  Energy decrease:   0.00000086
 ======================================================================
 Norm of residual vector:     0.00002174
 CPU time [min]: 10280.292                   Wall time [min]:  2104.244
 
 Iteration  7  CC energy:   -14.95695631  Energy decrease:   0.00000022
 ======================================================================
 Norm of residual vector:     0.00000718
 CPU time [min]: 11707.653                   Wall time [min]:  2286.226
 
 Iteration  8  CC energy:   -14.95695634  Energy decrease:   0.00000003
 ======================================================================
 Norm of residual vector:     0.00000283
 CPU time [min]: 13037.992                   Wall time [min]:  2475.759
 
 Iteration  9  CC energy:   -14.95695636  Energy decrease:   0.00000002
 ======================================================================
 Norm of residual vector:     0.00000116
 CPU time [min]: 14294.923                   Wall time [min]:  2662.907
 
 Iteration 10  CC energy:   -14.95695636  Energy decrease:   0.00000001
 ======================================================================
 Norm of residual vector:     0.00000041
 CPU time [min]: 15722.762                   Wall time [min]:  2849.098
 
 Iteration 11  CC energy:   -14.95695636  Energy decrease:   8.2263E-10
 ======================================================================
 Norm of residual vector:     0.00000014
 CPU time [min]: 17099.725                   Wall time [min]:  3031.770
 
 Iteration 12  CC energy:   -14.95695636  Energy decrease:   7.2827E-11
 ======================================================================
 Norm of residual vector:     0.00000006
 CPU time [min]: 18464.649                   Wall time [min]:  3213.080
 
 Iteration 13  CC energy:   -14.95695636  Energy decrease:   5.1450E-11
 ======================================================================
 Norm of residual vector:     0.00000002
 CPU time [min]: 19932.501                   Wall time [min]:  3396.212
 
 Iteration 14  CC energy:   -14.95695636  Energy decrease:   1.1704E-10
 ======================================================================
 Norm of residual vector:     0.00000001
 CPU time [min]: 21222.187                   Wall time [min]:  3582.595
 
 Iteration 15  CC energy:   -14.95695636  Energy decrease:   6.1142E-11
 ======================================================================
 Norm of residual vector:     3.9141E-09
 CPU time [min]: 22569.665                   Wall time [min]:  3768.029
 
 Iteration 16  CC energy:   -14.95695636  Energy decrease:   3.0091E-12
 ======================================================================
 Norm of residual vector:     1.1986E-09
 CPU time [min]: 24014.214                   Wall time [min]:  3951.217
 
 Iteration 17  CC energy:   -14.95695636  Energy decrease:   3.7268E-12
 ======================================================================
 Norm of residual vector:     4.0030E-10
 CPU time [min]: 25375.254                   Wall time [min]:  4131.360
 
 Iteration 18  CC energy:   -14.95695636  Energy decrease:   2.9488E-13
 ======================================================================
 Norm of residual vector:     1.2283E-10
 CPU time [min]: 26707.313                   Wall time [min]:  4314.310
 
 Iteration 19  CC energy:   -14.95695636  Energy decrease:   4.3521E-13
 ======================================================================
 Norm of residual vector:     3.6892E-11
 CPU time [min]: 28141.770                   Wall time [min]:  4496.903
 
 Iteration 20  CC energy:   -14.95695636  Energy decrease:   8.3489E-14
 ======================================================================
 Norm of residual vector:     1.2589E-11
 CPU time [min]: 29599.493                   Wall time [min]:  4683.408
 
 Iteration 21  CC energy:   -14.95695636  Energy decrease:   2.1316E-14
 ======================================================================
 Norm of residual vector:     4.6191E-12
 CPU time [min]: 31037.138                   Wall time [min]:  4869.597
 
 Iteration 22  CC energy:   -14.95695636  Energy decrease:   1.2434E-14
 ======================================================================
 Norm of residual vector:     1.6425E-12
 CPU time [min]: 32498.114                   Wall time [min]:  5054.912
 
 Iteration 23  CC energy:   -14.95695636  Energy decrease:   0.0000E+00
 ======================================================================
 Norm of residual vector:     5.6951E-13
 CPU time [min]: 33881.360                   Wall time [min]:  5236.188
 
 Iteration 24  CC energy:   -14.95695636  Energy decrease:   0.0000E+00
 ======================================================================
 Norm of residual vector:     1.8676E-13
 CPU time [min]: 35261.032                   Wall time [min]:  5422.034
 
 Iteration 25  CC energy:   -14.95695636  Energy decrease:   0.0000E+00
 ======================================================================
 Norm of residual vector:     6.0278E-14
 CPU time [min]: 36755.416                   Wall time [min]:  5608.894
 
 Iteration 26  CC energy:   -14.95695636  Energy decrease:   0.0000E+00
 ======================================================================
 Norm of residual vector:     1.9638E-14
 CPU time [min]: 38166.998                   Wall time [min]:  5792.067
 
 Iteration 27  CC energy:   -14.95695636  Energy decrease:   0.0000E+00
 ======================================================================
 Norm of residual vector:     6.0204E-15
 CPU time [min]: 39687.231                   Wall time [min]:  5980.833
 
 Iteration 28  CC energy:   -14.95695636  Energy decrease:   0.0000E+00
 ======================================================================
 Norm of residual vector:     1.9691E-15
 CPU time [min]: 41189.164                   Wall time [min]:  6170.915
 
 Iteration 29  CC energy:   -14.95695636  Energy decrease:   0.0000E+00
 ======================================================================
 Norm of residual vector:     8.8266E-16
 CPU time [min]: 42693.772                   Wall time [min]:  6352.998
 
 Iteration 30  CC energy:   -14.95695636  Energy decrease:   0.0000E+00
 ======================================================================
 
 Iteration has converged in 30 steps.
 
 Final results:
 Total CCSDT energy [au]:            -14.956956363028
 
 Perturbative corrections are calculated...
 ======================================================================
 Spin case  1   Alpha:  2   Beta:  2
 Number of excitations:        17770330316
 CPU time [min]:415082.691                   Wall time [min]: 18271.588
 ======================================================================
 Spin case  2   Alpha:  3   Beta:  1
 Number of excitations:        15707539840
 CPU time [min]:644005.258                   Wall time [min]: 25598.663
 ======================================================================
 Spin case  3   Alpha:  4   Beta:  0
 Number of excitations:        486274446
 CPU time [min]:670459.134                   Wall time [min]: 26494.973
 ======================================================================
 Number of 4-fold excitations: 33964144602
 
 T_2^+ contribution:              -0.000000176953
 T_3^+ contribution:              -0.000000649928
 T_1^+ * T_2^+ contribution:       0.000000060187
 T_1^+ * <ab||ij> contribution:    0.000000049103
 T_2^+ * f_ai contribution:        0.000000001412
 
 CPU time [min]:670470.848                   Wall time [min]: 26496.881
 
 Total CCSDT[Q] energy [au]:         -14.956956539981
 Total CCSDT(Q)/A energy [au]:       -14.956957129722
 Total CCSDT(Q)/B energy [au]:       -14.956957139395
 
 ************************ 2018-02-10 23:41:55 *************************
                      Normal termination of mrcc.
 **********************************************************************
--executable dmrcc finished with status     0 in  1802073.00 seconds (walltime).
  The final electronic energy is       -14.956957139394570 a.u. 
  This computation required                      1822347.96 seconds (walltime).
