 --invoking executable--
/project1/nike/cfour_v2.00beta_May2019xnmol_noLABBASIS/bin/xjoda


   *************************************************************************
         <<<     CCCCCC     CCCCCC   |||     CCCCCC     CCCCCC   >>>
       <<<      CCC        CCC       |||    CCC        CCC         >>>
      <<<      CCC        CCC        |||   CCC        CCC            >>>
    <<<        CCC        CCC        |||   CCC        CCC              >>>
      <<<      CCC        CCC        |||   CCC        CCC            >>>
       <<<      CCC        CCC       |||    CCC        CCC         >>>
         <<<     CCCCCC     CCCCCC   |||     CCCCCC     CCCCCC   >>>
   *************************************************************************

     ****************************************************************
     * CFOUR Coupled-Cluster techniques for Computational Chemistry *
     ****************************************************************
 

   Department of Chemistry                Institut fuer Physikalische Chemie
   University of Texas at Austin          Universitaet Mainz
   Austin, TX  78712, USA                 D-55099 Mainz, Germany
 
                       Version 2.00beta
 
                     req266                                            
                     Mon Mar  9 16:04:14 EDT 2020                      
                     integer*8 version is running
 
********************************************************************************
*                          Input from ZMAT file                                *
********************************************************************************
TITLE                                                                           
N  0.0000  0.7230 -0.1123                                                       
N  0.0000 -0.7230 -0.1123                                                       
H -0.4470  1.0031  0.7562                                                       
H  0.4470 -1.0031  0.7562                                                       
H  0.9663  1.0031  0.0301                                                       
H -0.9663 -1.0031  0.0301                                                       
                                                                                
*ACES2(CALC=CCSD(T)                                                             
#UNITS=BOHR                                                                     
#GEOM=2.6729874*10/5.29177210903_Pentasilane_def2-QZVP_pbe                      
COORD=CARTESIAN                                                                 
#COORD=INTERNAL                                                                 
PRINT=4                                                                         
JODA_PRINT=4                                                                    
INPUT_MRCC=OFF                                                                  
#CC_PROG=MRCC                                                                   
#FROZEN_CORE=ON                                                                 
DROPMO=1>2                                                                      
CONTRACTION=GENERAL                                                             
#CONTRACTION=SEGMENTED                                                          
RELATIVISTIC=OFF                                                                
#EXCITE=EOMEE                                                                   
#ESTATE_CONV=5                                                                  
#ESTATE_SYM=2/2/2/2/2/2/2/2                                                     
XFORM_TOL=18                                                                    
SAVE_INTS=ON                                                                    
SCF_EXPORDER=6                                                                  
SCF_EXPSTART=5                                                                  
#SCF_DAMPING=1000                                                               
SCF_EXTRAPOLATION=ON                                                            
SCF_CONV=12                                                                     
SCF_MAXCYC=99999                                                                
CC_CONV=9                                                                       
CC_MAXCYC=999                                                                   
T3_EXTRAPOL=ON                                                                  
REFERENCE=ROHF                                                                  
#SYMMETRY=OFF                                                                   
#HFSTABILITY=FOLLOW                                                             
CHARGE=+1                                                                       
MULT=2                                                                          
ABCDTYPE=STANDARD                                                               
#OCCUPATION=3-2-2-0-1-0-0-0/3-1-1-0-1-0-0-0                                     
MEM=4                                                                           
MEM_UNIT=GB                                                                     
BASIS=SPECIAL)                                                                  
                                                                                
N:def2-TZVPP                                                                    
N:def2-TZVPP                                                                    
H:def2-TZVPP                                                                    
H:def2-TZVPP                                                                    
H:def2-TZVPP                                                                    
H:def2-TZVPP                                                                    
                                                                                
********************************************************************************
  @GTFLGS-W, Keyword #UNITS not known and is ignored.
  @GTFLGS-W, Keyword #GEOM not known and is ignored.
  @GTFLGS-W, Keyword #COORD not known and is ignored.
  @GTFLGS-W, Keyword #CC_PROG not known and is ignored.
  @GTFLGS-W, Keyword #FROZEN_CORE not known and is ignored.
  @GTFLGS-W, Keyword #CONTRACTION not known and is ignored.
  @GTFLGS-W, Keyword #EXCITE not known and is ignored.
  @GTFLGS-W, Keyword #ESTATE_CONV not known and is ignored.
  @GTFLGS-W, Keyword #ESTATE_SYM not known and is ignored.
  @GTFLGS-W, Keyword #SCF_DAMPING not known and is ignored.
  @GTFLGS-W, Keyword #SYMMETRY not known and is ignored.
  @GTFLGS-W, Keyword #HFSTABILITY not known and is ignored.
  @GTFLGS-W, Keyword #OCCUPATION not known and is ignored.
    -------------------------------------------------------------------
                    CFOUR Control Parameters 
    -------------------------------------------------------------------
        External           Internal           Value            Units
          Name               Name
    -------------------------------------------------------------------
       ABCDTYPE             IABCDT         STANDARD     [  0]   ***   
       ANHARMONIC           IANHAR         OFF          [  0]   ***   
       ANH_ALGORIT          IANALG         STANDARD     [  0]   ***   
       ANH_DERIVAT          IANDER         SECOND       [  1]   ***   
       ANH_STEPSIZ          ICUBST             50000          x 10-6  
       ANH_SYMMETR          IANHSM         ABELIAN      [  0]   ***   
       AO_LADDERS           IAOLAD         SINGLEPASS   [  1]   ***   
       BASIS                IBASIS         SPECIAL      [  0]   ***   
       BREIT                IBREIT         OFF          [  0]   ***   
       BRUCK_CONV           IBRTOL          10D-  4             ***   
       BRUECKNER            IBRKNR             OFF      [  0]   ***   
       BUFFERSIZE           IBUFFS            600               ***   
       CACHE_RECS           ICHREC             10               ***   
       CALCLEVEL            ICLLVL           CCSD(T)    [ 22]   ***   
       CCORBOPT             ICCORB             OFF      [  0] x 0.01  
       CC_CONV              ICCCNV          10D-  9             ***   
       CC_EXPORDER          ICCEOR              5               ***   
       CC_EXTRAPOL          ICCEXT             DIIS     [  1]   ***   
       CC_MAXCYC            ICCCYC            999              cycles 
       CC_PROGRAM           ICCPRO         VCC          [  0]   ***   
       CHARGE               ICHRGE              1               ***   
       CHOLESKY             ICHOLE         OFF          [  0]   ***   
       CIS_CONV             ICISTL              5               ***   
       COMM_SIZE            IPSIZE            ***               ***   
       CONSTANT             ICONST         OLD          [  1]   ***   
       CONTINUUM            ICONTU         NONE         [  0]   ***   
       CONTRACTION          ICNTYP          GENERAL     [  1]   ***   
       COORDINATES          ICOORD         CARTESIAN    [  1]   ***   
       CPHF_CONVER          ICPHFT          10D- 16             ***   
       CPHF_MAXCYC          ICPHFC             64              cycles 
       CUBIC                ICUBIC         OFF          [  0]   ***   
       CURVILINEAR          ICURVY            OFF       [  0]   ***   
       DBOC                 IDBOC          OFF          [  0]   ***   
       DCT                  IDCT           OFF          [  0]   ***   
       DERIV_LEV            IDRLVL            ZERO      [  0]   ***   
       DIAG_MRCC            IEOMST          10D-  0             ***   
       DIFF_TYPE            IDIFTY         RELAXED      [  0]   ***   
       DIRECT               IDIRCT         OFF          [  0]   ***   
       DROPMO               IDRPMO A   1,  2,
                                   B   1,  2,
       ECP                  IECP           OFF          [  0]   ***   
       EIGENVECTOR          IVEC                1               ***   
       EL_ANHARM            IELANH         OFF          [  0]   ***   
       EOMFOLLOW            IEOMSR         ENERGY       [  0]   ***   
       EOM_MRCC             IMRCCE         NEW          [  1]   ***   
       EOM_NONIT            EOMNON         OFF          [  0]   ***   
       EOM_NSING            IEOMSI          10D-  0             ***   
       EOM_NSTATES          IMRCCD         DAVIDSON     [  0]   ***   
       EOM_NTRIP            IEOMTR          10D-  0             ***   
       EOM_ORDER            IEXORD         ENERGY       [  0]   ***   
       ESTATE_CONV          IEXTOL          10D-  5             ***   
       ESTATE_DIAG          IEXDIG         ITERATIVE    [  0]   ***   
       ESTATE_LOCK          IESLOC         ON           [  1]   ***   
       ESTATE_MAXC          IEXMXC             20               ***   
       ESTATE_PROP          IEXPRP         OFF          [  0]   ***   
       EVAL_HESS            IRECAL              0            # of cyc.
       EXCITATION           IEXCIT              0               ***   
       EXCITE               IEXCIT         NONE         [  0]   ***   
       FCGRADNEW            IFCGNW         OFF          [  0]   ***   
       FC_FIELD             IFINFC              0             x 10-6  
       FD_CALTYPE           IFDCAL         GRADONLY     [  0]   ***   
       FD_PROJECT           IFDPRJ         OFF          [  1]   ***   
       FD_STEPSIZE          IDISFD              0            10-4 bohr
       FD_USEGROUP          IFDGRP         FULL         [  0]   ***   
       FILE_RECSIZ          IFLREC              4096           words  
       FINITE_PERT          IFIPER              0             x 10-6  
       FIXGEOM              IFIXGM         OFF          [  0]   ***   
       FOCK                 IFOCK          AO           [  1]   ***   
       FREQ_ALGORI          IVIALG         STANDARD     [  0]   ***   
       FROZEN_CORE          IFROCO         OFF          [  0]   ***   
       FROZEN_VIRT          IFROVI         OFF          [  0]   ***   
       GAMMA_ABCD           IGABCD         STORE        [  0]   ***   
       GAMMA_ABCI           IGABCI         STORE        [  0]   ***   
       GENBAS_1             IGNBS1              0               ***   
       GENBAS_2             IGNBS2              0               ***   
       GENBAS_3             IGNBS3              0               ***   
       GENBAS_4             IGNBS4              0               ***   
       GEO_CONV             ICONTL              5              H/bohr 
       GEO_MAXCYC           IOPTCY             50               ***   
       GEO_MAXSTEP          IMXSTP            300            millibohr
       GEO_METHOD           INR            SINGLE_POINT [  5]   ***   
       GIAO                 IGIAO          OFF          [  1]   ***   
       GIMIC                IGIMIC         OFF          [  0]   ***   
       GRID                 IGRID          OFF          [  0]   ***   
       GRID_ALGO            IGALGO         SERIAL       [  0]   ***   
       GUESS                IGUESS            MOREAD    [  0]   ***   
       HBAR                 IHBAR              OFF      [  0]   ***   
       HESS_TYPE            IHESTP         SCF          [  0]   ***   
       HF2_FILE             IHF2Fl         USE          [  1]   ***   
       HFSTABILITY          ISTABL         OFF          [  0]   ***   
       INCORE               INCORE             OFF      [  0]   ***   
       INPUT_MRCC           IMRCC          OFF          [  0]   ***   
       INTEGRALS            INTTYP             VMOL     [  1]   ***   
       JODA_PRINT           IJPRNT              4               ***   
       LINDEP_TOL           ILINDP              8               ***   
       LINEQ_CONV           IZTACN          10D-  7           cycles  
       LINEQ_EXPOR          ILMAXD              5               ***   
       LINEQ_MAXCY          ILMAXC             50               ***   
       LINEQ_TYPE           ILTYPE         DIIS         [  1]   ***   
       LOCK_ORBOCC          ILOCOC             OFF      [  0]   ***   
       MEMORY_SIZE          IMEMSZ         500000000           words  
       MEM_UNIT             IMEMU          GB           [  3]   ***   
       MRCC                 IMRCCC         OFF          [  0]   ***   
       MULTIPLICTY          IMULTP              2               ***   
       NEGEVAL              IDIE             ABORT      [  0]   ***   
       NEWNORM              INEWNO         OFF          [  0]   ***   
       NON-HF               INONHF              ON      [  1]   ***   
       NTOP_TAMP            ITOPT2             15               ***   
       NUC_MODEL            INUCMO         POINT        [  0]   ***   
       OCCUPATION           IOCCU   ESTIMATED BY SCF 
       OPEN-SHELL           IOPEN          SPIN-ORBITAL [  0]   ***   
       ORBITALS             IORBTP         SEMICANONICAL[  1]   ***   
       PARALLEL             IPARAL         ON           [  1]   ***   
       PARA_INT             IPINTS         ON           [  1]   ***   
       PARA_PRINT           IPPRIN              0               ***   
       PERT_ORB             IPTORB         STANDARD     [  0]   ***   
       POINTS               IGRDFD              0               ***   
       PRINT                IPRNT               4               ***   
       PROPS                IPROPS             OFF      [  0]   ***   
       PROP_INTEGR          IINTYP         INTERNAL     [  0]   ***   
       PSI                  IPSI           OFF          [  0]   ***   
       QUARTIC              IQUART         OFF          [  0]   ***   
       RAMAN_INT            IRAMIN         OFF          [  0]   ***   
       RAMAN_ORB            IRAMRE         UNRELAXED    [  0]   ***   
       RDO                  IRDOFM             OFF      [  0]   ***   
       REFERENCE            IREFNC             ROHF     [  2]   ***   
       RELATIVIST           IRELAT         OFF          [  0]   ***   
       RELAX_DENS           IRDENS             OFF      [  0]   ***   
       RESET_FLAGS          IRESET             OFF      [  0]   ***   
       RESTART_CC           ICCRES         OFF          [  0]   ***   
       ROT_EVEC             ROTVEC              0               ***   
       SAVE_INTS            ISVINT              ON      [  1]   ***   
       SCALE_ON             ISTCRT              0               ***   
       SCF_CONV             ISCFCV          10D- 12             ***   
       SCF_DAMPING          IDAMP               0             x 10-3  
       SCF_EXPORDE          IRPPOR              6               ***   
       SCF_EXPSTAR          IRPPLS              5               ***   
       SCF_EXTRAPO          IRPP                ON      [  1]   ***   
       SCF_MAXCYC           ISCFCY            ***              cycles 
       SCF_NOSTOP           ISCFST         OFF          [  0]   ***   
       SCF_PRINT            ISCFPR              0               ***   
       SD_FIELD             IFINSD              0             x 10-6  
       SEQUENCE             ISEQUE         OFF          [  0]   ***   
       SOPERT               IPERSO         OFF          [  0]   ***   
       SPHERICAL            IDFGHI             ON       [  1]   ***   
       SPINORBIT            ISOCAL         OFF          [  0]   ***   
       SPINROTATIO          ISRCON         OFF          [  0]   ***   
       SPIN_FLIP            ISPFLP         OFF          [  0]   ***   
       SPIN_ORBIT           ISPORB         OFF          [  0]   ***   
       SPIN_SCAL            ISCSMP         OFF          [  0]   ***   
       SUBGROUP             ISUBGP         DEFAULT      [  0]   ***   
       SUBGRPAXIS           ISBXYZ         X            [  0]   ***   
       SYMMETRY             ISYM             ON         [  0]   ***   
       SYM_CHECK            ISYMCK         OVERRIDE     [  1]   ***   
       T3_EXTRAPOL          IT3EXT         ON           [  1]   ***   
       TAMP_SUM             IEVERY              5               ***   
       TESTSUITE            ITESTS         OFF          [  0]   ***   
       THERMOCH             ITHERM         OFF          [  0]   ***   
       TOL_CHOLESK          ITOLCH          10D-  4             ***   
       TRANGRAD             IRESRM         OFF          [  0]   ***   
       TRANS_INV            ITRAIN         USE          [  0]   ***   
       TREAT_PERT           ITREAT         SIMULTANEOUS [  0]   ***   
       UIJ_THRESHO          IUIJTH              1               ***   
       UNITS                IUNITS         ANGSTROM     [  0]   ***   
       UNOS                 IUNOS          OFF          [  0]   ***   
       UPDATE_HESS          IHUPDT         ON           [  1]   ***   
       VIBPHASE             ISETPH         STANDARD     [  0]   ***   
       VIBRATION            IVIB              NO        [  0]   ***   
       VIB_ALGORIT          IGEALG         STANDARD     [  0]   ***   
       VNATORB              IVNORB         OFF          [  0]   ***   
       VTRAN                IVTRAN         FULL/PARTIAL [  0]   ***   
       XFIELD               IXEFLD              0             x 10-6  
       XFORM_TOL            IXFTOL          10D- 18             ***   
       YFIELD               IYEFLD              0             x 10-6  
       ZFIELD               IZEFLD              0             x 10-6  
    -------------------------------------------------------------------
  @GETXYZ-I,     6 atoms read from ZMAT.
  1  N          7    14.00307
  2  N          7    14.00307
  3  H          1     1.00783
  4  H          1     1.00783
  5  H          1     1.00783
  6  H          1     1.00783
  1  N          7    14.00307
  2  N          7    14.00307
  3  H          1     1.00783
  4  H          1     1.00783
  5  H          1     1.00783
  6  H          1     1.00783
   14.0030740020
   14.0030740020
    1.0078250350
    1.0078250350
    1.0078250350
    1.0078250350
 After translation to center of mass coordinates 
        0.000000000000    1.366272274443   -0.120188904402
        0.000000000000   -1.366272274443   -0.120188904402
       -0.844707754738    1.895584672882    1.521038578798
        0.844707754738   -1.895584672882    1.521038578798
        1.826042736921    1.895584672882    0.148908152141
       -1.826042736921   -1.895584672882    0.148908152141
  Inertia tensor (amu*bohr**2)
   71.87709   -3.74952    0.00000
   -3.74952   13.27186    0.00000
    0.00000    0.00000   74.92379
    Inertia tensor:
       71.877086030764   -3.749519418167    0.000000000000
       -3.749519418167   13.271855052593    0.000000000000
        0.000000000000    0.000000000000   74.923785867085
    Principal axis orientation for molecular system: 
        1.363507040494   -0.086881979921   -0.120188904402
       -1.363507040494    0.086881979921   -0.120188904402
        1.838032734847   -0.963539365366    1.521038578798
       -1.838032734847    0.963539365366    1.521038578798
        2.007867177756    1.701805724993    0.148908152141
       -2.007867177756   -1.701805724993    0.148908152141
    Diagonalized inertia tensor:
       13.032937569126    0.000000000000    0.000000000000
        0.000000000000   72.116003514231    0.000000000000
        0.000000000000    0.000000000000   74.923785867085
    Eigenvectors of inertia tensor: 
        0.063590531365    0.997976074022    0.000000000000
        0.997976074022   -0.063590531365    0.000000000000
        0.000000000000    0.000000000000    1.000000000000
 factor:   60.1997200000000     
   Rotational constants (in cm-1): 
          0.8034794198             0.8347622867             4.6190446076
   Rotational constants (in MHz): 
      24087.7103969576         25025.5472830501        138475.4930527146
  @SYMMETRY-I, Handedness of inertial frame:-1.00000
  @SYMMETRY-I, Sense of inertial frame y-axis will be changed.
  @SYMMETRY-I, The symmetry group is 1-fold degenerate.
  @SYMMETRY-I, The molecule belongs to an Abelian group.
   Principal axis orientation for molecule:
        1.363507040494    0.086881979921   -0.120188904402
       -1.363507040494   -0.086881979921   -0.120188904402
        1.838032734847    0.963539365366    1.521038578798
       -1.838032734847   -0.963539365366    1.521038578798
        2.007867177756   -1.701805724993    0.148908152141
       -2.007867177756    1.701805724993    0.148908152141
   Rotation about  3 is a valid symmetry operation 
  Symmetry bits:    0   4   0
********************************************************************************
   The full molecular point group is C2  .
   The largest Abelian subgroup of the full molecular point group is C2  .
   The computational point group is C2  .
********************************************************************************
 ----------------------------------------------------------------
 Z-matrix   Atomic            Coordinates (in bohr)
  Symbol    Number           X              Y              Z
 ----------------------------------------------------------------
     N         7         1.36350704     0.08688198    -0.12018890
     N         7        -1.36350704    -0.08688198    -0.12018890
     H         1         1.83803273     0.96353937     1.52103858
     H         1        -1.83803273    -0.96353937     1.52103858
     H         1         2.00786718    -1.70180572     0.14890815
     H         1        -2.00786718     1.70180572     0.14890815
 ----------------------------------------------------------------
   Interatomic distance matrix (Angstroms) 
 
                 N             N             H             H             H    
                [ 1]        [ 2]        [ 3]        [ 4]        [ 5]
  N    [ 1]     0.00000
  N    [ 2]     1.44600     0.00000
  H    [ 3]     1.01615     1.98331     0.00000
  H    [ 4]     1.98331     1.01615     2.19638     0.00000
  H    [ 5]     1.01611     1.98329     1.58891     2.19584     0.00000
  H    [ 6]     1.98329     1.01611     2.19584     1.58891     2.78564
 
                 H    
                [ 6]
  H    [ 6]     0.00000
  Inertia tensor (amu*bohr**2)
   13.03294    0.00000    0.00000
    0.00000   72.11600    0.00000
    0.00000    0.00000   74.92379
   Rotational constants (in cm-1): 
          4.6190446076             0.8347622867             0.8034794198
   Rotational constants (in MHz): 
     138475.4930527146         25025.5472830501         24087.7103969576
  @GTFLGS-W, Keyword #UNITS not known and is ignored.
  @GTFLGS-W, Keyword #GEOM not known and is ignored.
  @GTFLGS-W, Keyword #COORD not known and is ignored.
  @GTFLGS-W, Keyword #CC_PROG not known and is ignored.
  @GTFLGS-W, Keyword #FROZEN_CORE not known and is ignored.
  @GTFLGS-W, Keyword #CONTRACTION not known and is ignored.
  @GTFLGS-W, Keyword #EXCITE not known and is ignored.
  @GTFLGS-W, Keyword #ESTATE_CONV not known and is ignored.
  @GTFLGS-W, Keyword #ESTATE_SYM not known and is ignored.
  @GTFLGS-W, Keyword #SCF_DAMPING not known and is ignored.
  @GTFLGS-W, Keyword #SYMMETRY not known and is ignored.
  @GTFLGS-W, Keyword #HFSTABILITY not known and is ignored.
  @GTFLGS-W, Keyword #OCCUPATION not known and is ignored.
  There are  118 basis functions.
 @GEOPT-W, Archive file not created for single-point calculation.
  @CHECKOUT-I, Total execution time (CPU/WALL):        0.49/       1.04 seconds.
--executable xjoda finished with status     0 in        1.17 seconds (walltime).
 --invoking executable--
/project1/nike/cfour_v2.00beta_May2019xnmol_noLABBASIS/bin/xvmol
Running with 1 threads/proc

********************************************************************************
                   INPUT FROM MOL FILE                                          
********************************************************************************
INTGRL        1    0    1    0    0    0    0    0    0
         *** CFOUR Program System (Release V0.1) *** 
TITLE
    3    1 XY         0.10E-08              0    0
   9999.00      3.00
          7.00000000    1    4    1    1    1    1
N #1   1.363507040493668   0.086881979921438  -0.120188904401760
   11    5
   19730.8006470000       2.188798499100000E-004  0.000000000000000E+000
  0.000000000000000E+000  0.000000000000000E+000  0.000000000000000E+000
   2957.89587450000       1.696070880300000E-003  0.000000000000000E+000
  0.000000000000000E+000  0.000000000000000E+000  0.000000000000000E+000
   673.221335950000       8.795460353799999E-003  0.000000000000000E+000
  0.000000000000000E+000  0.000000000000000E+000  0.000000000000000E+000
   190.682494940000       3.535938260500000E-002  0.000000000000000E+000
  0.000000000000000E+000  0.000000000000000E+000  0.000000000000000E+000
   62.2954418980000       0.110957892170000       0.000000000000000E+000
  0.000000000000000E+000  0.000000000000000E+000  0.000000000000000E+000
   22.6541611820000       0.249829725520000       0.000000000000000E+000
  0.000000000000000E+000  0.000000000000000E+000  0.000000000000000E+000
   8.97914774280000       0.000000000000000E+000  0.406238961480000     
  0.000000000000000E+000  0.000000000000000E+000  0.000000000000000E+000
   3.68630023700000       0.000000000000000E+000  0.243382171760000     
  0.000000000000000E+000  0.000000000000000E+000  0.000000000000000E+000
  0.846600768050000       0.000000000000000E+000  0.000000000000000E+000
   1.00000000000000       0.000000000000000E+000  0.000000000000000E+000
  0.336471337710000       0.000000000000000E+000  0.000000000000000E+000
  0.000000000000000E+000   1.00000000000000       0.000000000000000E+000
  0.136476536750000       0.000000000000000E+000  0.000000000000000E+000
  0.000000000000000E+000  0.000000000000000E+000   1.00000000000000     
    6    3
   49.2003805100000       5.555241675100000E-003  0.000000000000000E+000
  0.000000000000000E+000
   11.3467905370000       3.805237972300000E-002  0.000000000000000E+000
  0.000000000000000E+000
   3.42739724110000       0.149536710290000       0.000000000000000E+000
  0.000000000000000E+000
   1.17855251340000       0.349493052300000       0.000000000000000E+000
  0.000000000000000E+000
  0.416422049720000       0.000000000000000E+000  0.458431536970000     
  0.000000000000000E+000
  0.142608260110000       0.000000000000000E+000  0.000000000000000E+000
  0.244287716720000     
    2    2
   1.65400000000000        1.00000000000000       0.000000000000000E+000
  0.469000000000000       0.000000000000000E+000   1.00000000000000     
    1    1
   1.09300000000000        1.00000000000000     
          1.00000000    1    3    1    1    1
H #2   1.838032734846910   0.963539365366340   1.521038578798099
    5    3
   34.0613410000000       6.025197800000000E-003  0.000000000000000E+000
  0.000000000000000E+000
   5.12357460000000       4.502109400000000E-002  0.000000000000000E+000
  0.000000000000000E+000
   1.16466260000000       0.201897260000000       0.000000000000000E+000
  0.000000000000000E+000
  0.327230410000000       0.000000000000000E+000   1.00000000000000     
  0.000000000000000E+000
  0.103072410000000       0.000000000000000E+000  0.000000000000000E+000
   1.00000000000000     
    2    2
   1.40700000000000        1.00000000000000       0.000000000000000E+000
  0.388000000000000       0.000000000000000E+000   1.00000000000000     
    1    1
   1.05700000000000        1.00000000000000     
          1.00000000    1    3    1    1    1
H #3   2.007867177755579  -1.701805724992860   0.148908152141314
    5    3
   34.0613410000000       6.025197800000000E-003  0.000000000000000E+000
  0.000000000000000E+000
   5.12357460000000       4.502109400000000E-002  0.000000000000000E+000
  0.000000000000000E+000
   1.16466260000000       0.201897260000000       0.000000000000000E+000
  0.000000000000000E+000
  0.327230410000000       0.000000000000000E+000   1.00000000000000     
  0.000000000000000E+000
  0.103072410000000       0.000000000000000E+000  0.000000000000000E+000
   1.00000000000000     
    2    2
   1.40700000000000        1.00000000000000       0.000000000000000E+000
  0.388000000000000       0.000000000000000E+000   1.00000000000000     
    1    1
   1.05700000000000        1.00000000000000     
FINISH
                                                                                
********************************************************************************

ONE- AND TWO-ELECTRON INTEGRALS OVER SYMMETRY-ADAPTED AOS ARE CALCULATED.


    BASIS FUNCTION NOT NORMALIZED:
    CENTER (AS ORDERED IN MOL FILE): ?
    ANGULAR MOMENTUM TYPE:           S
    OFFSET WITHIN ANGULAR MOMENTUM:  1
    <CHI|CHI>:                       0.1393878990

    BASIS FUNCTION NOT NORMALIZED:
    CENTER (AS ORDERED IN MOL FILE): ?
    ANGULAR MOMENTUM TYPE:           S
    OFFSET WITHIN ANGULAR MOMENTUM:  2
    <CHI|CHI>:                       0.3954965528

    BASIS FUNCTION NOT NORMALIZED:
    CENTER (AS ORDERED IN MOL FILE): ?
    ANGULAR MOMENTUM TYPE:           P
    OFFSET WITHIN ANGULAR MOMENTUM:  1
    <CHI|CHI>:                       0.2354420728

    BASIS FUNCTION NOT NORMALIZED:
    CENTER (AS ORDERED IN MOL FILE): ?
    ANGULAR MOMENTUM TYPE:           P
    OFFSET WITHIN ANGULAR MOMENTUM:  2
    <CHI|CHI>:                       0.2101594741

    BASIS FUNCTION NOT NORMALIZED:
    CENTER (AS ORDERED IN MOL FILE): ?
    ANGULAR MOMENTUM TYPE:           P
    OFFSET WITHIN ANGULAR MOMENTUM:  3
    <CHI|CHI>:                       0.0596764885

    BASIS FUNCTION NOT NORMALIZED:
    CENTER (AS ORDERED IN MOL FILE): ?
    ANGULAR MOMENTUM TYPE:           S
    OFFSET WITHIN ANGULAR MOMENTUM:  1
    <CHI|CHI>:                       0.0560960211

    BASIS FUNCTION NOT NORMALIZED:
    CENTER (AS ORDERED IN MOL FILE): ?
    ANGULAR MOMENTUM TYPE:           S
    OFFSET WITHIN ANGULAR MOMENTUM:  1
    <CHI|CHI>:                       0.0560960211
CARTESIAN GAUSSIANS ARE USED.

3 TYPES OF ATOMS
1 SYMMETRY OPERATIONS

ROTATION ABOUT THE Z-AXIS

INTEGRALS LESS THAN 1e-14 ARE NEGLECTED.

ATOMIC TYPE NUMBER 1:
---------------------

    NUCLEAR CHARGE:                       7
    NUMBER OF SYMMETRY INDEPENDENT ATOMS: 1
    HIGHEST ORBITAL TYPE:                 F

    1 GROUPS OF CGTOS OF S TYPE
    1 GROUPS OF CGTOS OF P TYPE
    1 GROUPS OF CGTOS OF D TYPE
    1 GROUPS OF CGTOS OF F TYPE

    NUCLEAR COORDINATES (IN A.U.) ARE:

    N #1   1.363507040493668   0.086881979921438  -0.120188904401760

ATOMIC TYPE NUMBER 2:
---------------------

    NUCLEAR CHARGE:                       1
    NUMBER OF SYMMETRY INDEPENDENT ATOMS: 1
    HIGHEST ORBITAL TYPE:                 D

    1 GROUPS OF CGTOS OF S TYPE
    1 GROUPS OF CGTOS OF P TYPE
    1 GROUPS OF CGTOS OF D TYPE

    NUCLEAR COORDINATES (IN A.U.) ARE:

    H #2   1.838032734846910   0.963539365366340   1.521038578798099

ATOMIC TYPE NUMBER 3:
---------------------

    NUCLEAR CHARGE:                       1
    NUMBER OF SYMMETRY INDEPENDENT ATOMS: 1
    HIGHEST ORBITAL TYPE:                 D

    1 GROUPS OF CGTOS OF S TYPE
    1 GROUPS OF CGTOS OF P TYPE
    1 GROUPS OF CGTOS OF D TYPE

    NUCLEAR COORDINATES (IN A.U.) ARE:

    H #3   2.007867177755579  -1.701805724992860   0.148908152141314

INTERNUCLEAR DISTANCES (A):

    FOR ATOM N #1 (COORDINATES:   1.36351   0.08688  -0.12019)

    N #1 2 DISTANCE IS   1.44600
    H #2 1 DISTANCE IS   1.01615
    H #2 2 DISTANCE IS   1.98331
    H #3 1 DISTANCE IS   1.01611
    H #3 2 DISTANCE IS   1.98329

    FOR ATOM H #2 (COORDINATES:   1.83803   0.96354   1.52104)

    H #2 2 DISTANCE IS   2.19638
    H #3 1 DISTANCE IS   1.58891
    H #3 2 DISTANCE IS   2.19584

    FOR ATOM H #3 (COORDINATES:   2.00787  -1.70181   0.14891)

    H #3 2 DISTANCE IS   2.78564

GROUP MULTIPLICATION TABLE:

    1 2
    2 1

GAUSSIAN BASIS INFORMATION:

ATOM                EXPONENT       COEFFICIENTS

N #1  1  S   
                  1   19730.800647   0.6956037   0.0000000   0.0000000   0.0000000   0.0000000
                  2    2957.895874   1.2986099   0.0000000   0.0000000   0.0000000   0.0000000
                  3     673.221336   2.2190881   0.0000000   0.0000000   0.0000000   0.0000000
                  4     190.682495   3.4636608   0.0000000   0.0000000   0.0000000   0.0000000
                  5      62.295442   4.6967556   0.0000000   0.0000000   0.0000000   0.0000000
                  6      22.654161   4.9522511   0.0000000   0.0000000   0.0000000   0.0000000
                  7       8.979148   0.0000000   2.3880678   0.0000000   0.0000000   0.0000000
                  8       3.686300   0.0000000   0.7337879   0.0000000   0.0000000   0.0000000
                  9       0.846601   0.0000000   0.0000000   0.6290267   0.0000000   0.0000000
                 10       0.336471   0.0000000   0.0000000   0.0000000   0.3148627   0.0000000
                 11       0.136477   0.0000000   0.0000000   0.0000000   0.0000000   0.1600308

N #1  2  S   
                 12   19730.800647   0.6956037   0.0000000   0.0000000   0.0000000   0.0000000
                 13    2957.895874   1.2986099   0.0000000   0.0000000   0.0000000   0.0000000
                 14     673.221336   2.2190881   0.0000000   0.0000000   0.0000000   0.0000000
                 15     190.682495   3.4636608   0.0000000   0.0000000   0.0000000   0.0000000
                 16      62.295442   4.6967556   0.0000000   0.0000000   0.0000000   0.0000000
                 17      22.654161   4.9522511   0.0000000   0.0000000   0.0000000   0.0000000
                 18       8.979148   0.0000000   2.3880678   0.0000000   0.0000000   0.0000000
                 19       3.686300   0.0000000   0.7337879   0.0000000   0.0000000   0.0000000
                 20       0.846601   0.0000000   0.0000000   0.6290267   0.0000000   0.0000000
                 21       0.336471   0.0000000   0.0000000   0.0000000   0.3148627   0.0000000
                 22       0.136477   0.0000000   0.0000000   0.0000000   0.0000000   0.1600308

N #1  1  X   
                 23      49.200381   2.1264814   0.0000000   0.0000000
                 24      11.346791   2.3279367   0.0000000   0.0000000
                 25       3.427397   2.0485729   0.0000000   0.0000000
                 26       1.178553   1.2607320   0.0000000   0.0000000
                 27       0.416422   0.0000000   0.4768230   0.0000000
                 28       0.142608   0.0000000   0.0000000   0.1249168

N #1  2  X   
                 29      49.200381   2.1264814   0.0000000   0.0000000
                 30      11.346791   2.3279367   0.0000000   0.0000000
                 31       3.427397   2.0485729   0.0000000   0.0000000
                 32       1.178553   1.2607320   0.0000000   0.0000000
                 33       0.416422   0.0000000   0.4768230   0.0000000
                 34       0.142608   0.0000000   0.0000000   0.1249168

N #1  1  Y   
                 35      49.200381   2.1264814   0.0000000   0.0000000
                 36      11.346791   2.3279367   0.0000000   0.0000000
                 37       3.427397   2.0485729   0.0000000   0.0000000
                 38       1.178553   1.2607320   0.0000000   0.0000000
                 39       0.416422   0.0000000   0.4768230   0.0000000
                 40       0.142608   0.0000000   0.0000000   0.1249168

N #1  2  Y   
                 41      49.200381   2.1264814   0.0000000   0.0000000
                 42      11.346791   2.3279367   0.0000000   0.0000000
                 43       3.427397   2.0485729   0.0000000   0.0000000
                 44       1.178553   1.2607320   0.0000000   0.0000000
                 45       0.416422   0.0000000   0.4768230   0.0000000
                 46       0.142608   0.0000000   0.0000000   0.1249168

N #1  1  Z   
                 47      49.200381   2.1264814   0.0000000   0.0000000
                 48      11.346791   2.3279367   0.0000000   0.0000000
                 49       3.427397   2.0485729   0.0000000   0.0000000
                 50       1.178553   1.2607320   0.0000000   0.0000000
                 51       0.416422   0.0000000   0.4768230   0.0000000
                 52       0.142608   0.0000000   0.0000000   0.1249168

N #1  2  Z   
                 53      49.200381   2.1264814   0.0000000   0.0000000
                 54      11.346791   2.3279367   0.0000000   0.0000000
                 55       3.427397   2.0485729   0.0000000   0.0000000
                 56       1.178553   1.2607320   0.0000000   0.0000000
                 57       0.416422   0.0000000   0.4768230   0.0000000
                 58       0.142608   0.0000000   0.0000000   0.1249168

N #1  1  XX  
                 59       1.654000   6.8771297   0.0000000
                 60       0.469000   0.0000000   0.7577441

N #1  2  XX  
                 61       1.654000   6.8771297   0.0000000
                 62       0.469000   0.0000000   0.7577441

N #1  1  XY  
                 63       1.654000   6.8771297   0.0000000
                 64       0.469000   0.0000000   0.7577441

N #1  2  XY  
                 65       1.654000   6.8771297   0.0000000
                 66       0.469000   0.0000000   0.7577441

N #1  1  XZ  
                 67       1.654000   6.8771297   0.0000000
                 68       0.469000   0.0000000   0.7577441

N #1  2  XZ  
                 69       1.654000   6.8771297   0.0000000
                 70       0.469000   0.0000000   0.7577441

N #1  1  YY  
                 71       1.654000   6.8771297   0.0000000
                 72       0.469000   0.0000000   0.7577441

N #1  2  YY  
                 73       1.654000   6.8771297   0.0000000
                 74       0.469000   0.0000000   0.7577441

N #1  1  YZ  
                 75       1.654000   6.8771297   0.0000000
                 76       0.469000   0.0000000   0.7577441

N #1  2  YZ  
                 77       1.654000   6.8771297   0.0000000
                 78       0.469000   0.0000000   0.7577441

N #1  1  ZZ  
                 79       1.654000   6.8771297   0.0000000
                 80       0.469000   0.0000000   0.7577441

N #1  2  ZZ  
                 81       1.654000   6.8771297   0.0000000
                 82       0.469000   0.0000000   0.7577441

N #1  1  F300
                 83       1.093000   6.9645882

N #1  2  F300
                 84       1.093000   6.9645882

N #1  1  F210
                 85       1.093000   6.9645882

N #1  2  F210
                 86       1.093000   6.9645882

N #1  1  F201
                 87       1.093000   6.9645882

N #1  2  F201
                 88       1.093000   6.9645882

N #1  1  F120
                 89       1.093000   6.9645882

N #1  2  F120
                 90       1.093000   6.9645882

N #1  1  F111
                 91       1.093000   6.9645882

N #1  2  F111
                 92       1.093000   6.9645882

N #1  1  F102
                 93       1.093000   6.9645882

N #1  2  F102
                 94       1.093000   6.9645882

N #1  1  F030
                 95       1.093000   6.9645882

N #1  2  F030
                 96       1.093000   6.9645882

N #1  1  F021
                 97       1.093000   6.9645882

N #1  2  F021
                 98       1.093000   6.9645882

N #1  1  F012
                 99       1.093000   6.9645882

N #1  2  F012
                100       1.093000   6.9645882

N #1  1  F003
                101       1.093000   6.9645882

N #1  2  F003
                102       1.093000   6.9645882

H #2  1  S   
                103      34.061341   0.2556299   0.0000000   0.0000000
                104       5.123575   0.4613600   0.0000000   0.0000000
                105       1.164663   0.6811215   0.0000000   0.0000000
                106       0.327230   0.0000000   0.3083545   0.0000000
                107       0.103072   0.0000000   0.0000000   0.1296483

H #2  2  S   
                108      34.061341   0.2556299   0.0000000   0.0000000
                109       5.123575   0.4613600   0.0000000   0.0000000
                110       1.164663   0.6811215   0.0000000   0.0000000
                111       0.327230   0.0000000   0.3083545   0.0000000
                112       0.103072   0.0000000   0.0000000   0.1296483

H #2  1  X   
                113       1.407000   2.1842770   0.0000000
                114       0.388000   0.0000000   0.4364955

H #2  2  X   
                115       1.407000   2.1842770   0.0000000
                116       0.388000   0.0000000   0.4364955

H #2  1  Y   
                117       1.407000   2.1842770   0.0000000
                118       0.388000   0.0000000   0.4364955

H #2  2  Y   
                119       1.407000   2.1842770   0.0000000
                120       0.388000   0.0000000   0.4364955

H #2  1  Z   
                121       1.407000   2.1842770   0.0000000
                122       0.388000   0.0000000   0.4364955

H #2  2  Z   
                123       1.407000   2.1842770   0.0000000
                124       0.388000   0.0000000   0.4364955

H #2  1  XX  
                125       1.057000   3.1412414

H #2  2  XX  
                126       1.057000   3.1412414

H #2  1  XY  
                127       1.057000   3.1412414

H #2  2  XY  
                128       1.057000   3.1412414

H #2  1  XZ  
                129       1.057000   3.1412414

H #2  2  XZ  
                130       1.057000   3.1412414

H #2  1  YY  
                131       1.057000   3.1412414

H #2  2  YY  
                132       1.057000   3.1412414

H #2  1  YZ  
                133       1.057000   3.1412414

H #2  2  YZ  
                134       1.057000   3.1412414

H #2  1  ZZ  
                135       1.057000   3.1412414

H #2  2  ZZ  
                136       1.057000   3.1412414

H #3  1  S   
                137      34.061341   0.2556299   0.0000000   0.0000000
                138       5.123575   0.4613600   0.0000000   0.0000000
                139       1.164663   0.6811215   0.0000000   0.0000000
                140       0.327230   0.0000000   0.3083545   0.0000000
                141       0.103072   0.0000000   0.0000000   0.1296483

H #3  2  S   
                142      34.061341   0.2556299   0.0000000   0.0000000
                143       5.123575   0.4613600   0.0000000   0.0000000
                144       1.164663   0.6811215   0.0000000   0.0000000
                145       0.327230   0.0000000   0.3083545   0.0000000
                146       0.103072   0.0000000   0.0000000   0.1296483

H #3  1  X   
                147       1.407000   2.1842770   0.0000000
                148       0.388000   0.0000000   0.4364955

H #3  2  X   
                149       1.407000   2.1842770   0.0000000
                150       0.388000   0.0000000   0.4364955

H #3  1  Y   
                151       1.407000   2.1842770   0.0000000
                152       0.388000   0.0000000   0.4364955

H #3  2  Y   
                153       1.407000   2.1842770   0.0000000
                154       0.388000   0.0000000   0.4364955

H #3  1  Z   
                155       1.407000   2.1842770   0.0000000
                156       0.388000   0.0000000   0.4364955

H #3  2  Z   
                157       1.407000   2.1842770   0.0000000
                158       0.388000   0.0000000   0.4364955

H #3  1  XX  
                159       1.057000   3.1412414

H #3  2  XX  
                160       1.057000   3.1412414

H #3  1  XY  
                161       1.057000   3.1412414

H #3  2  XY  
                162       1.057000   3.1412414

H #3  1  XZ  
                163       1.057000   3.1412414

H #3  2  XZ  
                164       1.057000   3.1412414

H #3  1  YY  
                165       1.057000   3.1412414

H #3  2  YY  
                166       1.057000   3.1412414

H #3  1  YZ  
                167       1.057000   3.1412414

H #3  2  YZ  
                168       1.057000   3.1412414

H #3  1  ZZ  
                169       1.057000   3.1412414

H #3  2  ZZ  
                170       1.057000   3.1412414

SYMMETRY TRANSFORMATION INTO 118 SYMMETRY-ADAPTED BASIS FUNCTIONS

    IRREDUCIBLE REPRESENTATION NUMBER 1

    1    1 N #1 S      1   1.0   2   1.0
    2    2 N #1 S      3   1.0   4   1.0
    3    3 N #1 S      5   1.0   6   1.0
    4    4 N #1 S      7   1.0   8   1.0
    5    5 N #1 S      9   1.0  10   1.0
    6    6 N #1 X     11   1.0  12  -1.0
    7    7 N #1 X     13   1.0  14  -1.0
    8    8 N #1 X     15   1.0  16  -1.0
    9    9 N #1 Y     17   1.0  18  -1.0
   10   10 N #1 Y     19   1.0  20  -1.0
   11   11 N #1 Y     21   1.0  22  -1.0
   12   12 N #1 Z     23   1.0  24   1.0
   13   13 N #1 Z     25   1.0  26   1.0
   14   14 N #1 Z     27   1.0  28   1.0
   15   15 N #1 XX    29  -1.0  30  -1.0  41  -1.0  42  -1.0  49   2.0  50   2.0
   16   16 N #1 XX    31  -1.0  32  -1.0  43  -1.0  44  -1.0  51   2.0  52   2.0
   17   17 N #1 XY    33   1.0  34   1.0
   18   18 N #1 XY    35   1.0  36   1.0
   19   19 N #1 XZ    37   1.0  38  -1.0
   20   20 N #1 XZ    39   1.0  40  -1.0
   21   21 N #1 YY    29   1.0  30   1.0  41  -1.0  42  -1.0
   22   22 N #1 YY    31   1.0  32   1.0  43  -1.0  44  -1.0
   23   23 N #1 YZ    45   1.0  46  -1.0
   24   24 N #1 YZ    47   1.0  48  -1.0
   25   25 N #1 ZZ    53  -1.0  54   1.0  59  -1.0  60   1.0  63   4.0  64  -4.0
   26   26 N #1 ZZ    55  -1.0  56   1.0  65  -1.0  66   1.0  69   4.0  70  -4.0
   27   27 N #1 F300  57  -3.0  58  -3.0  67  -3.0  68  -3.0  71   2.0  72   2.0
   28   28 N #1 F210  53   1.0  54  -1.0  59  -3.0  60   3.0
   29   29 N #1 F201  61   1.0  62   1.0
   30   30 N #1 F120  55   3.0  56  -3.0  65  -1.0  66   1.0
   31   31 N #1 F111  57   1.0  58   1.0  67  -1.0  68  -1.0
   32   32 N #1 F102  73   1.0  74   1.0
   33   33 N #1 F030  75   1.0  76   1.0
   34   34 N #1 F021  77   1.0  78   1.0
   35   35 N #1 F012  79   1.0  80  -1.0
   36   36 N #1 F003  81   1.0  82  -1.0
   37   37 H #2 S     83   1.0  84  -1.0
   38   38 H #2 S     85   1.0  86  -1.0
   39   39 H #2 S     87   1.0  88   1.0
   40   40 H #2 X     89   1.0  90   1.0
   41   41 H #2 X     91  -1.0  92  -1.0  97  -1.0  98  -1.0 101   2.0 102   2.0
   42   42 H #2 Y     93   1.0  94   1.0
   43   43 H #2 Y     95   1.0  96  -1.0
   44   44 H #2 Z     91   1.0  92   1.0  97  -1.0  98  -1.0
   45   45 H #2 Z     99   1.0 100  -1.0
   46   46 H #2 XX   103   1.0 104   1.0
   47   47 H #2 XY   105   1.0 106   1.0
   48   48 H #2 XZ   107   1.0 108   1.0
   49   49 H #2 YY   109   1.0 110  -1.0
   50   50 H #2 YZ   111   1.0 112  -1.0
   51   51 H #2 ZZ   113   1.0 114  -1.0
   52   52 H #3 S    115   1.0 116  -1.0
   53   53 H #3 S    117   1.0 118   1.0
   54   54 H #3 S    119   1.0 120   1.0
   55   55 H #3 X    121  -1.0 122  -1.0 127  -1.0 128  -1.0 131   2.0 132   2.0
   56   56 H #3 X    123   1.0 124   1.0
   57   57 H #3 Y    125   1.0 126  -1.0
   58   58 H #3 Y    121   1.0 122   1.0 127  -1.0 128  -1.0
   59   59 H #3 Z    129   1.0 130  -1.0
   60   60 H #3 Z      1   1.0   2  -1.0
   61   61 H #3 XX     3   1.0   4  -1.0
   62   62 H #3 XY     5   1.0   6  -1.0
   63   63 H #3 XZ     7   1.0   8  -1.0
   64   64 H #3 YY     9   1.0  10  -1.0
   65   65 H #3 YZ    11   1.0  12   1.0
   66   66 H #3 ZZ    13   1.0  14   1.0

    IRREDUCIBLE REPRESENTATION NUMBER 2

   67    1 N #1 S     15   1.0  16   1.0
   68    2 N #1 S     17   1.0  18   1.0
   69    3 N #1 S     19   1.0  20   1.0
   70    4 N #1 S     21   1.0  22   1.0
   71    5 N #1 S     23   1.0  24  -1.0
   72    6 N #1 X     25   1.0  26  -1.0
   73    7 N #1 X     27   1.0  28  -1.0
   74    8 N #1 X     29  -1.0  30   1.0  41  -1.0  42   1.0  49   2.0  50  -2.0
   75    9 N #1 Y     31  -1.0  32   1.0  43  -1.0  44   1.0  51   2.0  52  -2.0
   76   10 N #1 Y     33   1.0  34  -1.0
   77   11 N #1 Y     35   1.0  36  -1.0
   78   12 N #1 Z     37   1.0  38   1.0
   79   13 N #1 Z     39   1.0  40   1.0
   80   14 N #1 Z     29   1.0  30  -1.0  41  -1.0  42   1.0
   81   15 N #1 XX    31   1.0  32  -1.0  43  -1.0  44   1.0
   82   16 N #1 XX    45   1.0  46   1.0
   83   17 N #1 XY    47   1.0  48   1.0
   84   18 N #1 XY    53  -1.0  54  -1.0  59  -1.0  60  -1.0  63   4.0  64   4.0
   85   19 N #1 XZ    55  -1.0  56  -1.0  65  -1.0  66  -1.0  69   4.0  70   4.0
   86   20 N #1 XZ    57  -3.0  58   3.0  67  -3.0  68   3.0  71   2.0  72  -2.0
   87   21 N #1 YY    53   1.0  54   1.0  59  -3.0  60  -3.0
   88   22 N #1 YY    61   1.0  62  -1.0
   89   23 N #1 YZ    55   3.0  56   3.0  65  -1.0  66  -1.0
   90   24 N #1 YZ    57   1.0  58  -1.0  67  -1.0  68   1.0
   91   25 N #1 ZZ    73   1.0  74  -1.0
   92   26 N #1 ZZ    75   1.0  76  -1.0
   93   27 N #1 F300  77   1.0  78  -1.0
   94   28 N #1 F210  79   1.0  80   1.0
   95   29 N #1 F201  81   1.0  82   1.0
   96   30 N #1 F120  83   1.0  84   1.0
   97   31 N #1 F111  85   1.0  86   1.0
   98   32 N #1 F102  87   1.0  88  -1.0
   99   33 N #1 F030  89   1.0  90  -1.0
  100   34 N #1 F021  91  -1.0  92   1.0  97  -1.0  98   1.0 101   2.0 102  -2.0
  101   35 N #1 F012  93   1.0  94  -1.0
  102   36 N #1 F003  95   1.0  96   1.0
  103   37 H #2 S     91   1.0  92  -1.0  97  -1.0  98   1.0
  104   38 H #2 S     99   1.0 100   1.0
  105   39 H #2 S    103   1.0 104  -1.0
  106   40 H #2 X    105   1.0 106  -1.0
  107   41 H #2 X    107   1.0 108  -1.0
  108   42 H #2 Y    109   1.0 110   1.0
  109   43 H #2 Y    111   1.0 112   1.0
  110   44 H #2 Z    113   1.0 114   1.0
  111   45 H #2 Z    115   1.0 116   1.0
  112   46 H #2 XX   117   1.0 118  -1.0
  113   47 H #2 XY   119   1.0 120  -1.0
  114   48 H #2 XZ   121  -1.0 122   1.0 127  -1.0 128   1.0 131   2.0 132  -2.0
  115   49 H #2 YY   123   1.0 124  -1.0
  116   50 H #2 YZ   125   1.0 126   1.0
  117   51 H #2 ZZ   121   1.0 122  -1.0 127  -1.0 128   1.0
  118   52 H #3 S    129   1.0 130   1.0
  119   53 H #3 S   
  120   54 H #3 S   
  121   55 H #3 X   
  122   56 H #3 X   
  123   57 H #3 Y   
  124   58 H #3 Y   
  125   59 H #3 Z   
  126   60 H #3 Z   
  127   61 H #3 XX  
  128   62 H #3 XY  
  129   63 H #3 XZ  
  130   64 H #3 YY  
  131   65 H #3 YZ  
  132   66 H #3 ZZ  

NUCLEAR REPULSION ENERGY:   41.5636349813 A.U.

One-electron integrals took 0.067471 seconds

  @TWOEL-I,    3004150 INTEGRALS OF SYMMETRY TYPE  I I I I
  @TWOEL-I,    5814641 INTEGRALS OF SYMMETRY TYPE  I J I J
  @TWOEL-I,    3002380 INTEGRALS OF SYMMETRY TYPE  I I J J
  @TWOEL-I, TOTAL NUMBER OF 2-E INTEGRALS   11821171

Two-electron integrals took 16.101207 seconds

Nuclear repulsion energy: 41.563634981273
--executable xvmol finished with status     0 in       19.38 seconds (walltime).
 --invoking executable--
/project1/nike/cfour_v2.00beta_May2019xnmol_noLABBASIS/bin/xvmol2ja
--executable xvmol2ja finished with status     0 in        0.06 seconds (walltime).
 --invoking executable--
/project1/nike/cfour_v2.00beta_May2019xnmol_noLABBASIS/bin/xvscf
  There are  118 functions in the AO basis.

  There are 2 irreducible representations.

       Irrep        # of functions
         1                 59
         2                 59


  Parameters for SCF calculation: 
        SCF reference function: ROHF  
  Maximum number of iterations: ****
     Full symmetry point group: C2  
     Computational point group: C2  
        Initial density matrix: CORE                   
     SCF convergence tolerance: 10**(-12)
  DIIS convergence acceleration:  ON
          Latest start for DIIS:   5
                     DIIS order:   6

  Memory information:     689498 words required.
  Fock matrices are constructed from AO integral file.
 @GETMEM-I,  Allocated       5 MB of main memory.
  Initialization and symmetry analysis required      0.002 seconds.

  @INITGES-I, Occupancies from core Hamiltonian:

          Alpha population by irrep:   4    5
           Beta population by irrep:   4    4


 total no. of electrons in initial guess :  0.000000000000000E+000
 total no. of electrons in initial guess :  0.000000000000000E+000
  --------------------------------------------------------------------
  Iteration         Total Energy            Largest Density Difference
  --------------------------------------------------------------------
       0            41.563634981272635              0.0000000000D+00
   current occupation vector 
     4  5
     4  4
  processed                3004150  ao basis integrals from 
                  5007  buffers.
  processed                3002380  ao basis integrals from 
                  5004  buffers.
  processed                5814641  ao basis integrals from 
                  9692  buffers.
       1           -92.184633997184051              0.1123794951D+01
   current occupation vector 
     4  5
     4  4
  processed                3004150  ao basis integrals from 
                  5007  buffers.
  processed                3002380  ao basis integrals from 
                  5004  buffers.
  processed                5814641  ao basis integrals from 
                  9692  buffers.
       2           -96.916917080438992              0.1559538766D+02
   current occupation vector 
     5  4
     4  4
  processed                3004150  ao basis integrals from 
                  5007  buffers.
  processed                3002380  ao basis integrals from 
                  5004  buffers.
  processed                5814641  ao basis integrals from 
                  9692  buffers.
       3          -105.772921248340538              0.1571398706D+02
   current occupation vector 
     5  4
     4  4
  processed                3004150  ao basis integrals from 
                  5007  buffers.
  processed                3002380  ao basis integrals from 
                  5004  buffers.
  processed                5814641  ao basis integrals from 
                  9692  buffers.
       4          -105.297933008468789              0.5422953221D+01
   current occupation vector 
     5  4
     4  4
 
 sum over diagonal and offdiagdiagonal of C(T)*S*C for irrep
                     1
  4.850564394587309E-013  1.401008901257405E-013
 reorthoganalization of MOs is carried out
 sum over diagonal and offdiagdiagonal of C(T)*S*C for irrep
                     1
  1.730837695390619E-013 -1.618970313450584E-013
 
 sum over diagonal and offdiagdiagonal of C(T)*S*C for irrep
                     2
 -4.435340983377500E-013  4.967115982016317E-013
 reorthoganalization of MOs is carried out
 sum over diagonal and offdiagdiagonal of C(T)*S*C for irrep
                     2
  1.243449787580175E-014  1.260716612443469E-013
  processed                3004150  ao basis integrals from 
                  5007  buffers.
  processed                3002380  ao basis integrals from 
                  5004  buffers.
  processed                5814641  ao basis integrals from 
                  9692  buffers.
       5          -108.737108059050456              0.5426250013D+01
   current occupation vector 
     5  4
     4  4
  processed                3004150  ao basis integrals from 
                  5007  buffers.
  processed                3002380  ao basis integrals from 
                  5004  buffers.
  processed                5814641  ao basis integrals from 
                  9692  buffers.
       6          -110.703102361287080              0.1186279861D+00
   current occupation vector 
     5  4
     4  4
  processed                3004150  ao basis integrals from 
                  5007  buffers.
  processed                3002380  ao basis integrals from 
                  5004  buffers.
  processed                5814641  ao basis integrals from 
                  9692  buffers.
       7          -110.816002858772720              0.2822178446D-01
   current occupation vector 
     5  4
     4  4
  processed                3004150  ao basis integrals from 
                  5007  buffers.
  processed                3002380  ao basis integrals from 
                  5004  buffers.
  processed                5814641  ao basis integrals from 
                  9692  buffers.
       8          -110.818754712042789              0.1198508942D-01
   current occupation vector 
     5  4
     4  4
  processed                3004150  ao basis integrals from 
                  5007  buffers.
  processed                3002380  ao basis integrals from 
                  5004  buffers.
  processed                5814641  ao basis integrals from 
                  9692  buffers.
       9          -110.818998444018519              0.3330881422D-02
   current occupation vector 
     5  4
     4  4
 
 sum over diagonal and offdiagdiagonal of C(T)*S*C for irrep
                     1
  4.012346010995316E-013  6.768897465626580E-013
 reorthoganalization of MOs is carried out
 sum over diagonal and offdiagdiagonal of C(T)*S*C for irrep
                     1
  1.165734175856414E-013  3.617082008715736E-014
 
 sum over diagonal and offdiagdiagonal of C(T)*S*C for irrep
                     2
  3.065325770990057E-013  7.502509900972459E-014
 reorthoganalization of MOs is carried out
 sum over diagonal and offdiagdiagonal of C(T)*S*C for irrep
                     2
  2.775557561562891E-014 -8.732421032884565E-014
  processed                3004150  ao basis integrals from 
                  5007  buffers.
  processed                3002380  ao basis integrals from 
                  5004  buffers.
  processed                5814641  ao basis integrals from 
                  9692  buffers.
      10          -110.819075849308490              0.1342609863D-02
   current occupation vector 
     5  4
     4  4
  processed                3004150  ao basis integrals from 
                  5007  buffers.
  processed                3002380  ao basis integrals from 
                  5004  buffers.
  processed                5814641  ao basis integrals from 
                  9692  buffers.
      11          -110.819086635995831              0.3297726695D-03
   current occupation vector 
     5  4
     4  4
  processed                3004150  ao basis integrals from 
                  5007  buffers.
  processed                3002380  ao basis integrals from 
                  5004  buffers.
  processed                5814641  ao basis integrals from 
                  9692  buffers.
      12          -110.819087389922686              0.1145948653D-03
   current occupation vector 
     5  4
     4  4
  processed                3004150  ao basis integrals from 
                  5007  buffers.
  processed                3002380  ao basis integrals from 
                  5004  buffers.
  processed                5814641  ao basis integrals from 
                  9692  buffers.
      13          -110.819087498435664              0.4833526746D-04
   current occupation vector 
     5  4
     4  4
  processed                3004150  ao basis integrals from 
                  5007  buffers.
  processed                3002380  ao basis integrals from 
                  5004  buffers.
  processed                5814641  ao basis integrals from 
                  9692  buffers.
      14          -110.819087513471885              0.2350292123D-04
   current occupation vector 
     5  4
     4  4
 
 sum over diagonal and offdiagdiagonal of C(T)*S*C for irrep
                     1
  3.540501225529624E-013 -3.714066503874731E-013
 reorthoganalization of MOs is carried out
 sum over diagonal and offdiagdiagonal of C(T)*S*C for irrep
                     1
 -6.394884621840902E-014  2.524698476547507E-013
 
 sum over diagonal and offdiagdiagonal of C(T)*S*C for irrep
                     2
  1.887379141862766E-013 -2.671826422889739E-013
 reorthoganalization of MOs is carried out
 sum over diagonal and offdiagdiagonal of C(T)*S*C for irrep
                     2
  1.809663530139005E-014  3.109961429857200E-013
  processed                3004150  ao basis integrals from 
                  5007  buffers.
  processed                3002380  ao basis integrals from 
                  5004  buffers.
  processed                5814641  ao basis integrals from 
                  9692  buffers.
      15          -110.819087513778442              0.2937552866D-05
   current occupation vector 
     5  4
     4  4
  processed                3004150  ao basis integrals from 
                  5007  buffers.
  processed                3002380  ao basis integrals from 
                  5004  buffers.
  processed                5814641  ao basis integrals from 
                  9692  buffers.
      16          -110.819087513789356              0.3579742056D-06
   current occupation vector 
     5  4
     4  4
  processed                3004150  ao basis integrals from 
                  5007  buffers.
  processed                3002380  ao basis integrals from 
                  5004  buffers.
  processed                5814641  ao basis integrals from 
                  9692  buffers.
      17          -110.819087513791033              0.1192017708D-06
   current occupation vector 
     5  4
     4  4
  processed                3004150  ao basis integrals from 
                  5007  buffers.
  processed                3002380  ao basis integrals from 
                  5004  buffers.
  processed                5814641  ao basis integrals from 
                  9692  buffers.
      18          -110.819087513789299              0.5407592434D-07
   current occupation vector 
     5  4
     4  4
  processed                3004150  ao basis integrals from 
                  5007  buffers.
  processed                3002380  ao basis integrals from 
                  5004  buffers.
  processed                5814641  ao basis integrals from 
                  9692  buffers.
      19          -110.819087513789498              0.1048525334D-07
   current occupation vector 
     5  4
     4  4
 
 sum over diagonal and offdiagdiagonal of C(T)*S*C for irrep
                     1
  9.792167077193881E-014  5.745182433686482E-013
 reorthoganalization of MOs is carried out
 sum over diagonal and offdiagdiagonal of C(T)*S*C for irrep
                     1
 -1.422195694544826E-013 -2.033175459172116E-013
 
 sum over diagonal and offdiagdiagonal of C(T)*S*C for irrep
                     2
  4.226619054747971E-013  3.695497459971644E-013
 reorthoganalization of MOs is carried out
 sum over diagonal and offdiagdiagonal of C(T)*S*C for irrep
                     2
  6.061817714453355E-014  1.430645920484459E-013
  processed                3004150  ao basis integrals from 
                  5007  buffers.
  processed                3002380  ao basis integrals from 
                  5004  buffers.
  processed                5814641  ao basis integrals from 
                  9692  buffers.
      20          -110.819087513789697              0.2490939094D-08
   current occupation vector 
     5  4
     4  4
  processed                3004150  ao basis integrals from 
                  5007  buffers.
  processed                3002380  ao basis integrals from 
                  5004  buffers.
  processed                5814641  ao basis integrals from 
                  9692  buffers.
      21          -110.819087513790237              0.9731337194D-09
   current occupation vector 
     5  4
     4  4
  processed                3004150  ao basis integrals from 
                  5007  buffers.
  processed                3002380  ao basis integrals from 
                  5004  buffers.
  processed                5814641  ao basis integrals from 
                  9692  buffers.
      22          -110.819087513790095              0.5079936749D-09
   current occupation vector 
     5  4
     4  4
  processed                3004150  ao basis integrals from 
                  5007  buffers.
  processed                3002380  ao basis integrals from 
                  5004  buffers.
  processed                5814641  ao basis integrals from 
                  9692  buffers.
      23          -110.819087513789356              0.1671806305D-09
   current occupation vector 
     5  4
     4  4
  processed                3004150  ao basis integrals from 
                  5007  buffers.
  processed                3002380  ao basis integrals from 
                  5004  buffers.
  processed                5814641  ao basis integrals from 
                  9692  buffers.
      24          -110.819087513790265              0.3004731186D-10
   current occupation vector 
     5  4
     4  4
 
 sum over diagonal and offdiagdiagonal of C(T)*S*C for irrep
                     1
  1.610933608731102E-013 -4.313065225310623E-013
 reorthoganalization of MOs is carried out
 sum over diagonal and offdiagdiagonal of C(T)*S*C for irrep
                     1
  2.082778394196794E-013  3.225121415045025E-013
 
 sum over diagonal and offdiagdiagonal of C(T)*S*C for irrep
                     2
  2.651212582804874E-013  1.424511079223178E-014
 reorthoganalization of MOs is carried out
 sum over diagonal and offdiagdiagonal of C(T)*S*C for irrep
                     2
  3.419486915845482E-014 -1.691130177442742E-013
  processed                3004150  ao basis integrals from 
                  5007  buffers.
  processed                3002380  ao basis integrals from 
                  5004  buffers.
  processed                5814641  ao basis integrals from 
                  9692  buffers.
      25          -110.819087513789469              0.3523910330D-11
   current occupation vector 
     5  4
     4  4
  processed                3004150  ao basis integrals from 
                  5007  buffers.
  processed                3002380  ao basis integrals from 
                  5004  buffers.
  processed                5814641  ao basis integrals from 
                  9692  buffers.
      26          -110.819087513788958              0.1944278072D-11
   current occupation vector 
     5  4
     4  4
  processed                3004150  ao basis integrals from 
                  5007  buffers.
  processed                3002380  ao basis integrals from 
                  5004  buffers.
  processed                5814641  ao basis integrals from 
                  9692  buffers.
      27          -110.819087513789839              0.1485089829D-11
   current occupation vector 
     5  4
     4  4

  SCF has converged.

 Density matrix saved to file den.dat
 total alpha spin electron number:   8.99999999999999     
 total  beta spin electron number:   8.00000000000001     
  processed                3004150  ao basis integrals from 
                  5007  buffers.
  processed                3002380  ao basis integrals from 
                  5004  buffers.
  processed                5814641  ao basis integrals from 
                  9692  buffers.
     E(ROHF)=      -110.819087513789924              0.8435474541D-12


  Final occupancies:

     Alpha population by irrep:   5    4
      Beta population by irrep:   4    4



       The average multiplicity is    2.0000000
  The expectation value of S**2 is    0.7500000

 @PUTMOS-I, Writing converged MOs to NEWMOS. 
 @PUTMOS-I, Symmetry   1 Full Blocks 14 Partial Blocksize   3
 @PUTMOS-I, Symmetry   2 Full Blocks 14 Partial Blocksize   3
  @DMPJOB-I, Rotating orbitals to semicanonical basis.
             *** Eigenvalues correspond to new basis. ***

--------------------------------------------------------------------------------
Eigenvalue    -15.949056    -15.948593     -1.632805     -1.374490     -1.041024
 Symmetry           A             B             A             B             B    
--------------------------------------------------------------------------------
   1 S         0.3174691     0.3175061     0.0683080     0.0656532     0.0071540
   1 S         0.4455304     0.4455657     0.1592084     0.1538466     0.0169309
   1 S         0.0144855     0.0149591    -0.2351684    -0.2328970    -0.0249259
   1 S        -0.0055938    -0.0078336    -0.2947007    -0.3065052    -0.0541472
   1 S         0.0022155     0.0035801    -0.0279561    -0.0854972    -0.0284559
   1 PX       -0.0006663    -0.0004999     0.0536377    -0.0772527     0.0148390
   1 PY       -0.0003881    -0.0003792     0.0119739     0.0218117    -0.2478783
   1 PZ        0.0011203     0.0011826    -0.0310385    -0.0456384    -0.0472490
   1 PX        0.0000003     0.0017338     0.0533577    -0.0582372     0.0123808
   1 PY        0.0003078     0.0003387     0.0094159     0.0164644    -0.2014797
   1 PZ       -0.0009360    -0.0012329    -0.0251393    -0.0382620    -0.0293978
   1 PX        0.0000148    -0.0004671     0.0048662    -0.0053043     0.0071531
   1 PY       -0.0001706    -0.0001275    -0.0040297    -0.0024007    -0.0659751
   1 PZ        0.0003274     0.0003097     0.0030167     0.0010080     0.0017627
   1 DX2      -0.0000312    -0.0000733    -0.0026612     0.0036461    -0.0000028
   1 DXY      -0.0000588    -0.0000664     0.0003987     0.0020792     0.0008692
   1 DXZ       0.0000743     0.0000402    -0.0006041    -0.0029376    -0.0013586
   1 DY2       0.0000109     0.0000264     0.0010684    -0.0021863     0.0037149
   1 DYZ       0.0000624     0.0000759    -0.0013551    -0.0017303    -0.0065235
   1 DZZ       0.0000203     0.0000469     0.0015929    -0.0014597    -0.0037121
   1 DX2      -0.0000796    -0.0002775    -0.0066035     0.0060736    -0.0004165
   1 DXY      -0.0001294    -0.0001116     0.0005214     0.0052847     0.0136520
   1 DXZ      -0.0000742     0.0002719     0.0019383    -0.0040152    -0.0010725
   1 DY2       0.0000682     0.0001736     0.0026202    -0.0030838     0.0038755
   1 DYZ       0.0000335    -0.0000272    -0.0005054    -0.0015056    -0.0115238
   1 DZZ       0.0000114     0.0001038     0.0039833    -0.0029899    -0.0034590
   1 FX3      -0.0000053    -0.0000461     0.0013686     0.0001990     0.0001745
   1 FX2Y      0.0000300    -0.0000128     0.0004891    -0.0000266    -0.0023003
   1 FX2Z     -0.0000326    -0.0000572    -0.0002797     0.0001843     0.0000907
   1 FXY2      0.0000373     0.0000909    -0.0019574    -0.0004739    -0.0006092
   1 FXYZ      0.0000412     0.0000518    -0.0000971    -0.0000654     0.0007243
   1 FXZ2     -0.0000214     0.0000473    -0.0021483    -0.0001230     0.0000856
   1 FY3      -0.0000452    -0.0000228     0.0001180     0.0002972     0.0004823
   1 FY2Z      0.0000222     0.0000294    -0.0001061    -0.0001864    -0.0002972
   1 FYZ2      0.0001057     0.0000812    -0.0008430    -0.0008650     0.0008533
   1 FZ3       0.0000035     0.0000093     0.0001286     0.0000007     0.0000688
   2 S         0.3174691    -0.3175061     0.0683080    -0.0656532    -0.0071540
   2 S         0.4455304    -0.4455657     0.1592084    -0.1538466    -0.0169309
   2 S         0.0144855    -0.0149591    -0.2351684     0.2328970     0.0249259
   2 S        -0.0055938     0.0078336    -0.2947007     0.3065052     0.0541472
   2 S         0.0022155    -0.0035801    -0.0279561     0.0854972     0.0284559
   2 PX        0.0006663    -0.0004999    -0.0536377    -0.0772527     0.0148390
   2 PY        0.0003881    -0.0003792    -0.0119739     0.0218117    -0.2478783
   2 PZ        0.0011203    -0.0011826    -0.0310385     0.0456384     0.0472490
   2 PX       -0.0000003     0.0017338    -0.0533577    -0.0582372     0.0123808
   2 PY       -0.0003078     0.0003387    -0.0094159     0.0164644    -0.2014797
   2 PZ       -0.0009360     0.0012329    -0.0251393     0.0382620     0.0293978
   2 PX       -0.0000148    -0.0004671    -0.0048662    -0.0053043     0.0071531
   2 PY        0.0001706    -0.0001275     0.0040297    -0.0024007    -0.0659751
   2 PZ        0.0003274    -0.0003097     0.0030167    -0.0010080    -0.0017627
   2 DX2      -0.0000312     0.0000733    -0.0026612    -0.0036461     0.0000028
   2 DXY      -0.0000588     0.0000664     0.0003987    -0.0020792    -0.0008692
   2 DXZ      -0.0000743     0.0000402     0.0006041    -0.0029376    -0.0013586
   2 DY2       0.0000109    -0.0000264     0.0010684     0.0021863    -0.0037149
   2 DYZ      -0.0000624     0.0000759     0.0013551    -0.0017303    -0.0065235
   2 DZZ       0.0000203    -0.0000469     0.0015929     0.0014597     0.0037121
   2 DX2      -0.0000796     0.0002775    -0.0066035    -0.0060736     0.0004165
   2 DXY      -0.0001294     0.0001116     0.0005214    -0.0052847    -0.0136520
   2 DXZ       0.0000742     0.0002719    -0.0019383    -0.0040152    -0.0010725
   2 DY2       0.0000682    -0.0001736     0.0026202     0.0030838    -0.0038755
   2 DYZ      -0.0000335    -0.0000272     0.0005054    -0.0015056    -0.0115238
   2 DZZ       0.0000114    -0.0001038     0.0039833     0.0029899     0.0034590
   2 FX3       0.0000053    -0.0000461    -0.0013686     0.0001990     0.0001745
   2 FX2Y     -0.0000300    -0.0000128    -0.0004891    -0.0000266    -0.0023003
   2 FX2Z     -0.0000326     0.0000572    -0.0002797    -0.0001843    -0.0000907
   2 FXY2     -0.0000373     0.0000909     0.0019574    -0.0004739    -0.0006092
   2 FXYZ      0.0000412    -0.0000518    -0.0000971     0.0000654    -0.0007243
   2 FXZ2      0.0000214     0.0000473     0.0021483    -0.0001230     0.0000856
   2 FY3       0.0000452    -0.0000228    -0.0001180     0.0002972     0.0004823
   2 FY2Z      0.0000222    -0.0000294    -0.0001061     0.0001864     0.0002972
   2 FYZ2     -0.0001057     0.0000812     0.0008430    -0.0008650     0.0008533
   2 FZ3       0.0000035    -0.0000093     0.0001286    -0.0000007    -0.0000688
   3 S         0.0000790     0.0001389    -0.0547722    -0.0766777    -0.0791410
   3 S         0.0006438     0.0007187    -0.0608152    -0.0829358    -0.1262640
   3 S        -0.0004566    -0.0004598    -0.0049440    -0.0042391    -0.0195871
   3 PX        0.0000729    -0.0000341     0.0033313     0.0015983     0.0032355
   3 PY        0.0000455     0.0000443     0.0040245     0.0054782     0.0014425
   3 PZ        0.0001723     0.0001647     0.0070084     0.0095601     0.0102342
   3 PX       -0.0000864    -0.0002566     0.0063178     0.0019444     0.0105363
   3 PY       -0.0002116    -0.0001881     0.0062349     0.0068515     0.0020381
   3 PZ       -0.0003121    -0.0002392     0.0077799     0.0090996     0.0194177
   3 DX2       0.0000447     0.0000605     0.0003170     0.0008524     0.0005312
   3 DXY      -0.0000123     0.0000244    -0.0007476    -0.0004182    -0.0002681
   3 DXZ      -0.0000597    -0.0000135    -0.0013708    -0.0006904    -0.0019554
   3 DY2       0.0000183     0.0000265     0.0001237     0.0002295     0.0011544
   3 DYZ      -0.0000471    -0.0000996    -0.0012993    -0.0021633    -0.0016609
   3 DZZ      -0.0000630    -0.0000869    -0.0004407    -0.0010819    -0.0016856
   4 S         0.0000790    -0.0001389    -0.0547722     0.0766777     0.0791410
   4 S         0.0006438    -0.0007187    -0.0608152     0.0829358     0.1262640
   4 S        -0.0004566     0.0004598    -0.0049440     0.0042391     0.0195871
   4 PX       -0.0000729    -0.0000341    -0.0033313     0.0015983     0.0032355
   4 PY       -0.0000455     0.0000443    -0.0040245     0.0054782     0.0014425
   4 PZ        0.0001723    -0.0001647     0.0070084    -0.0095601    -0.0102342
   4 PX        0.0000864    -0.0002566    -0.0063178     0.0019444     0.0105363
   4 PY        0.0002116    -0.0001881    -0.0062349     0.0068515     0.0020381
   4 PZ       -0.0003121     0.0002392     0.0077799    -0.0090996    -0.0194177
   4 DX2       0.0000447    -0.0000605     0.0003170    -0.0008524    -0.0005312
   4 DXY      -0.0000123    -0.0000244    -0.0007476     0.0004182     0.0002681
   4 DXZ       0.0000597    -0.0000135     0.0013708    -0.0006904    -0.0019554
   4 DY2       0.0000183    -0.0000265     0.0001237    -0.0002295    -0.0011544
   4 DYZ       0.0000471    -0.0000996     0.0012993    -0.0021633    -0.0016609
   4 DZZ      -0.0000630     0.0000869    -0.0004407     0.0010819     0.0016856
   5 S         0.0000295     0.0000690    -0.0507193    -0.0774625     0.0974357
   5 S         0.0004391     0.0004808    -0.0542903    -0.0833481     0.1542483
   5 S        -0.0004399    -0.0003734    -0.0047474    -0.0058858     0.0188997
   5 PX        0.0000865     0.0000104     0.0038363     0.0029104    -0.0056072
   5 PY       -0.0001549    -0.0001710    -0.0070333    -0.0108774     0.0107849
   5 PZ        0.0000677     0.0000490     0.0007827     0.0011659    -0.0029964
   5 PX       -0.0001350    -0.0001890     0.0054113     0.0024477    -0.0158350
   5 PY        0.0002545     0.0002377    -0.0083184    -0.0117603     0.0193557
   5 PZ        0.0000126     0.0000207    -0.0003873     0.0003160    -0.0017934
   5 DX2       0.0000333     0.0000374     0.0001850     0.0007196    -0.0000492
   5 DXY       0.0000564     0.0000174     0.0016396     0.0014455    -0.0026934
   5 DXZ      -0.0000148    -0.0000415    -0.0000955    -0.0001626     0.0002657
   5 DY2      -0.0000344    -0.0000611    -0.0006525    -0.0015324     0.0014148
   5 DYZ       0.0000573     0.0000527     0.0001551     0.0005529    -0.0013626
   5 DZZ       0.0000011     0.0000238     0.0004675     0.0008128    -0.0013656
   6 S         0.0000295    -0.0000690    -0.0507193     0.0774625    -0.0974357
   6 S         0.0004391    -0.0004808    -0.0542903     0.0833481    -0.1542483
   6 S        -0.0004399     0.0003734    -0.0047474     0.0058858    -0.0188997
   6 PX       -0.0000865     0.0000104    -0.0038363     0.0029104    -0.0056072
   6 PY        0.0001549    -0.0001710     0.0070333    -0.0108774     0.0107849
   6 PZ        0.0000677    -0.0000490     0.0007827    -0.0011659     0.0029964
   6 PX        0.0001350    -0.0001890    -0.0054113     0.0024477    -0.0158350
   6 PY       -0.0002545     0.0002377     0.0083184    -0.0117603     0.0193557
   6 PZ        0.0000126    -0.0000207    -0.0003873    -0.0003160     0.0017934
[...]
[  4   3  71  64]-0.00844 [  7   6  66  63]-0.00755 [  4   2  14  12] 0.00733
[  7   2  64  16] 0.00730 [  7   4  71  14] 0.00683 [  7   3  67  16]-0.00682
[  7   2  64  22]-0.00660 [  4   3  77  64]-0.00629 [  6   3  67  10]-0.00582
[  4   3  67  65]-0.00571 [  7   3  64  16]-0.00565 [  7   3  66   9]-0.00553
[  4   2  65  64]-0.00539 [  4   3  69  66] 0.00534 [  4   2  71  65]-0.00516
-----------------------------------------------------------------------------
   Norm of T2AA vector (    61884 symmetry allowed elements):  0.1048902211.
-----------------------------------------------------------------------------
   Largest T1 amplitudes for spin case BB:
   i       a                 i       a                 i       a    
-----------------------------------------------------------------------------
[  2       7    ]-0.07688 [  3       7    ] 0.05572 [  1       7    ]-0.02711
[  6      66    ]-0.01888 [  2      12    ]-0.01305 [  6      62    ] 0.00959
[  6      72    ] 0.00916 [  6      70    ] 0.00820 [  3       9    ]-0.00682
[  2      14    ] 0.00667 [  5      71    ] 0.00664 [  6      71    ] 0.00656
[  3      29    ]-0.00630 [  1      14    ] 0.00551 [  1       8    ]-0.00547
-----------------------------------------------------------------------------
   Norm of T1BB vector (      330 symmetry allowed elements):  0.1079914220.
-----------------------------------------------------------------------------
   Largest T2 amplitudes for spin case BB:
   i   j   a   b             i   j   a   b             i   j   a   b
-----------------------------------------------------------------------------
[  6   3  64   7]-0.03083 [  6   2  64   7] 0.02962 [  6   3  69   7] 0.02057
[  6   3  67   7]-0.01485 [  6   2  70   7] 0.01349 [  6   3  63   7]-0.01337
[  5   2  64   7] 0.01299 [  6   5   9   7]-0.01280 [  6   5  15   7]-0.01248
[  5   3  64   7]-0.01219 [  6   4   8   7] 0.01049 [  6   5  16   7]-0.01038
[  6   2  67   7] 0.01003 [  6   4  14   7] 0.00962 [  5   3  69   7] 0.00860
-----------------------------------------------------------------------------
   Norm of T2BB vector (    45045 symmetry allowed elements):  0.1160598126.
-----------------------------------------------------------------------------
   Largest T2 amplitudes for spin case AB:
       _       _                 _       _                 _       _
   i   j   a   b             i   j   a   b             i   j   a   b
-----------------------------------------------------------------------------
[  2   6  64   7]-0.04718 [  3   6  64   7] 0.04487 [  7   6  11   7]-0.03733
[  4   6  66   7]-0.03640 [  3   6  69   7]-0.02539 [  4   6  64   7] 0.02499
[  2   2  64  64]-0.02392 [  3   3  64  64]-0.02279 [  7   6  64  64]-0.02070
[  3   6  63   7] 0.02013 [  6   6   9   7] 0.01957 [  3   6  62   7] 0.01908
[  4   6  62   7] 0.01899 [  7   6  22   7] 0.01877 [  2   6  70   7]-0.01766
-----------------------------------------------------------------------------
   Norm of T2AB vector (   251790 symmetry allowed elements):  0.3412510553.
-----------------------------------------------------------------------------
  W(mnij) AA contribution =  0.0052328412 a.u.
  W(mnij) BB contribution =  0.0057398747 a.u.
  W(mnij) AB contribution =  0.0710529656 a.u.
  W(abef) AA contribution =  0.0070258671 a.u.
  W(abef) BB contribution =  0.0078491123 a.u.
  W(abef) AB contribution =  0.0994258875 a.u.
  W(mbej) AA contribution =  -0.0106211885 a.u.
  W(mbej) BB contribution =  -0.0123482661 a.u.
  W(mbej) AB contribution = -0.2330625183 a.u.
   After  21 iterations, amplitude changes are:
    -------------------------------------------------------------------
                 Spin      RMS          Max.      Max. change for
     Amplitude   Case     Change       Change       i    j    a    b
    -------------------------------------------------------------------
        T1        AA    0.0000000000-0.0000000025    7        64
        T1        BB    0.0000000000-0.0000000025    2         7
        T2        AA    0.0000000000 0.0000000001    7    4   64   11
        T2        BB    0.0000000000-0.0000000004    6    2   64    7
        T2        AB    0.0000000000-0.0000000008    4    6   64    7
    -------------------------------------------------------------------
   The AA contribution to the correlation energy is:   -0.0500377 a.u.
   The BB contribution to the correlation energy is:   -0.0435586 a.u.
   The AB contribution to the correlation energy is:   -0.3498865 a.u.
   The total correlation energy is -0.443482767688 a.u.
   The total correlation energy is -0.443482767688 a.u.
  Current DIIS expansion coefficients : 
 [   1] 1.3395550024 [   2] 0.0075720584 [   3] 0.0461308900 [   4]-0.1818520678
 [   5]-0.2114058830
  Convergence information after    21 iterations: 
  Largest element of residual vector : -0.25335018E-08.
  Largest element of DIIS residual   : -0.81897241E-09.
  W(mnij) AA contribution =  0.0052328412 a.u.
  W(mnij) BB contribution =  0.0057398746 a.u.
  W(mnij) AB contribution =  0.0710529664 a.u.
  W(abef) AA contribution =  0.0070258671 a.u.
  W(abef) BB contribution =  0.0078491122 a.u.
  W(abef) AB contribution =  0.0994258884 a.u.
  W(mbej) AA contribution =  -0.0106211884 a.u.
  W(mbej) BB contribution =  -0.0123482658 a.u.
  W(mbej) AB contribution = -0.2330625213 a.u.
   After  22 iterations, amplitude changes are:
    -------------------------------------------------------------------
                 Spin      RMS          Max.      Max. change for
     Amplitude   Case     Change       Change       i    j    a    b
    -------------------------------------------------------------------
        T1        AA    0.0000000000-0.0000000003    7        64
        T1        BB    0.0000000000 0.0000000009    3         7
        T2        AA    0.0000000000 0.0000000001    7    4   64   11
        T2        BB    0.0000000000 0.0000000001    6    2   62    7
        T2        AB    0.0000000000-0.0000000002    7    6   64   64
    -------------------------------------------------------------------
   The AA contribution to the correlation energy is:   -0.0500377 a.u.
   The BB contribution to the correlation energy is:   -0.0435586 a.u.
   The AB contribution to the correlation energy is:   -0.3498865 a.u.
   The total correlation energy is -0.443482768026 a.u.
   The total correlation energy is -0.443482768026 a.u.
  Current DIIS expansion coefficients : 
 [   1]-0.0691740646 [   2] 1.1344524806 [   3] 0.0001711670 [   4] 0.0490235206
 [   5]-0.1144731037
  Convergence information after    22 iterations: 
  Largest element of residual vector :  0.89159496E-09.
  Largest element of DIIS residual   :  0.89589328E-09.
  Amplitude equations converged in    22iterations.
   The AA contribution to the correlation energy is:   -0.0500377 a.u.
   The BB contribution to the correlation energy is:   -0.0435586 a.u.
   The AB contribution to the correlation energy is:   -0.3498865 a.u.
   The total correlation energy is -0.443482768057 a.u.
   The total correlation energy is -0.443482768057 a.u.
   The CC iterations have converged.

            ----------------------------------------------
                     Projected spin multiplicities: 
            ----------------------------------------------
             <0|S^2|0>                  =    0.7500000000.
             <0|S^2 (T2+T1**2) |0>      =    0.0000000000.
             <0|S^2 T1|0>               =   -0.0000000050.
             Projected <0|S^2 exp(T)|0> =    0.7499999950.
             Approximate spin mult.     =    1.9999999950.
            ----------------------------------------------
   Largest T1 amplitudes for spin case AA:
   i       a                 i       a                 i       a    
-----------------------------------------------------------------------------
[  7      64    ]-0.04074 [  7      66    ] 0.02885 [  7      62    ]-0.02332
[  6      64    ]-0.02086 [  7      67    ]-0.01252 [  6      62    ]-0.01200
[  7      65    ] 0.01141 [  6      66    ] 0.01122 [  7      70    ]-0.01039
[  6      67    ]-0.01008 [  7      71    ]-0.00940 [  7      72    ]-0.00913
[  5      71    ]-0.00860 [  7      82    ] 0.00826 [  7      77    ]-0.00825
-----------------------------------------------------------------------------
   Norm of T1AA vector (      381 symmetry allowed elements):  0.0777290011.
-----------------------------------------------------------------------------
   Largest T2 amplitudes for spin case AA:
   i   j   a   b             i   j   a   b             i   j   a   b
-----------------------------------------------------------------------------
[  4   3  71  64]-0.00844 [  7   6  66  63]-0.00755 [  4   2  14  12] 0.00733
[  7   2  64  16] 0.00730 [  7   4  71  14] 0.00683 [  7   3  67  16]-0.00682
[  7   2  64  22]-0.00660 [  4   3  77  64]-0.00629 [  6   3  67  10]-0.00582
[  4   3  67  65]-0.00571 [  7   3  64  16]-0.00565 [  7   3  66   9]-0.00553
[  4   2  65  64]-0.00539 [  4   3  69  66] 0.00534 [  4   2  71  65]-0.00516
-----------------------------------------------------------------------------
   Norm of T2AA vector (    61884 symmetry allowed elements):  0.1048902205.
-----------------------------------------------------------------------------
   Largest T1 amplitudes for spin case BB:
   i       a                 i       a                 i       a    
-----------------------------------------------------------------------------
[  2       7    ]-0.07688 [  3       7    ] 0.05572 [  1       7    ]-0.02711
[  6      66    ]-0.01888 [  2      12    ]-0.01305 [  6      62    ] 0.00959
[  6      72    ] 0.00916 [  6      70    ] 0.00820 [  3       9    ]-0.00682
[  2      14    ] 0.00667 [  5      71    ] 0.00664 [  6      71    ] 0.00656
[  3      29    ]-0.00630 [  1      14    ] 0.00551 [  1       8    ]-0.00547
-----------------------------------------------------------------------------
   Norm of T1BB vector (      330 symmetry allowed elements):  0.1079914284.
-----------------------------------------------------------------------------
   Largest T2 amplitudes for spin case BB:
   i   j   a   b             i   j   a   b             i   j   a   b
-----------------------------------------------------------------------------
[  6   3  64   7]-0.03083 [  6   2  64   7] 0.02962 [  6   3  69   7] 0.02057
[  6   3  67   7]-0.01485 [  6   2  70   7] 0.01349 [  6   3  63   7]-0.01337
[  5   2  64   7] 0.01299 [  6   5   9   7]-0.01280 [  6   5  15   7]-0.01248
[  5   3  64   7]-0.01219 [  6   4   8   7] 0.01049 [  6   5  16   7]-0.01038
[  6   2  67   7] 0.01003 [  6   4  14   7] 0.00962 [  5   3  69   7] 0.00860
-----------------------------------------------------------------------------
   Norm of T2BB vector (    45045 symmetry allowed elements):  0.1160598118.
-----------------------------------------------------------------------------
   Largest T2 amplitudes for spin case AB:
       _       _                 _       _                 _       _
   i   j   a   b             i   j   a   b             i   j   a   b
-----------------------------------------------------------------------------
[  2   6  64   7]-0.04718 [  3   6  64   7] 0.04487 [  7   6  11   7]-0.03733
[  4   6  66   7]-0.03640 [  3   6  69   7]-0.02539 [  4   6  64   7] 0.02499
[  2   2  64  64]-0.02392 [  3   3  64  64]-0.02279 [  7   6  64  64]-0.02070
[  3   6  63   7] 0.02013 [  6   6   9   7] 0.01957 [  3   6  62   7] 0.01908
[  4   6  62   7] 0.01899 [  7   6  22   7] 0.01877 [  2   6  70   7]-0.01766
-----------------------------------------------------------------------------
   Norm of T2AB vector (   251790 symmetry allowed elements):  0.3412510574.
-----------------------------------------------------------------------------
       Summary of iterative solution of CC equations 
      -----------------------------------------------------------
                       Correlation           Total
       Iteration         Energy              Energy
      -----------------------------------------------------------
            0        -0.426433272269    -111.245520786059  DIIS 
            1        -0.427754056402    -111.246841570191  DIIS 
            2        -0.440590402074    -111.259677915864  DIIS 
            3        -0.441009298318    -111.260096812108  DIIS 
            4        -0.442985320021    -111.262072833811  DIIS 
            5        -0.443402180403    -111.262489694193  DIIS 
            6        -0.443471826658    -111.262559340448  DIIS 
            7        -0.443474113698    -111.262561627488  DIIS 
            8        -0.443473309510    -111.262560823300  DIIS 
            9        -0.443486201267    -111.262573715057  DIIS 
           10        -0.443482584169    -111.262570097959  DIIS 
           11        -0.443483430785    -111.262570944575  DIIS 
           12        -0.443482149531    -111.262569663321  DIIS 
           13        -0.443482454309    -111.262569968098  DIIS 
           14        -0.443482692133    -111.262570205923  DIIS 
           15        -0.443482764658    -111.262570278447  DIIS 
           16        -0.443482793024    -111.262570306814  DIIS 
           17        -0.443482773684    -111.262570287474  DIIS 
           18        -0.443482771699    -111.262570285488  DIIS 
           19        -0.443482767087    -111.262570280877  DIIS 
           20        -0.443482767562    -111.262570281352  DIIS 
           21        -0.443482767688    -111.262570281478  DIIS 
           22        -0.443482768057    -111.262570281847  DIIS 
      -----------------------------------------------------------
      A miracle has come to pass. The CC iterations have converged.
 @DIMT3-I, Dimensions of T3 amplitudes : 
               # abc          # ijk       Symmetry    Spin 
                   104994             16     1          1
                   104940             19     2          1
                   323730             63     1          2
                   323730             63     2          2
                   326755             51     1          3
                   326700             54     2          3
                   107910             10     1          4
                   107910             10     2          4
 @DIMT3-I, Dimensions of T3 amplitudes : 
               # abc          # ijk       Symmetry    Spin 
                   104994             16     1          1
                   104940             19     2          1
                   323730             63     1          2
                   323730             63     2          2
                   326755             51     1          3
                   326700             54     2          3
                   107910             10     1          4
                   107910             10     2          4
 @TRPS-I, Welcome to TRPS. Watch your RUs ! 
 @TRPS-I, Method is CCSD(T) 
 @TRPS-I, Calculation type is energy 
 @TRPS-I, Reference function information : 
          Reference function is general non-HF 
 @TRPS-I, Reference function is ROHF 
 @TRPS-I, INT1 is true 
 @TRPS-I, INT2 is false 
 @TRPS-I, Lengths of ijka integrals. #1       8013
                                     #2       4950
                                     #3      13734
                                     #4      16170
                                    Max      16170
 @INITRP-I, Initializing W intermediate lists. 
 @TSPABCI-I, AbIc/AbcI record transposition. 
 @TSPABCI-I, (O,v) ---> (v,O) transposition. 
 @TSPABCI-I, In-core algorithm is being used. 
 @TSPABCI-I, In-core algorithm is being used. 
 @TRPS-I, Available memory in integer words    499959040
          Number of pre-allocated words for TRPS14        48711
          Number of free words for TRPS14    499910329
 @TRPS14-I, Spin case AAA 
 @TRPS14-I, Number of free integer words  499910329
            Number of free double words   499910329
            Ratio                                 1
 @TRPS14-I, E4TAAA      -0.000351017809
 @TRPS14-I, E5ST A    0.000009239670122
 @TRPS14-I, E4ST A   -0.000001343677308
 @TRPS-I, Available memory in integer words    499959040
          Number of pre-allocated words for TRPS14        48705
          Number of free words for TRPS14    499910335
 @TRPS14-I, Spin case BBB 
 @TRPS14-I, Number of free integer words  499910335
            Number of free double words   499910335
            Ratio                                 1
 @TRPS14-I, E4TBBB      -0.000484313535
 @TRPS14-I, E5ST B    0.000004834731534
 @TRPS14-I, E4ST B   -0.000000210995299
 @SETOOOV-I, Some OOOV lists are being transposed. 
 @TRPS-I, Available memory in integer words    499959040
          Number of pre-allocated words for TRPS2       188673
          Number of free words for TRPS2    499770367
 @TRPS2-I, Spin case AAB 
 @TRPS2-I, Number of free integer words  499770367
           Number of free double  words  499770367
           Ratio                                 1
 @TRPS2-I, E4TBAA      -0.009127921571
 @TRPS2-I, E5ST A    0.000148242916691
 @TRPS2-I, E5ST B    0.000139173230508
 @TRPS2-I, E4ST A   -0.000000449324151
 @TRPS2-I, E4ST B   -0.000020601132732
 @SETOOOV-I, Some OOOV lists are being transposed. 
 @TSPABCI2-I, (Alpha,Beta) ---> (Beta,Alpha). 
 @TSPABCI2-I, In-core algorithm is being used. 
 @TSPABCI2-I, In-core algorithm is being used. 
 @TSPABCI2-I, In-core algorithm is being used. 
 @TSPABCI2-I, In-core algorithm is being used. 
 @AT2IAB-I, Some AbIj lists are being altered. 
 @TRPS-I, Available memory in integer words    499959040
          Number of pre-allocated words for TRPS3       383479
          Number of free words for TRPS3    499575561
 @TRPS3-I, Spin case BBA 
 @TRPS3-I, Number of free integer words  499575561
           Number of free double  words  499575561
           Ratio                                 1
 @TRPS3-I, E4TBBA      -0.008948915100
 @TRPS3-I, E5ST A    0.000248032680626
 @TRPS3-I, E5ST B    0.000302055266519
 @TRPS3-I, E4ST A    0.000005266316289
 @TRPS3-I, E4ST B   -0.000052192311594
 @TSPABCI2-I, (Beta,Alpha) ---> (Alpha,Beta). 
 @TSPABCI2-I, In-core algorithm is being used. 
 @TSPABCI2-I, In-core algorithm is being used. 
 @TSPABCI2-I, In-core algorithm is being used. 
 @TSPABCI2-I, In-core algorithm is being used. 
 @AT2IAB-I, Some AbIj lists are being altered. 
 @TSPABCI-I, AbIc/AbcI record transposition. 
 @TSPABCI-I, (v,O) ---> (O,v) transposition. 
 @TSPABCI-I, In-core algorithm is being used. 
 @TSPABCI-I, In-core algorithm is being used. 
 @CCENRG-I, CCSD/QCISD energy will now be evaluated. 
 @CCENRG-I, Correlation energies. ECCAA       -0.050037744459
                                  ECCBB       -0.043558562145
                                  ECCAB       -0.349886461453
                                  Total       -0.443482768057
 @CCENRG-I, Reference   energy    -110.819087513790
            CCSD/QCISD energy     -111.262570281847
          E4T (T(CCSD)) = -0.018912168014
          E5ST          =  0.000550087947
          E4ST          = -0.000046925995
          In other words  
          <T3[2](Dagger) D3  T3[2]> = -0.018912168014
          <T1   (Dagger) Q1 WT3[2]> =  0.000550087947
          <T2   (Dagger) Q2 FT3[2]> = -0.000046925995
        E(CCSD)           =    -111.262570281847
        E(CCSD(T))        =    -111.280979287909
  @CHECKOUT-I, Total execution time (CPU/WALL):      447.89/     460.71 seconds.
--executable xvcc finished with status     0 in      461.80 seconds (walltime).
  The final electronic energy is      -111.280979287908522 a.u. 
  This computation required                          658.48 seconds (walltime).
--- SharcNET Job Epilogue ---
Job completed successfully.
               jobid: 1967869
               resid: 3435148
         exit status: 0
      allocated time: 659.666
           user time: 528.16
         system time: 45.29
peak rss=2012585984; peak vsz=2012585984 (bytes)
atime=659.666; utime=528.16; stime=45.29; exit=0
