 --invoking executable--
/home/nike/cfour_v2.00beta/cfour_v2.00beta/bin/xjoda


   *************************************************************************
         <<<     CCCCCC     CCCCCC   |||     CCCCCC     CCCCCC   >>>
       <<<      CCC        CCC       |||    CCC        CCC         >>>
      <<<      CCC        CCC        |||   CCC        CCC            >>>
    <<<        CCC        CCC        |||   CCC        CCC              >>>
      <<<      CCC        CCC        |||   CCC        CCC            >>>
       <<<      CCC        CCC       |||    CCC        CCC         >>>
         <<<     CCCCCC     CCCCCC   |||     CCCCCC     CCCCCC   >>>
   *************************************************************************

     ****************************************************************
     * CFOUR Coupled-Cluster techniques for Computational Chemistry *
     ****************************************************************
 

   Department of Chemistry                Institut fuer Physikalische Chemie
   University of Texas at Austin          Universitaet Mainz
   Austin, TX  78712, USA                 D-55099 Mainz, Germany
 
                       Version 2.00beta
 
                     blg8521.int.ets1.calculquebec.ca                  
                     Sa 7. Mär 18:38:01 EST 2020                      
                     integer*8 version is running
 
********************************************************************************
*                          Input from ZMAT file                                *
********************************************************************************
TITLE                                                                           
Li                                                                              
F 1 R                                                                           
                                                                                
R=2.9553426863                                                                  
                                                                                
*ACES2(CALC=CCSD(T)                                                             
UNITS=BOHR                                                                      
#GEOM=1.5639*10/5.29177210903_CRC2016                                           
#COORD=CARTESIAN                                                                
COORD=INTERNAL                                                                  
PRINT=4                                                                         
JODA_PRINT=4                                                                    
INPUT_MRCC=OFF                                                                  
#CC_PROG=MRCC                                                                   
#FROZEN_CORE=ON                                                                 
DROPMO=1>1                                                                      
CONTRACTION=GENERAL                                                             
#CONTRACTION=SEGMENTED                                                          
RELATIVISTIC=OFF                                                                
#EXCITE=EOMEE                                                                   
#ESTATE_CONV=5                                                                  
#ESTATE_SYM=2/2/2/2/2/2/2/2                                                     
XFORM_TOL=18                                                                    
SAVE_INTS=ON                                                                    
SCF_EXPORDER=6                                                                  
SCF_EXPSTART=5                                                                  
#SCF_DAMPING=1000                                                               
SCF_EXTRAPOLATION=ON                                                            
SCF_CONV=14                                                                     
SCF_MAXCYC=99999                                                                
CC_CONV=9                                                                       
CC_MAXCYC=999                                                                   
T3_EXTRAPOL=ON                                                                  
REFERENCE=RHF                                                                   
#SYMMETRY=OFF                                                                   
#HFSTABILITY=FOLLOW                                                             
CHARGE=+0                                                                       
MULT=1                                                                          
ABCDTYPE=STANDARD                                                               
#OCCUPATION=3-2-2-0-1-0-0-0/3-1-1-0-1-0-0-0                                     
MEM=2                                                                           
MEM_UNIT=GB                                                                     
BASIS=SPECIAL)                                                                  
                                                                                
LI:def2-TZVPP                                                                   
F:def2-TZVPP                                                                    
                                                                                
********************************************************************************
  @GTFLGS-W, Keyword #GEOM not known and is ignored.
  @GTFLGS-W, Keyword #COORD not known and is ignored.
  @GTFLGS-W, Keyword #CC_PROG not known and is ignored.
  @GTFLGS-W, Keyword #FROZEN_CORE not known and is ignored.
  @GTFLGS-W, Keyword #CONTRACTION not known and is ignored.
  @GTFLGS-W, Keyword #EXCITE not known and is ignored.
  @GTFLGS-W, Keyword #ESTATE_CONV not known and is ignored.
  @GTFLGS-W, Keyword #ESTATE_SYM not known and is ignored.
  @GTFLGS-W, Keyword #SCF_DAMPING not known and is ignored.
  @GTFLGS-W, Keyword #SYMMETRY not known and is ignored.
  @GTFLGS-W, Keyword #HFSTABILITY not known and is ignored.
  @GTFLGS-W, Keyword #OCCUPATION not known and is ignored.
    -------------------------------------------------------------------
                    CFOUR Control Parameters 
    -------------------------------------------------------------------
        External           Internal           Value            Units
          Name               Name
    -------------------------------------------------------------------
       ABCDTYPE             IABCDT         STANDARD     [  0]   ***   
       ANHARMONIC           IANHAR         OFF          [  0]   ***   
       ANH_ALGORIT          IANALG         STANDARD     [  0]   ***   
       ANH_DERIVAT          IANDER         SECOND       [  1]   ***   
       ANH_STEPSIZ          ICUBST             50000          x 10-6  
       ANH_SYMMETR          IANHSM         ABELIAN      [  0]   ***   
       AO_LADDERS           IAOLAD         SINGLEPASS   [  1]   ***   
       BASIS                IBASIS         SPECIAL      [  0]   ***   
       BREIT                IBREIT         OFF          [  0]   ***   
       BRUCK_CONV           IBRTOL          10D-  4             ***   
       BRUECKNER            IBRKNR             OFF      [  0]   ***   
       BUFFERSIZE           IBUFFS            600               ***   
       CACHE_RECS           ICHREC             10               ***   
       CALCLEVEL            ICLLVL           CCSD(T)    [ 22]   ***   
       CCORBOPT             ICCORB             OFF      [  0] x 0.01  
       CC_CONV              ICCCNV          10D-  9             ***   
       CC_EXPORDER          ICCEOR              5               ***   
       CC_EXTRAPOL          ICCEXT             DIIS     [  1]   ***   
       CC_MAXCYC            ICCCYC            999              cycles 
       CC_PROGRAM           ICCPRO         VCC          [  0]   ***   
       CHARGE               ICHRGE              0               ***   
       CHOLESKY             ICHOLE         OFF          [  0]   ***   
       CIS_CONV             ICISTL              5               ***   
       COMM_SIZE            IPSIZE            ***               ***   
       CONSTANT             ICONST         OLD          [  1]   ***   
       CONTINUUM            ICONTU         NONE         [  0]   ***   
       CONTRACTION          ICNTYP          GENERAL     [  1]   ***   
       COORDINATES          ICOORD         INTERNAL     [  0]   ***   
       CPHF_CONVER          ICPHFT          10D- 16             ***   
       CPHF_MAXCYC          ICPHFC             64              cycles 
       CUBIC                ICUBIC         OFF          [  0]   ***   
       CURVILINEAR          ICURVY            OFF       [  0]   ***   
       DBOC                 IDBOC          OFF          [  0]   ***   
       DCT                  IDCT           OFF          [  0]   ***   
       DERIV_LEV            IDRLVL            ZERO      [  0]   ***   
       DIAG_MRCC            IEOMST          10D-  0             ***   
       DIFF_TYPE            IDIFTY         RELAXED      [  0]   ***   
       DIRECT               IDIRCT         OFF          [  0]   ***   
       DROPMO               IDRPMO   1,
       ECP                  IECP           OFF          [  0]   ***   
       EIGENVECTOR          IVEC                1               ***   
       EL_ANHARM            IELANH         OFF          [  0]   ***   
       EOMFOLLOW            IEOMSR         ENERGY       [  0]   ***   
       EOM_MRCC             IMRCCE         NEW          [  1]   ***   
       EOM_NONIT            EOMNON         OFF          [  0]   ***   
       EOM_NSING            IEOMSI          10D-  0             ***   
       EOM_NSTATES          IMRCCD         DAVIDSON     [  0]   ***   
       EOM_NTRIP            IEOMTR          10D-  0             ***   
       EOM_ORDER            IEXORD         ENERGY       [  0]   ***   
       ESTATE_CONV          IEXTOL          10D-  5             ***   
       ESTATE_DIAG          IEXDIG         ITERATIVE    [  0]   ***   
       ESTATE_LOCK          IESLOC         ON           [  1]   ***   
       ESTATE_MAXC          IEXMXC             20               ***   
       ESTATE_PROP          IEXPRP         OFF          [  0]   ***   
       EVAL_HESS            IRECAL              0            # of cyc.
       EXCITATION           IEXCIT              0               ***   
       EXCITE               IEXCIT         NONE         [  0]   ***   
       FCGRADNEW            IFCGNW         OFF          [  0]   ***   
       FC_FIELD             IFINFC              0             x 10-6  
       FD_CALTYPE           IFDCAL         GRADONLY     [  0]   ***   
       FD_PROJECT           IFDPRJ         OFF          [  1]   ***   
       FD_STEPSIZE          IDISFD              0            10-4 bohr
       FD_USEGROUP          IFDGRP         FULL         [  0]   ***   
       FILE_RECSIZ          IFLREC              4096           words  
       FINITE_PERT          IFIPER              0             x 10-6  
       FIXGEOM              IFIXGM         OFF          [  0]   ***   
       FOCK                 IFOCK          AO           [  1]   ***   
       FREQ_ALGORI          IVIALG         STANDARD     [  0]   ***   
       FROZEN_CORE          IFROCO         OFF          [  0]   ***   
       FROZEN_VIRT          IFROVI         OFF          [  0]   ***   
       GAMMA_ABCD           IGABCD         STORE        [  0]   ***   
       GAMMA_ABCI           IGABCI         STORE        [  0]   ***   
       GENBAS_1             IGNBS1              0               ***   
       GENBAS_2             IGNBS2              0               ***   
       GENBAS_3             IGNBS3              0               ***   
       GENBAS_4             IGNBS4              0               ***   
       GEO_CONV             ICONTL              5              H/bohr 
       GEO_MAXCYC           IOPTCY             50               ***   
       GEO_MAXSTEP          IMXSTP            300            millibohr
       GEO_METHOD           INR            SINGLE_POINT [  5]   ***   
       GIAO                 IGIAO          OFF          [  1]   ***   
       GIMIC                IGIMIC         OFF          [  0]   ***   
       GRID                 IGRID          OFF          [  0]   ***   
       GRID_ALGO            IGALGO         SERIAL       [  0]   ***   
       GUESS                IGUESS            MOREAD    [  0]   ***   
       HBAR                 IHBAR              OFF      [  0]   ***   
       HESS_TYPE            IHESTP         SCF          [  0]   ***   
       HF2_FILE             IHF2Fl         USE          [  1]   ***   
       HFSTABILITY          ISTABL         OFF          [  0]   ***   
       INCORE               INCORE             OFF      [  0]   ***   
       INPUT_MRCC           IMRCC          OFF          [  0]   ***   
       INTEGRALS            INTTYP             VMOL     [  1]   ***   
       JODA_PRINT           IJPRNT              4               ***   
       LINDEP_TOL           ILINDP              8               ***   
       LINEQ_CONV           IZTACN          10D-  7           cycles  
       LINEQ_EXPOR          ILMAXD              5               ***   
       LINEQ_MAXCY          ILMAXC             50               ***   
       LINEQ_TYPE           ILTYPE         DIIS         [  1]   ***   
       LOCK_ORBOCC          ILOCOC             OFF      [  0]   ***   
       MEMORY_SIZE          IMEMSZ         250000000           words  
       MEM_UNIT             IMEMU          GB           [  3]   ***   
       MRCC                 IMRCCC         OFF          [  0]   ***   
       MULTIPLICTY          IMULTP              1               ***   
       NEGEVAL              IDIE             ABORT      [  0]   ***   
       NEWNORM              INEWNO         OFF          [  0]   ***   
       NON-HF               INONHF             OFF      [  0]   ***   
       NTOP_TAMP            ITOPT2             15               ***   
       NUC_MODEL            INUCMO         POINT        [  0]   ***   
       OCCUPATION           IOCCU   ESTIMATED BY SCF 
       OPEN-SHELL           IOPEN          SPIN-ORBITAL [  0]   ***   
       ORBITALS             IORBTP           STANDARD   [  0]   ***   
       PARALLEL             IPARAL         ON           [  1]   ***   
       PARA_INT             IPINTS         ON           [  1]   ***   
       PARA_PRINT           IPPRIN              0               ***   
       PERT_ORB             IPTORB         STANDARD     [  0]   ***   
       POINTS               IGRDFD              0               ***   
       PRINT                IPRNT               4               ***   
       PROPS                IPROPS             OFF      [  0]   ***   
       PROP_INTEGR          IINTYP         INTERNAL     [  0]   ***   
       PSI                  IPSI           OFF          [  0]   ***   
       QUARTIC              IQUART         OFF          [  0]   ***   
       RAMAN_INT            IRAMIN         OFF          [  0]   ***   
       RAMAN_ORB            IRAMRE         UNRELAXED    [  0]   ***   
       RDO                  IRDOFM             OFF      [  0]   ***   
       REFERENCE            IREFNC             RHF      [  0]   ***   
       RELATIVIST           IRELAT         OFF          [  0]   ***   
       RELAX_DENS           IRDENS             OFF      [  0]   ***   
       RESET_FLAGS          IRESET             OFF      [  0]   ***   
       RESTART_CC           ICCRES         OFF          [  0]   ***   
       ROT_EVEC             ROTVEC              0               ***   
       SAVE_INTS            ISVINT              ON      [  1]   ***   
       SCALE_ON             ISTCRT              0               ***   
       SCF_CONV             ISCFCV          10D- 14             ***   
       SCF_DAMPING          IDAMP               0             x 10-3  
       SCF_EXPORDE          IRPPOR              6               ***   
       SCF_EXPSTAR          IRPPLS              5               ***   
       SCF_EXTRAPO          IRPP                ON      [  1]   ***   
       SCF_MAXCYC           ISCFCY            ***              cycles 
       SCF_NOSTOP           ISCFST         OFF          [  0]   ***   
       SCF_PRINT            ISCFPR              0               ***   
       SD_FIELD             IFINSD              0             x 10-6  
       SEQUENCE             ISEQUE         OFF          [  0]   ***   
       SOPERT               IPERSO         OFF          [  0]   ***   
       SPHERICAL            IDFGHI             ON       [  1]   ***   
       SPINORBIT            ISOCAL         OFF          [  0]   ***   
       SPINROTATIO          ISRCON         OFF          [  0]   ***   
       SPIN_FLIP            ISPFLP         OFF          [  0]   ***   
       SPIN_ORBIT           ISPORB         OFF          [  0]   ***   
       SPIN_SCAL            ISCSMP         OFF          [  0]   ***   
       SUBGROUP             ISUBGP         DEFAULT      [  0]   ***   
       SUBGRPAXIS           ISBXYZ         X            [  0]   ***   
       SYMMETRY             ISYM             ON         [  0]   ***   
       SYM_CHECK            ISYMCK         OVERRIDE     [  1]   ***   
       T3_EXTRAPOL          IT3EXT         ON           [  1]   ***   
       TAMP_SUM             IEVERY              5               ***   
       TESTSUITE            ITESTS         OFF          [  0]   ***   
       THERMOCH             ITHERM         OFF          [  0]   ***   
       TOL_CHOLESK          ITOLCH          10D-  4             ***   
       TRANGRAD             IRESRM         OFF          [  0]   ***   
       TRANS_INV            ITRAIN         USE          [  0]   ***   
       TREAT_PERT           ITREAT         SIMULTANEOUS [  0]   ***   
       UIJ_THRESHO          IUIJTH              1               ***   
       UNITS                IUNITS         BOHR         [  1]   ***   
       UNOS                 IUNOS          OFF          [  0]   ***   
       UPDATE_HESS          IHUPDT         ON           [  1]   ***   
       VIBPHASE             ISETPH         STANDARD     [  0]   ***   
       VIBRATION            IVIB              NO        [  0]   ***   
       VIB_ALGORIT          IGEALG         STANDARD     [  0]   ***   
       VNATORB              IVNORB         OFF          [  0]   ***   
       VTRAN                IVTRAN         FULL/PARTIAL [  0]   ***   
       XFIELD               IXEFLD              0             x 10-6  
       XFORM_TOL            IXFTOL          10D- 18             ***   
       YFIELD               IYEFLD              0             x 10-6  
       ZFIELD               IZEFLD              0             x 10-6  
    -------------------------------------------------------------------
   2 entries found in Z-matrix 
   Job Title : TITLE                                                                           
 Variable names read by FETCHZ
  1           
  2           
  3           
  4 R         
  5           
  6           
 Atomic symbols read by FETCHZ
  1 Li   
  2 F    
 Connectivity matrix read by FETCHZ
  1   0
  2   0
  3   0
  4   1
  5   0
  6   0
   There are  1 unique internal coordinates.
   Of these,  0 will be optimized.
   User supplied Z-matrix: 
--------------------------------------------------------------------------------
       SYMBOL    BOND      LENGTH    ANGLE     ANGLE     DIHED     ANGLE
                  TO      (ANGST)    WRT      (DEG)      WRT      (DEG)
--------------------------------------------------------------------------------
        Li   
        F          1         R    
                  *Initial values for internal coordinates* 
                      Name             Value
                        R               2.9553426863
--------------------------------------------------------------------------------
  1  LI         3     7.01600
  2  F          9    18.99840
    7.0160030000
   18.9984032200
 After translation to center of mass coordinates 
        0.000000000000    0.000000000000   -2.158296119957
        0.000000000000    0.000000000000    0.797046566343
  Inertia tensor (amu*bohr**2)
   44.75161    0.00000    0.00000
    0.00000   44.75161    0.00000
    0.00000    0.00000    0.00000
    Inertia tensor:
       44.751607780849    0.000000000000    0.000000000000
        0.000000000000   44.751607780849    0.000000000000
        0.000000000000    0.000000000000    0.000000000000
    Principal axis orientation for molecular system: 
       -0.000000000000    0.000000000000    2.158296119957
        0.000000000000    0.000000000000   -0.797046566343
    Diagonalized inertia tensor:
       44.751607780849    0.000000000000    0.000000000000
        0.000000000000   44.751607780849    0.000000000000
        0.000000000000    0.000000000000    0.000000000000
    Eigenvectors of inertia tensor: 
        1.000000000000    0.000000000000    0.000000000000
        0.000000000000    1.000000000000    0.000000000000
        0.000000000000    0.000000000000   -1.000000000000
 factor:   60.1997200000000     
   Rotational constants (in cm-1): 
          1.3451968093             1.3451968093
   Rotational constants (in MHz): 
      40327.9914466518         40327.9914466518
  @SYMMETRY-I, Handedness of inertial frame:-1.00000
  @SYMMETRY-I, Sense of inertial frame y-axis will be changed.
  @SYMMETRY-I, The symmetry group is 2-fold degenerate.
  @SYMMETRY-I, The molecule belongs to a point group with doubly degenerate representations.
  @SYMMETRY-I, The molecule is linear.
   Principal axis orientation for molecule:
       -0.000000000000    0.000000000000    2.158296119957
        0.000000000000    0.000000000000   -0.797046566343
   Rotation about  3 is a valid symmetry operation 
   Reflection in plane  2 is a valid symmetry operation.
   Reflection in plane  1 is a valid symmetry operation.
  Symmetry bits:    3   4   0
********************************************************************************
   The full molecular point group is CXv .
   The largest Abelian subgroup of the full molecular point group is C2v .
   The computational point group is C2v .
********************************************************************************
--------------------------------------------------------------------------------
   Analysis of internal coordinates specified by Z-matrix 
--------------------------------------------------------------------------------
   *The nuclear repulsion energy is    9.135996351679673 a.u.
   *There is   1 degree of freedom within the tot. symm. molecular subspace.
   *Z-matrix requests optimization of   0 coordinates.
   *The optimization is constrained.
   *The following   1 parameters can have non-zero 
    derivatives within the totally symmetric subspace:
             R    [ 1]
   *The following   0 parameters are to be optimized:

   *The following coordinates must be varied in an  unconstrained optimization.
             R    [ 1]
--------------------------------------------------------------------------------
 ----------------------------------------------------------------
 Z-matrix   Atomic            Coordinates (in bohr)
  Symbol    Number           X              Y              Z
 ----------------------------------------------------------------
     LI        3        -0.00000000     0.00000000     2.15829612
     F         9         0.00000000     0.00000000    -0.79704657
 ----------------------------------------------------------------
   Interatomic distance matrix (Angstroms) 
 
                 LI            F    
                [ 1]        [ 2]
  LI   [ 1]     0.00000
  F    [ 2]     1.56390     0.00000
  Inertia tensor (amu*bohr**2)
   44.75161    0.00000    0.00000
    0.00000   44.75161    0.00000
    0.00000    0.00000    0.00000
   Rotational constants (in cm-1): 
          1.3451968093             0.0000000000
   Rotational constants (in MHz): 
      40327.9914466518             0.0000000000
  @GTFLGS-W, Keyword #GEOM not known and is ignored.
  @GTFLGS-W, Keyword #COORD not known and is ignored.
  @GTFLGS-W, Keyword #CC_PROG not known and is ignored.
  @GTFLGS-W, Keyword #FROZEN_CORE not known and is ignored.
  @GTFLGS-W, Keyword #CONTRACTION not known and is ignored.
  @GTFLGS-W, Keyword #EXCITE not known and is ignored.
  @GTFLGS-W, Keyword #ESTATE_CONV not known and is ignored.
  @GTFLGS-W, Keyword #ESTATE_SYM not known and is ignored.
  @GTFLGS-W, Keyword #SCF_DAMPING not known and is ignored.
  @GTFLGS-W, Keyword #SYMMETRY not known and is ignored.
  @GTFLGS-W, Keyword #HFSTABILITY not known and is ignored.
  @GTFLGS-W, Keyword #OCCUPATION not known and is ignored.
  There are   50 basis functions.
 @GEOPT-W, Archive file not created for single-point calculation.
  @CHECKOUT-I, Total execution time (CPU/WALL):        0.49/       1.60 seconds.
--executable xjoda finished with status     0 in        2.54 seconds (walltime).
 --invoking executable--
/home/nike/cfour_v2.00beta/cfour_v2.00beta/bin/xvmol
 Serial version of molecule started
********************************************************************************
                    Input from MOL file
********************************************************************************
INTGRL        1    0    1    0    0    0    0    0    0                         
         *** CFOUR Program System (Release V0.1) ***                            
TITLE                                                                           
    2    2 X  Y       0.10E-08              0    0                              
   9999.00      3.00                                                            
          3.00000000    1    3    1    1    1                                   
LI#1  -0.000000000000000   0.000000000000000   2.158296119956774                
   11    5                                                                      
   6269.26280100000       2.054096882600000E-004  0.000000000000000E+000        
  0.000000000000000E+000  0.000000000000000E+000  0.000000000000000E+000        
   940.316124310000       1.591655408900000E-003  0.000000000000000E+000        
  0.000000000000000E+000  0.000000000000000E+000  0.000000000000000E+000        
   214.221075280000       8.286982970700000E-003  0.000000000000000E+000        
  0.000000000000000E+000  0.000000000000000E+000  0.000000000000000E+000        
   60.7598401840000       3.385637424900000E-002  0.000000000000000E+000        
  0.000000000000000E+000  0.000000000000000E+000  0.000000000000000E+000        
   19.9151520320000       0.111032258760000       0.000000000000000E+000        
  0.000000000000000E+000  0.000000000000000E+000  0.000000000000000E+000        
   7.31715097970000       0.274493833290000       0.000000000000000E+000        
  0.000000000000000E+000  0.000000000000000E+000  0.000000000000000E+000        
   2.97246742160000       0.000000000000000E+000  0.237924564110000             
  0.000000000000000E+000  0.000000000000000E+000  0.000000000000000E+000        
   1.26398523140000       0.000000000000000E+000  0.307654119240000             
  0.000000000000000E+000  0.000000000000000E+000  0.000000000000000E+000        
  0.514274899530000       0.000000000000000E+000  0.000000000000000E+000        
   1.00000000000000       0.000000000000000E+000  0.000000000000000E+000        
  7.703088590100000E-002  0.000000000000000E+000  0.000000000000000E+000        
  0.000000000000000E+000   1.00000000000000       0.000000000000000E+000        
  2.893889643300000E-002  0.000000000000000E+000  0.000000000000000E+000        
  0.000000000000000E+000  0.000000000000000E+000   1.00000000000000             
    3    3                                                                      
  0.400000000000000        1.00000000000000       0.000000000000000E+000        
  0.000000000000000E+000                                                        
  6.000000000000000E-002  0.000000000000000E+000   1.00000000000000             
  0.000000000000000E+000                                                        
   3.32700000000000       0.000000000000000E+000  0.000000000000000E+000        
   1.00000000000000                                                             
    1    1                                                                      
  0.131900000000000        1.00000000000000                                     
          9.00000000    1    4    1    1    1    1                              
F #2   0.000000000000000   0.000000000000000  -0.797046566343226                
   11    5                                                                      
   35479.1004410000       2.154501488800000E-004  0.000000000000000E+000        
  0.000000000000000E+000  0.000000000000000E+000  0.000000000000000E+000        
   5318.47289830000       1.670068652700000E-003  0.000000000000000E+000        
  0.000000000000000E+000  0.000000000000000E+000  0.000000000000000E+000        
   1210.48109750000       8.673321147599999E-003  0.000000000000000E+000        
  0.000000000000000E+000  0.000000000000000E+000  0.000000000000000E+000        
   342.855181400000       3.504993317500000E-002  0.000000000000000E+000        
  0.000000000000000E+000  0.000000000000000E+000  0.000000000000000E+000        
   112.019431810000       0.111653201330000       0.000000000000000E+000        
  0.000000000000000E+000  0.000000000000000E+000  0.000000000000000E+000        
   40.7147402480000       0.259885066470000       0.000000000000000E+000        
  0.000000000000000E+000  0.000000000000000E+000  0.000000000000000E+000        
   16.0396781110000       0.000000000000000E+000  0.394229668800000             
  0.000000000000000E+000  0.000000000000000E+000  0.000000000000000E+000        
   6.50381867400000       0.000000000000000E+000  0.249982385510000             
  0.000000000000000E+000  0.000000000000000E+000  0.000000000000000E+000        
   1.54404775090000       0.000000000000000E+000  0.000000000000000E+000        
   1.00000000000000       0.000000000000000E+000  0.000000000000000E+000        
  0.612234528620000       0.000000000000000E+000  0.000000000000000E+000        
  0.000000000000000E+000   1.00000000000000       0.000000000000000E+000        
  0.240279796980000       0.000000000000000E+000  0.000000000000000E+000        
  0.000000000000000E+000  0.000000000000000E+000   1.00000000000000             
    6    3                                                                      
   80.2339004830000       6.368599913400000E-003  0.000000000000000E+000        
  0.000000000000000E+000                                                        
   18.5940107430000       4.430314353000000E-002  0.000000000000000E+000        
  0.000000000000000E+000                                                        
   5.68679026530000       0.168672487080000       0.000000000000000E+000        
  0.000000000000000E+000                                                        
   1.95110062940000       0.361663462550000       0.000000000000000E+000        
  0.000000000000000E+000                                                        
  0.669702112980000       0.000000000000000E+000  0.442029014910000             
  0.000000000000000E+000                                                        
  0.216513004100000       0.000000000000000E+000  0.000000000000000E+000        
  0.243198757300000                                                             
    2    2                                                                      
   3.10700000000000        1.00000000000000       0.000000000000000E+000        
  0.855000000000000       0.000000000000000E+000   1.00000000000000             
    1    1                                                                      
   1.91700000000000        1.00000000000000                                     
FINISH                                                                          
 
********************************************************************************
 One- and two-electron integrals over symmetry-adapted AOs are calculated.

  Spherical harmonics are used.
  
   2 types of atoms
   2 symmetry operations

   Reflection in the YZ-plane
   Reflection in the XZ-plane
  
  Integrals less than  0.10E-13 are neglected.

  Atomic type number  1 :
  -----------------------

    Nuclear charge:                        3
    number of symmetry independent atoms:  1
    highest orbital type:                  d

      1 groups of CGTOs of s type
      1 groups of CGTOs of p type
      1 groups of CGTOs of d type

    nuclear coordinates (in a.u.) are :

    LI#1        0.000000000000000        0.000000000000000        2.158296119956774
  
   Basis function not normalized: 
   Center (as ordered in MOL file):   1
   Angular Momentum type          : s
   Offset within angular momentum :  1
   <chi|chi>                      :    2.5221737246
   Basis function not normalized: 
   Center (as ordered in MOL file):   1
   Angular Momentum type          : s
   Offset within angular momentum :  2
   <chi|chi>                      :    1.8918202518
  Atomic type number  2 :
  -----------------------

    Nuclear charge:                        9
    number of symmetry independent atoms:  1
    highest orbital type:                  f

      1 groups of CGTOs of s type
      1 groups of CGTOs of p type
      1 groups of CGTOs of d type
      1 groups of CGTOs of f type

    nuclear coordinates (in a.u.) are :

    F #2        0.000000000000000        0.000000000000000       -0.797046566343226
  
   Basis function not normalized: 
   Center (as ordered in MOL file):   2
   Angular Momentum type          : s
   Offset within angular momentum :  1
   <chi|chi>                      :    2.6077954182
   Basis function not normalized: 
   Center (as ordered in MOL file):   2
   Angular Momentum type          : s
   Offset within angular momentum :  2
   <chi|chi>                      :    1.6055721547
   Basis function not normalized: 
   Center (as ordered in MOL file):   2
   Angular Momentum type          : p
   Offset within angular momentum :  1
   <chi|chi>                      :    1.9347023376
   Basis function not normalized: 
   Center (as ordered in MOL file):   2
   Angular Momentum type          : p
   Offset within angular momentum :  2
   <chi|chi>                      :    2.2622949315
   Basis function not normalized: 
   Center (as ordered in MOL file):   2
   Angular Momentum type          : p
   Offset within angular momentum :  3
   <chi|chi>                      :    4.1118631160
   Internuclear distances (A) :

     for atom LI#1 (coordinates :   0.00000   0.00000   2.15830)

     F #2   1     distance is  1.564

     for atom F #2 (coordinates :   0.00000   0.00000  -0.79705)


   Group multiplication table :

         1   2   3   4
         2   1   4   3
         3   4   1   2
         4   3   2   1

   Gaussian basis information :

   atom                 exponent      coefficients

 LI#1  1    S   
+                 1    6269.262801   0.0002054   0.0000000   0.0000000   0.0000000   0.0000000
                  2     940.316124   0.0015917   0.0000000   0.0000000   0.0000000   0.0000000
                  3     214.221075   0.0082870   0.0000000   0.0000000   0.0000000   0.0000000
                  4      60.759840   0.0338564   0.0000000   0.0000000   0.0000000   0.0000000
                  5      19.915152   0.1110323   0.0000000   0.0000000   0.0000000   0.0000000
                  6       7.317151   0.2744938   0.0000000   0.0000000   0.0000000   0.0000000
                  7       2.972467   0.0000000   0.2379246   0.0000000   0.0000000   0.0000000
                  8       1.263985   0.0000000   0.3076541   0.0000000   0.0000000   0.0000000
                  9       0.514275   0.0000000   0.0000000   1.0000000   0.0000000   0.0000000
                 10       0.077031   0.0000000   0.0000000   0.0000000   1.0000000   0.0000000
                 11       0.028939   0.0000000   0.0000000   0.0000000   0.0000000   1.0000000

 LI#1  1    X   
+                12       0.400000   1.0000000   0.0000000   0.0000000
                 13       0.060000   0.0000000   1.0000000   0.0000000
                 14       3.327000   0.0000000   0.0000000   1.0000000

 LI#1  1    Y   
+                15       0.400000   1.0000000   0.0000000   0.0000000
                 16       0.060000   0.0000000   1.0000000   0.0000000
                 17       3.327000   0.0000000   0.0000000   1.0000000

 LI#1  1    Z   
+                18       0.400000   1.0000000   0.0000000   0.0000000
                 19       0.060000   0.0000000   1.0000000   0.0000000
                 20       3.327000   0.0000000   0.0000000   1.0000000

 LI#1  1    XX  
+                21       0.131900   1.0000000

 LI#1  1    XY  
+                22       0.131900   1.0000000

 LI#1  1    XZ  
+                23       0.131900   1.0000000

 LI#1  1    YY  
+                24       0.131900   1.0000000

 LI#1  1    YZ  
+                25       0.131900   1.0000000

 LI#1  1    ZZ  
+                26       0.131900   1.0000000

 F #2  1    S   
+                27   35479.100441   0.0002155   0.0000000   0.0000000   0.0000000   0.0000000
                 28    5318.472898   0.0016701   0.0000000   0.0000000   0.0000000   0.0000000
                 29    1210.481098   0.0086733   0.0000000   0.0000000   0.0000000   0.0000000
                 30     342.855181   0.0350499   0.0000000   0.0000000   0.0000000   0.0000000
                 31     112.019432   0.1116532   0.0000000   0.0000000   0.0000000   0.0000000
                 32      40.714740   0.2598851   0.0000000   0.0000000   0.0000000   0.0000000
                 33      16.039678   0.0000000   0.3942297   0.0000000   0.0000000   0.0000000
                 34       6.503819   0.0000000   0.2499824   0.0000000   0.0000000   0.0000000
                 35       1.544048   0.0000000   0.0000000   1.0000000   0.0000000   0.0000000
                 36       0.612235   0.0000000   0.0000000   0.0000000   1.0000000   0.0000000
                 37       0.240280   0.0000000   0.0000000   0.0000000   0.0000000   1.0000000

 F #2  1    X   
+                38      80.233900   0.0063686   0.0000000   0.0000000
                 39      18.594011   0.0443031   0.0000000   0.0000000
                 40       5.686790   0.1686725   0.0000000   0.0000000
                 41       1.951101   0.3616635   0.0000000   0.0000000
                 42       0.669702   0.0000000   0.4420290   0.0000000
                 43       0.216513   0.0000000   0.0000000   0.2431988

 F #2  1    Y   
+                44      80.233900   0.0063686   0.0000000   0.0000000
                 45      18.594011   0.0443031   0.0000000   0.0000000
                 46       5.686790   0.1686725   0.0000000   0.0000000
                 47       1.951101   0.3616635   0.0000000   0.0000000
                 48       0.669702   0.0000000   0.4420290   0.0000000
                 49       0.216513   0.0000000   0.0000000   0.2431988

 F #2  1    Z   
+                50      80.233900   0.0063686   0.0000000   0.0000000
                 51      18.594011   0.0443031   0.0000000   0.0000000
                 52       5.686790   0.1686725   0.0000000   0.0000000
                 53       1.951101   0.3616635   0.0000000   0.0000000
                 54       0.669702   0.0000000   0.4420290   0.0000000
                 55       0.216513   0.0000000   0.0000000   0.2431988

 F #2  1    XX  
+                56       3.107000   1.0000000   0.0000000
                 57       0.855000   0.0000000   1.0000000

 F #2  1    XY  
+                58       3.107000   1.0000000   0.0000000
                 59       0.855000   0.0000000   1.0000000

 F #2  1    XZ  
+                60       3.107000   1.0000000   0.0000000
                 61       0.855000   0.0000000   1.0000000

 F #2  1    YY  
+                62       3.107000   1.0000000   0.0000000
                 63       0.855000   0.0000000   1.0000000

 F #2  1    YZ  
+                64       3.107000   1.0000000   0.0000000
                 65       0.855000   0.0000000   1.0000000

 F #2  1    ZZ  
+                66       3.107000   1.0000000   0.0000000
                 67       0.855000   0.0000000   1.0000000

 F #2  1    F300
+                68       1.917000   1.0000000

 F #2  1    F210
+                69       1.917000   1.0000000

 F #2  1    F201
+                70       1.917000   1.0000000

 F #2  1    F120
+                71       1.917000   1.0000000

 F #2  1    F111
+                72       1.917000   1.0000000

 F #2  1    F102
+                73       1.917000   1.0000000

 F #2  1    F030
+                74       1.917000   1.0000000

 F #2  1    F021
+                75       1.917000   1.0000000

 F #2  1    F012
+                76       1.917000   1.0000000

 F #2  1    F003
+                77       1.917000   1.0000000
 56 50
  1  2  3  4  5  6  7  8  9 10*** 11 12 13 14 15 16 17 18 19 20 21 22******
 23 24*** 25 26 27 28 29 30 31 32 33 34 35*** 36 37 38 39 40 41 42 43 44 45
 46*** 47 48 49 50
1

             SYMMETRY TRANSFORMATION INFO
             50 SYMMETRY ADAPTED BASIS FUNCTIONS 


          irreducible representation number 1

    1    1  LI#1     1s     1   1   1.0
    2    2  LI#1     1s     1   2   1.0
    3    3  LI#1     1s     1   3   1.0
    4    4  LI#1     1s     1   4   1.0
    5    5  LI#1     1s     1   5   1.0
    6    6  LI#1     2pz    1  12   1.0
    7    7  LI#1     2pz    1  13   1.0
    8    8  LI#1     2pz    1  14   1.0
    9    9  LI#1     3d2-   3  15  -1.0  18  -1.0  20   2.0
   10   10  LI#1     3d1+   2  15   1.0  18  -1.0
   11   11  F #2     1s     1  21   1.0
   12   12  F #2     1s     1  22   1.0
   13   13  F #2     1s     1  23   1.0
   14   14  F #2     1s     1  24   1.0
   15   15  F #2     1s     1  25   1.0
   16   16  F #2     2pz    1  32   1.0
   17   17  F #2     2pz    1  33   1.0
   18   18  F #2     2pz    1  34   1.0
   19   19  F #2     3d2-   3  35  -1.0  41  -1.0  45   2.0
   20   20  F #2     3d2-   3  36  -1.0  42  -1.0  46   2.0
   21   21  F #2     3d1+   2  35   1.0  41  -1.0
   22   22  F #2     3d1+   2  36   1.0  42  -1.0
   23   23  F #2     4f1-   3  49  -3.0  54  -3.0  56   2.0
   24   24  F #2     4f3+   2  49   1.0  54  -1.0


          irreducible representation number 2

   25    1  LI#1     2px    1   6   1.0
   26    2  LI#1     2px    1   7   1.0
   27    3  LI#1     2px    1   8   1.0
   28    4  LI#1     3d0    1  17   1.0
   29    5  F #2     2px    1  26   1.0
   30    6  F #2     2px    1  27   1.0
   31    7  F #2     2px    1  28   1.0
   32    8  F #2     3d0    1  39   1.0
   33    9  F #2     3d0    1  40   1.0
   34   10  F #2     4f3-   3  47  -1.0  50  -1.0  52   4.0
   35   11  F #2     4f0    2  47   1.0  50  -3.0


          irreducible representation number 3

   36    1  LI#1     2py    1   9   1.0
   37    2  LI#1     2py    1  10   1.0
   38    3  LI#1     2py    1  11   1.0
   39    4  LI#1     3d2+   1  19   1.0
   40    5  F #2     2py    1  29   1.0
   41    6  F #2     2py    1  30   1.0
   42    7  F #2     2py    1  31   1.0
   43    8  F #2     3d2+   1  43   1.0
   44    9  F #2     3d2+   1  44   1.0
   45   10  F #2     4f2-   3  48  -1.0  53  -1.0  55   4.0
   46   11  F #2     4f2+   2  48   3.0  53  -1.0


          irreducible representation number 4

   47    1  LI#1     3d1-   1  16   1.0
   48    2  F #2     3d1-   1  37   1.0
   49    3  F #2     3d1-   1  38   1.0
   50    4  F #2     4f1+   1  51   1.0
  Nuclear repulsion energy :    9.1359963517 a.u.
  required memory for a1 array                5029908  words 
  required memory for a2 array                2103164  words 
 @GETMEM-I,  Allocated      69 MB of main memory.
  @MOLECU-I, One electron integrals (CPU/WALL):        0.02/       0.03 seconds.
  @TWOEL-I,      28751 integrals of symmetry type  I I I I
  @TWOEL-I,      67915 integrals of symmetry type  I J I J
  @TWOEL-I,      39098 integrals of symmetry type  I I J J
  @TWOEL-I,      29851 integrals of symmetry type  I J K L
  @TWOEL-I, Total number of 2-e integrals     165615.
  @MOLECU-I, Two electron integrals (CPU/WALL):        0.13/       0.18 seconds.
  @CHECKOUT-I, Total execution time (CPU/WALL):        0.39/       0.99 seconds.
--executable xvmol finished with status     0 in        1.08 seconds (walltime).
 --invoking executable--
/home/nike/cfour_v2.00beta/cfour_v2.00beta/bin/xvmol2ja
 @GETMEM-I,  Allocated    1907 MB of main memory.
  @CHECKOUT-I, Total execution time (CPU/WALL):        0.02/       0.02 seconds.
--executable xvmol2ja finished with status     0 in        0.11 seconds (walltime).
 --invoking executable--
/home/nike/cfour_v2.00beta/cfour_v2.00beta/bin/xvscf
  There are   50 functions in the AO basis.

  There are 4 irreducible representations.

       Irrep        # of functions
         1                 24
         2                 11
         3                 11
         4                  4


  Parameters for SCF calculation: 
        SCF reference function:  RHF  
  Maximum number of iterations: ****
     Full symmetry point group: CXv 
     Computational point group: C2v 
        Initial density matrix: MOREAD                 
     SCF convergence tolerance: 10**(-14)
  DIIS convergence acceleration:  ON
          Latest start for DIIS:   5
                     DIIS order:   6

  Memory information:     145424 words required.
  Fock matrices are constructed from AO integral file.
 @GETMEM-I,  Allocated       1 MB of main memory.
  Initialization and symmetry analysis required      0.021 seconds.

  @INITGES-I, Occupancies from core Hamiltonian:

          Alpha population by irrep:   4    1    1    0
           Beta population by irrep:   4    1    1    0


 total no. of electrons in initial guess :  0.000000000000000E+000
  --------------------------------------------------------------------
  Iteration         Total Energy            Largest Density Difference
  --------------------------------------------------------------------
       0             9.135996351679673              0.0000000000D+00
   current occupation vector 
     4  1  1  0
     4  1  1  0
  processed                  28751  ao basis integrals from 
                    48  buffers.
  processed                  39098  ao basis integrals from 
                    66  buffers.
  processed                  67915  ao basis integrals from 
                   114  buffers.
       1           -94.778310171899278              0.3091364582D+01
   current occupation vector 
     4  1  1  0
     4  1  1  0
  processed                  28751  ao basis integrals from 
                    48  buffers.
  processed                  39098  ao basis integrals from 
                    66  buffers.
  processed                  67915  ao basis integrals from 
                   114  buffers.
       2           -87.748624374749028              0.4192849331D+01
   current occupation vector 
     4  1  1  0
     4  1  1  0
  processed                  28751  ao basis integrals from 
                    48  buffers.
  processed                  39098  ao basis integrals from 
                    66  buffers.
  processed                  67915  ao basis integrals from 
                   114  buffers.
       3          -101.051214356981234              0.4192847284D+01
   current occupation vector 
     4  1  1  0
     4  1  1  0
  processed                  28751  ao basis integrals from 
                    48  buffers.
  processed                  39098  ao basis integrals from 
                    66  buffers.
  processed                  67915  ao basis integrals from 
                   114  buffers.
       4           -94.473575567075159              0.1897676103D+01
   current occupation vector 
     4  1  1  0
     4  1  1  0
 
 sum over diagonal and offdiagdiagonal of C(T)*S*C for irrep
                     1
  2.964295475749168E-014 -4.721973086050052E-014
 reorthoganalization of MOs is carried out
 sum over diagonal and offdiagdiagonal of C(T)*S*C for irrep
                     1
 -2.220446049250313E-015 -2.625505815128161E-015
 
 sum over diagonal and offdiagdiagonal of C(T)*S*C for irrep
                     2
  4.052314039881821E-014  2.774203779756774E-014
 reorthoganalization of MOs is carried out
 sum over diagonal and offdiagdiagonal of C(T)*S*C for irrep
                     2
 -4.440892098500626E-016 -7.667732040684841E-017
 
 sum over diagonal and offdiagdiagonal of C(T)*S*C for irrep
                     3
 -8.770761894538737E-015 -3.634809404203575E-014
 reorthoganalization of MOs is carried out
 sum over diagonal and offdiagdiagonal of C(T)*S*C for irrep
                     3
 -7.771561172376096E-016  1.548233536450244E-016
 
 sum over diagonal and offdiagdiagonal of C(T)*S*C for irrep
                     4
  3.996802888650564E-015  1.284255057855678E-015
 reorthoganalization of MOs is carried out
 sum over diagonal and offdiagdiagonal of C(T)*S*C for irrep
                     4
 -4.440892098500626E-016  7.672558892936484E-017
  processed                  28751  ao basis integrals from 
                    48  buffers.
  processed                  39098  ao basis integrals from 
                    66  buffers.
  processed                  67915  ao basis integrals from 
                   114  buffers.
       5          -102.465734122660677              0.1897645866D+01
   current occupation vector 
     4  1  1  0
     4  1  1  0
  processed                  28751  ao basis integrals from 
                    48  buffers.
  processed                  39098  ao basis integrals from 
                    66  buffers.
  processed                  67915  ao basis integrals from 
                   114  buffers.
       6          -105.884707829464503              0.6598057524D+00
   current occupation vector 
     4  1  1  0
     4  1  1  0
  processed                  28751  ao basis integrals from 
                    48  buffers.
  processed                  39098  ao basis integrals from 
                    66  buffers.
  processed                  67915  ao basis integrals from 
                   114  buffers.
       7          -106.925533185148225              0.2966758023D+00
   current occupation vector 
     4  1  1  0
     4  1  1  0
  processed                  28751  ao basis integrals from 
                    48  buffers.
  processed                  39098  ao basis integrals from 
                    66  buffers.
  processed                  67915  ao basis integrals from 
                   114  buffers.
       8          -106.985128618636281              0.7877308646D-01
   current occupation vector 
     4  1  1  0
     4  1  1  0
  processed                  28751  ao basis integrals from 
                    48  buffers.
  processed                  39098  ao basis integrals from 
                    66  buffers.
  processed                  67915  ao basis integrals from 
                   114  buffers.
       9          -106.985598438707257              0.7837306965D-02
   current occupation vector 
     4  1  1  0
     4  1  1  0
 
 sum over diagonal and offdiagdiagonal of C(T)*S*C for irrep
                     1
  5.739853037312059E-014 -5.054173052155145E-015
 reorthoganalization of MOs is carried out
 sum over diagonal and offdiagdiagonal of C(T)*S*C for irrep
                     1
  1.665334536937735E-015  4.669880204745257E-015
 
 sum over diagonal and offdiagdiagonal of C(T)*S*C for irrep
                     2
  2.808864252301646E-014 -3.902931612953258E-015
 reorthoganalization of MOs is carried out
 sum over diagonal and offdiagdiagonal of C(T)*S*C for irrep
                     2
 -1.110223024625157E-015 -1.877065487461739E-016
 
 sum over diagonal and offdiagdiagonal of C(T)*S*C for irrep
                     3
 -3.774758283725532E-015  9.081403261128203E-015
 reorthoganalization of MOs is carried out
 sum over diagonal and offdiagdiagonal of C(T)*S*C for irrep
                     3
  5.551115123125783E-016 -9.984016240394906E-016
 
 sum over diagonal and offdiagdiagonal of C(T)*S*C for irrep
                     4
 -4.884981308350689E-015 -3.203444287218992E-015
 reorthoganalization of MOs is carried out
 sum over diagonal and offdiagdiagonal of C(T)*S*C for irrep
                     4
 -4.440892098500626E-016 -3.269718615135454E-017
  processed                  28751  ao basis integrals from 
                    48  buffers.
  processed                  39098  ao basis integrals from 
                    66  buffers.
  processed                  67915  ao basis integrals from 
                   114  buffers.
      10          -106.985636368148448              0.2618532757D-02
   current occupation vector 
     4  1  1  0
     4  1  1  0
  processed                  28751  ao basis integrals from 
                    48  buffers.
  processed                  39098  ao basis integrals from 
                    66  buffers.
  processed                  67915  ao basis integrals from 
                   114  buffers.
      11          -106.985638810909904              0.7624679157D-03
   current occupation vector 
     4  1  1  0
     4  1  1  0
  processed                  28751  ao basis integrals from 
                    48  buffers.
  processed                  39098  ao basis integrals from 
                    66  buffers.
  processed                  67915  ao basis integrals from 
                   114  buffers.
      12          -106.985638874103017              0.1318976220D-03
   current occupation vector 
     4  1  1  0
     4  1  1  0
  processed                  28751  ao basis integrals from 
                    48  buffers.
  processed                  39098  ao basis integrals from 
                    66  buffers.
  processed                  67915  ao basis integrals from 
                   114  buffers.
      13          -106.985638874940577              0.1112369486D-04
   current occupation vector 
     4  1  1  0
     4  1  1  0
  processed                  28751  ao basis integrals from 
                    48  buffers.
  processed                  39098  ao basis integrals from 
                    66  buffers.
  processed                  67915  ao basis integrals from 
                   114  buffers.
      14          -106.985638875021749              0.4817515227D-05
   current occupation vector 
     4  1  1  0
     4  1  1  0
 
 sum over diagonal and offdiagdiagonal of C(T)*S*C for irrep
                     1
  5.706546346573305E-014 -1.630279693822251E-014
 reorthoganalization of MOs is carried out
 sum over diagonal and offdiagdiagonal of C(T)*S*C for irrep
                     1
  1.776356839400250E-015  5.218967223372803E-016
 
 sum over diagonal and offdiagdiagonal of C(T)*S*C for irrep
                     2
  3.552713678800501E-014  4.129436462755981E-016
 reorthoganalization of MOs is carried out
 sum over diagonal and offdiagdiagonal of C(T)*S*C for irrep
                     2
  6.661338147750939E-016  3.203491645097257E-016
 
 sum over diagonal and offdiagdiagonal of C(T)*S*C for irrep
                     3
  9.880984919163893E-015  3.600379358627972E-015
 reorthoganalization of MOs is carried out
 sum over diagonal and offdiagdiagonal of C(T)*S*C for irrep
                     3
  4.440892098500626E-016 -5.551890495849876E-016
 
 sum over diagonal and offdiagdiagonal of C(T)*S*C for irrep
                     4
  6.217248937900877E-015 -2.927339941984996E-015
 reorthoganalization of MOs is carried out
 sum over diagonal and offdiagdiagonal of C(T)*S*C for irrep
                     4
  6.661338147750939E-016  2.161604661193459E-016
  processed                  28751  ao basis integrals from 
                    48  buffers.
  processed                  39098  ao basis integrals from 
                    66  buffers.
  processed                  67915  ao basis integrals from 
                   114  buffers.
      15          -106.985638875024108              0.9680897798D-06
   current occupation vector 
     4  1  1  0
     4  1  1  0
  processed                  28751  ao basis integrals from 
                    48  buffers.
  processed                  39098  ao basis integrals from 
                    66  buffers.
  processed                  67915  ao basis integrals from 
                   114  buffers.
      16          -106.985638875024222              0.4021206161D-06
   current occupation vector 
     4  1  1  0
     4  1  1  0
  processed                  28751  ao basis integrals from 
                    48  buffers.
  processed                  39098  ao basis integrals from 
                    66  buffers.
  processed                  67915  ao basis integrals from 
                   114  buffers.
      17          -106.985638875023852              0.6866084654D-07
   current occupation vector 
     4  1  1  0
     4  1  1  0
  processed                  28751  ao basis integrals from 
                    48  buffers.
  processed                  39098  ao basis integrals from 
                    66  buffers.
  processed                  67915  ao basis integrals from 
                   114  buffers.
      18          -106.985638875024051              0.8166449895D-08
   current occupation vector 
     4  1  1  0
     4  1  1  0
  processed                  28751  ao basis integrals from 
                    48  buffers.
  processed                  39098  ao basis integrals from 
                    66  buffers.
  processed                  67915  ao basis integrals from 
                   114  buffers.
      19          -106.985638875024250              0.1294992572D-08
   current occupation vector 
     4  1  1  0
     4  1  1  0
 
 sum over diagonal and offdiagdiagonal of C(T)*S*C for irrep
                     1
  8.637535131583718E-014 -7.672478765814163E-015
 reorthoganalization of MOs is carried out
 sum over diagonal and offdiagdiagonal of C(T)*S*C for irrep
                     1
  2.553512956637860E-015 -4.123819078731282E-015
 
 sum over diagonal and offdiagdiagonal of C(T)*S*C for irrep
                     2
  2.509104035652854E-014 -5.723358177139889E-016
 reorthoganalization of MOs is carried out
 sum over diagonal and offdiagdiagonal of C(T)*S*C for irrep
                     2
 -4.440892098500626E-016  8.650957579006609E-016
 
 sum over diagonal and offdiagdiagonal of C(T)*S*C for irrep
                     3
  1.187938636348917E-014  5.262324367965553E-015
 reorthoganalization of MOs is carried out
 sum over diagonal and offdiagdiagonal of C(T)*S*C for irrep
                     3
 -8.881784197001252E-016  1.162436328700859E-016
 
 sum over diagonal and offdiagdiagonal of C(T)*S*C for irrep
                     4
  2.220446049250313E-015 -4.794451737445043E-015
 reorthoganalization of MOs is carried out
 sum over diagonal and offdiagdiagonal of C(T)*S*C for irrep
                     4
 -3.330669073875470E-016 -4.067436735292829E-017
  processed                  28751  ao basis integrals from 
                    48  buffers.
  processed                  39098  ao basis integrals from 
                    66  buffers.
  processed                  67915  ao basis integrals from 
                   114  buffers.
      20          -106.985638875024506              0.5402693223D-09
   current occupation vector 
     4  1  1  0
     4  1  1  0
  processed                  28751  ao basis integrals from 
                    48  buffers.
  processed                  39098  ao basis integrals from 
                    66  buffers.
  processed                  67915  ao basis integrals from 
                   114  buffers.
      21          -106.985638875024165              0.4020220268D-10
   current occupation vector 
     4  1  1  0
     4  1  1  0
  processed                  28751  ao basis integrals from 
                    48  buffers.
  processed                  39098  ao basis integrals from 
                    66  buffers.
  processed                  67915  ao basis integrals from 
                   114  buffers.
      22          -106.985638875024108              0.4911983147D-11
   current occupation vector 
     4  1  1  0
     4  1  1  0
  processed                  28751  ao basis integrals from 
                    48  buffers.
  processed                  39098  ao basis integrals from 
                    66  buffers.
  processed                  67915  ao basis integrals from 
                   114  buffers.
      23          -106.985638875024222              0.8022194020D-12
   current occupation vector 
     4  1  1  0
     4  1  1  0
  processed                  28751  ao basis integrals from 
                    48  buffers.
  processed                  39098  ao basis integrals from 
                    66  buffers.
  processed                  67915  ao basis integrals from 
                   114  buffers.
      24          -106.985638875024165              0.2521316489D-12
   current occupation vector 
     4  1  1  0
     4  1  1  0
 
 sum over diagonal and offdiagdiagonal of C(T)*S*C for irrep
                     1
  3.930189507173054E-014 -1.626643584505807E-014
 reorthoganalization of MOs is carried out
 sum over diagonal and offdiagdiagonal of C(T)*S*C for irrep
                     1
 -8.881784197001252E-016  5.247814433403999E-015
 
 sum over diagonal and offdiagdiagonal of C(T)*S*C for irrep
                     2
  2.919886554764162E-014  1.926696971222482E-015
 reorthoganalization of MOs is carried out
 sum over diagonal and offdiagdiagonal of C(T)*S*C for irrep
                     2
 -2.220446049250313E-015 -1.024705542764722E-017
 
 sum over diagonal and offdiagdiagonal of C(T)*S*C for irrep
                     3
 -2.220446049250313E-015  6.027216204436951E-015
 reorthoganalization of MOs is carried out
 sum over diagonal and offdiagdiagonal of C(T)*S*C for irrep
                     3
 -6.661338147750939E-016  6.769620870547511E-016
 
 sum over diagonal and offdiagdiagonal of C(T)*S*C for irrep
                     4
  9.992007221626409E-016 -3.811234288406082E-015
 reorthoganalization of MOs is carried out
 sum over diagonal and offdiagdiagonal of C(T)*S*C for irrep
                     4
 -1.110223024625157E-016 -5.026631879935406E-018
  processed                  28751  ao basis integrals from 
                    48  buffers.
  processed                  39098  ao basis integrals from 
                    66  buffers.
  processed                  67915  ao basis integrals from 
                   114  buffers.
      25          -106.985638875024534              0.8615330671D-13
   current occupation vector 
     4  1  1  0
     4  1  1  0
  processed                  28751  ao basis integrals from 
                    48  buffers.
  processed                  39098  ao basis integrals from 
                    66  buffers.
  processed                  67915  ao basis integrals from 
                   114  buffers.
      26          -106.985638875024222              0.1837419106D-13
   current occupation vector 
     4  1  1  0
     4  1  1  0
  processed                  28751  ao basis integrals from 
                    48  buffers.
  processed                  39098  ao basis integrals from 
                    66  buffers.
  processed                  67915  ao basis integrals from 
                   114  buffers.
      27          -106.985638875024136              0.1024527685D-13
   current occupation vector 
     4  1  1  0
     4  1  1  0

  SCF has converged.

 Density matrix saved to file den.dat
 total electron number:   12.0000000000000     
  processed                  28751  ao basis integrals from 
                    48  buffers.
  processed                  39098  ao basis integrals from 
                    66  buffers.
  processed                  67915  ao basis integrals from 
                   114  buffers.
     E(SCF)=      -106.985638875024080              0.7188694084D-14


  ORBITAL EIGENVECTORS

  SYMMETRY BLOCK 1 (ALPHA)

                          MO #  1       MO #  2       MO #  3       MO #  4

    BASIS/ORB E          -26.10803      -2.43629      -1.37504      -0.49742
                        ----------    ----------    ----------    ----------
    1; LI#1               -0.00000       0.24111       0.01613       0.02301
    2; LI#1                0.00006       0.65348       0.05166       0.08238
    3; LI#1                0.00005       0.21868       0.01801       0.04235
    4; LI#1                0.00074       0.00493      -0.01028      -0.03698
    5; LI#1               -0.00008      -0.00168      -0.00101       0.01750
    6; LI#1               -0.00014       0.01144       0.01951       0.06801
    7; LI#1               -0.00050       0.00038       0.00625      -0.00743
    8; LI#1                0.00000       0.00298       0.00326       0.00915
    9; LI#1                0.00005      -0.00046      -0.00110       0.00373
   10; LI#1                0.00000      -0.00000      -0.00000      -0.00000
   11; F #2               -0.42577      -0.00269       0.10350      -0.00692
   12; F #2               -0.65132      -0.00659       0.25779      -0.01771
   13; F #2               -0.02252       0.00842      -0.36053       0.03010
   14; F #2                0.00755       0.01155      -0.51305       0.04268
   15; F #2               -0.00368       0.00905      -0.25127      -0.00620
   16; F #2               -0.00036       0.00707      -0.01386      -0.47306
   17; F #2                0.00024       0.00755      -0.02299      -0.41404
   18; F #2               -0.00041       0.00394      -0.01103      -0.30067
   19; F #2               -0.00000       0.00009       0.00002      -0.00022
   20; F #2               -0.00002       0.00063      -0.00168      -0.00424
   21; F #2               -0.00000      -0.00000      -0.00000       0.00000
   22; F #2                0.00000      -0.00000       0.00000       0.00000
   23; F #2               -0.00000       0.00005      -0.00008      -0.00017
   24; F #2               -0.00000      -0.00000      -0.00000      -0.00000


                          MO #  5       MO #  6       MO #  7       MO #  8

    BASIS/ORB E            0.00211       0.13319       0.20777       0.38844
                        ----------    ----------    ----------    ----------
    1; LI#1                0.02016       0.02293       0.03603       0.00000
    2; LI#1                0.07149       0.05570       0.10111       0.00000
    3; LI#1                0.05497       0.15529       0.22868       0.00000
    4; LI#1                0.16474      -1.52701      -2.04710      -0.00000
    5; LI#1               -1.01198       1.48170       0.96068      -0.00000
    6; LI#1               -0.04865      -0.01177       0.01107       0.00000
    7; LI#1               -0.46777      -0.64376       0.94136       0.00000
    8; LI#1               -0.00344      -0.00773      -0.00315      -0.00000
    9; LI#1                0.00379      -0.05514      -0.01459      -0.00000
   10; LI#1               -0.00000       0.00000      -0.00000       0.49983
   11; F #2               -0.00345       0.00813      -0.01620      -0.00000
   12; F #2               -0.00810       0.02147      -0.04673      -0.00000
   13; F #2                0.00388      -0.04209       0.14307       0.00000
   14; F #2                0.06292      -0.02228      -0.23705      -0.00000
   15; F #2               -0.08738      -0.02209       1.01898       0.00000
   16; F #2                0.01158       0.01477       0.04550      -0.00000
   17; F #2                0.01485      -0.02009       0.01226      -0.00000
   18; F #2               -0.01998       0.19254       0.27314       0.00000
   19; F #2                0.00018      -0.00033      -0.00026      -0.00000
   20; F #2               -0.00026       0.00125       0.00348       0.00000
   21; F #2                0.00000       0.00000      -0.00000       0.00163
   22; F #2                0.00000      -0.00000      -0.00000       0.00145
   23; F #2               -0.00001       0.00001       0.00011      -0.00000
   24; F #2                0.00000       0.00000      -0.00000       0.00013


                          MO #  9       MO # 10       MO # 11       MO # 12

    BASIS/ORB E            0.39513       0.83813       0.95323       1.18260
                        ----------    ----------    ----------    ----------
    1; LI#1                0.00290       0.01147       0.01878       0.03106
    2; LI#1                0.00083       0.09704       0.01392       0.24635
    3; LI#1               -0.00243      -0.09308       0.30373      -0.28420
    4; LI#1                0.73249       0.70270       0.30065       1.92083
    5; LI#1                0.07282      -0.48611      -0.25477      -0.42913
    6; LI#1               -0.02551      -1.02537       0.10696      -1.04754
    7; LI#1               -0.92879       0.40531       0.16207      -0.80769
    8; LI#1                0.00923      -0.02984       0.02169      -0.01773
    9; LI#1                0.40128       0.02630      -0.15351       0.17339
   10; LI#1                0.00000      -0.00000      -0.00000      -0.00000
   11; F #2                0.00638       0.03787      -0.01138      -0.04353
   12; F #2                0.02234       0.08546      -0.02483      -0.08643
   13; F #2               -0.11831       0.01672      -0.02591      -0.23866
   14; F #2                0.39667      -0.94858       0.39342       2.41565
   15; F #2               -1.77430       0.72785      -0.09342      -4.03420
   16; F #2                0.09452      -0.01360       0.27628      -0.05526
   17; F #2                0.10372       0.13627       0.77178      -0.00970
   18; F #2               -0.25501      -0.82898      -1.44506      -0.73250
   19; F #2               -0.00007       0.00377       0.00062       0.00320
   20; F #2               -0.00183      -0.00602       0.00613       0.00152
   21; F #2                0.00000      -0.00000       0.00000       0.00000
   22; F #2                0.00000       0.00000       0.00000       0.00000
   23; F #2                0.00002      -0.00060       0.00021      -0.00038
   24; F #2               -0.00000       0.00000       0.00000       0.00000


                          MO # 13       MO # 14       MO # 15       MO # 16

    BASIS/ORB E            1.65594       2.42328       2.88799       3.89988
                        ----------    ----------    ----------    ----------
    1; LI#1                0.09886       0.00000       0.04098       0.01707
    2; LI#1                1.11892      -0.00000       0.54459       0.14837
    3; LI#1               -1.79876       0.00000      -1.07012      -0.15051
    4; LI#1                0.57182       0.00000      -0.29024       0.08433
    5; LI#1               -0.33606      -0.00000       0.08154      -0.11920
    6; LI#1                0.24201      -0.00000       0.70596       0.21482
    7; LI#1                0.09427      -0.00000       0.04792       0.11376
    8; LI#1                0.02049      -0.00000       0.02466       0.03604
    9; LI#1               -0.01917       0.00000      -0.02681      -0.06489
   10; LI#1                0.00000       0.05067      -0.00000      -0.00000
   11; F #2               -0.00021       0.00000       0.01141       0.00364
   12; F #2               -0.00784      -0.00000       0.03250       0.01230
   13; F #2                0.12080       0.00000      -0.06635      -0.06459
   14; F #2               -0.50014       0.00000      -0.45116       0.00001
   15; F #2                0.68220      -0.00000       1.05056       0.30812
   16; F #2                0.11156      -0.00000       0.07416      -1.20392
   17; F #2               -0.07544       0.00000      -0.17787       1.65451
   18; F #2                0.37483      -0.00000       0.76264      -0.70419
   19; F #2                0.00044      -0.00000       0.00018      -0.00038
   20; F #2               -0.08019      -0.00000       0.30933       0.01741
   21; F #2                0.00000       0.00716      -0.00000      -0.00000
   22; F #2               -0.00000      -0.50591      -0.00000       0.00000
   23; F #2               -0.00086      -0.00000      -0.00113      -0.00045
   24; F #2               -0.00000      -0.00201       0.00000       0.00000


                          MO # 17       MO # 18       MO # 19       MO # 20

    BASIS/ORB E            4.32155       6.58850       7.55033       7.60013
                        ----------    ----------    ----------    ----------
    1; LI#1                0.00459       0.02536      -0.00000       0.02907
    2; LI#1                0.00397       0.05299      -0.00000       0.05224
    3; LI#1                0.08987      -0.12293       0.00000      -0.14967
    4; LI#1                0.62340      -0.42399       0.00000      -0.11442
    5; LI#1               -0.05717       0.12546      -0.00000       0.02326
    6; LI#1               -0.18937       0.67518      -0.00000       0.19668
    7; LI#1               -0.42141       0.07580      -0.00000       0.03798
    8; LI#1               -0.01327      -1.06549       0.00000      -0.11773
    9; LI#1                0.04877      -0.05511       0.00000      -0.01725
   10; LI#1                0.00000      -0.00000       0.00731       0.00000
   11; F #2                0.12899      -0.00175       0.00000      -0.00196
   12; F #2                0.47750      -0.00517       0.00000      -0.00708
   13; F #2               -3.08658       0.05341      -0.00000       0.07131
   14; F #2                4.47855      -0.27186       0.00000      -0.21036
   15; F #2               -2.73494       0.71170      -0.00000       0.32846
   16; F #2                0.01549      -0.07058       0.00000      -0.01620
   17; F #2                0.02274       0.17349      -0.00000       0.01970
   18; F #2               -0.29187       0.20209      -0.00000       0.13049
   19; F #2               -0.00344       0.00438      -0.00000       0.02419
   20; F #2               -0.02859       0.03290       0.00000       0.00540
   21; F #2                0.00000      -0.00000      -0.00338       0.00000
   22; F #2               -0.00000       0.00000       0.00299      -0.00000
   23; F #2                0.00132      -0.01167      -0.00000       0.12866
   24; F #2               -0.00000      -0.00000      -0.50004      -0.00000


                          MO # 21       MO # 22       MO # 23       MO # 24

    BASIS/ORB E            9.03934       9.27959      15.16053      58.52067
                        ----------    ----------    ----------    ----------
    1; LI#1                0.00000       0.05721       1.46393       0.00251
    2; LI#1                0.00000       0.06610      -1.96295      -0.00624
    3; LI#1               -0.00000      -0.26735       1.24675      -0.01589
    4; LI#1               -0.00000      -0.21079      -0.25040      -0.17278
    5; LI#1                0.00000       0.07041       0.13042       0.01752
    6; LI#1                0.00000       0.30645      -0.18565       0.04704
    7; LI#1                0.00000       0.03193      -0.01088       0.11813
    8; LI#1               -0.00000      -0.05455       0.04222      -0.00131
    9; LI#1               -0.00000      -0.01469       0.00888      -0.01416
   10; LI#1                0.01883      -0.00000      -0.00000      -0.00000
   11; F #2                0.00000      -0.00369      -0.00093       1.39131
   12; F #2               -0.00000      -0.01155      -0.00160      -1.68115
   13; F #2                0.00000       0.12389       0.00625       1.42316
   14; F #2               -0.00000      -0.36303       0.09848      -1.34988
   15; F #2                0.00000       0.51521      -0.23995       0.73414
   16; F #2               -0.00000      -0.00578       0.03221       0.00267
   17; F #2               -0.00000      -0.01715      -0.06234      -0.01537
   18; F #2                0.00000       0.27684      -0.16846       0.07799
   19; F #2               -0.00000      -0.33958       0.02441      -0.00188
   20; F #2                0.00000       0.20200      -0.04750       0.00476
   21; F #2                0.57980      -0.00000       0.00000      -0.00000
   22; F #2               -0.28870       0.00000       0.00000      -0.00000
   23; F #2               -0.00000       0.01126      -0.00599       0.00036
   24; F #2               -0.00320       0.00000      -0.00000      -0.00000


  SYMMETRY BLOCK 2 (ALPHA)

                          MO # 25       MO # 26       MO # 27       MO # 28

    BASIS/ORB E           -0.47319       0.10399       0.43490       0.67786
                        ----------    ----------    ----------    ----------
   25; LI#1                0.03685       0.05318       0.10601       1.00888
   26; LI#1                0.05835       1.00120      -0.43415      -0.44595
   27; LI#1                0.00285       0.00835       0.00303       0.03328
   28; LI#1               -0.02991       0.13183       1.24112      -0.11069
   29; F #2                0.47005      -0.08815       0.11181      -0.11027
   30; F #2                0.40892      -0.04964       0.04764      -0.19318
   31; F #2                0.29858      -0.15141       0.60236       0.19747
   32; F #2                0.00038       0.00037      -0.00684       0.00163
   33; F #2                0.01417       0.00297       0.02140       0.03084
   34; F #2                0.00020      -0.00001       0.00010       0.00016
   35; F #2               -0.00000       0.00000       0.00000       0.00000


                          MO # 29       MO # 30       MO # 31       MO # 32

    BASIS/ORB E            0.97837       2.48057       3.85959       6.35378
                        ----------    ----------    ----------    ----------
   25; LI#1                0.35248       0.20813       0.04796       0.40278
   26; LI#1                0.38600       0.06284       0.18775      -0.07102
   27; LI#1                0.00787       0.02623       0.00072      -1.04995
   28; LI#1               -0.58965      -0.23052      -0.18518      -0.05227
   29; F #2                0.25089       0.08795      -1.20375       0.00161
   30; F #2                0.76047      -0.00136       1.65273       0.01143
   31; F #2               -1.75979      -0.25769      -0.94579      -0.08403
   32; F #2                0.00321       0.01243      -0.00927      -0.03448
   33; F #2                0.03557      -1.02519      -0.08236      -0.05078
   34; F #2                0.00020      -0.00074       0.00048       0.00932
   35; F #2               -0.00000      -0.00000      -0.00000      -0.00000


                          MO # 33       MO # 34       MO # 35

    BASIS\ORB E            7.55640       7.55808       9.08909
                        ----------    ----------    ----------
   25; LI#1                0.07029      -0.00000       0.09428
   26; LI#1               -0.01195       0.00000       0.02783
   27; LI#1               -0.07403       0.00000      -0.05230
   28; LI#1               -0.01405       0.00000      -0.09420
   29; F #2               -0.00451       0.00000      -0.02287
   30; F #2                0.01408      -0.00000       0.05988
   31; F #2               -0.02769       0.00000      -0.12650
   32; F #2               -0.02349       0.00000       1.16327
   33; F #2                0.00539      -0.00000      -0.60197
   34; F #2               -0.15793       0.00000      -0.00340
[...]
   The total correlation energy is -0.308114601392 a.u.
   The total correlation energy is -0.308114601392 a.u.
  Current DIIS expansion coefficients : 
 [   1] 0.0126566627 [   2]-0.0166217270 [   3]-0.0367683454 [   4] 0.1021333127
 [   5] 0.9386000971
  Convergence information after    15 iterations: 
  Largest element of residual vector :  0.55500723E-07.
  Largest element of DIIS residual   :  0.60283800E-07.
   Largest T1 amplitudes for spin case AA:
   i       a                 i       a                 i       a    
-----------------------------------------------------------------------------
[  5      36    ] 0.02342 [  4      26    ] 0.02342 [  3      10    ] 0.00985
[  5      37    ]-0.00885 [  4      27    ]-0.00885 [  3       8    ] 0.00781
[  5      38    ] 0.00687 [  4      28    ] 0.00687 [  4      31    ]-0.00659
[  5      41    ]-0.00659 [  3      17    ] 0.00622 [  3       6    ] 0.00565
[  3      12    ] 0.00551 [  2       8    ] 0.00423 [  2      11    ]-0.00318
-----------------------------------------------------------------------------
   Norm of T1AA vector (       80 symmetry allowed elements):  0.0421632542.
-----------------------------------------------------------------------------
   Largest T2 amplitudes for spin case AB:
       _       _                 _       _                 _       _
   i   j   a   b             i   j   a   b             i   j   a   b
-----------------------------------------------------------------------------
[  3   3  12  12]-0.03357 [  4   4  29  29]-0.03051 [  5   5  39  39]-0.03051
[  4   3  29  12] 0.02154 [  3   4  12  29] 0.02154 [  5   3  39  12] 0.02154
[  3   5  12  39] 0.02154 [  1   1  14  14]-0.02151 [  5   4  39  29]-0.02104
[  4   5  29  39]-0.02104 [  1   1  32  32]-0.01697 [  1   1  42  42]-0.01697
[  4   4  31  31]-0.01644 [  5   5  41  41]-0.01644 [  5   5  15  15]-0.01637
-----------------------------------------------------------------------------
   Norm of T2AB vector (    13256 symmetry allowed elements):  0.2129957782.
-----------------------------------------------------------------------------
  W(mnij) AB contribution =  0.0411292102 a.u.
  W(abef) AB contribution =  0.0433911527 a.u.
  W(mbej) AB contribution = -0.1063896931 a.u.
   After  16 iterations, amplitude changes are:
    -------------------------------------------------------------------
                 Spin      RMS          Max.      Max. change for
     Amplitude   Case     Change       Change       i    j    a    b
    -------------------------------------------------------------------
        T1        AA    0.0000000004 0.0000000181    3         8
        T2        AA    0.0000000000-0.0000000097    5    4   36   26
        T2        AB    0.0000000000-0.0000000139    5    4   36   26
    -------------------------------------------------------------------
   The AA contribution to the correlation energy is:   -0.0320720 a.u.
   The AB contribution to the correlation energy is:   -0.2439706 a.u.
   The total correlation energy is -0.308114606697 a.u.
   The total correlation energy is -0.308114606697 a.u.
  Current DIIS expansion coefficients : 
 [   1] 0.9323944456 [   2]-0.0033579206 [   3]-0.0224057069 [   4]-0.0640329512
 [   5] 0.1574021331
  Convergence information after    16 iterations: 
  Largest element of residual vector :  0.18058991E-07.
  Largest element of DIIS residual   : -0.21686261E-07.
  W(mnij) AB contribution =  0.0411292180 a.u.
  W(abef) AB contribution =  0.0433911576 a.u.
  W(mbej) AB contribution = -0.1063897116 a.u.
   After  17 iterations, amplitude changes are:
    -------------------------------------------------------------------
                 Spin      RMS          Max.      Max. change for
     Amplitude   Case     Change       Change       i    j    a    b
    -------------------------------------------------------------------
        T1        AA    0.0000000003-0.0000000143    3         6
        T2        AA    0.0000000000 0.0000000025    5    4   36   26
        T2        AB    0.0000000000 0.0000000047    5    5   36   36
    -------------------------------------------------------------------
   The AA contribution to the correlation energy is:   -0.0320720 a.u.
   The AB contribution to the correlation energy is:   -0.2439706 a.u.
   The total correlation energy is -0.308114606998 a.u.
   The total correlation energy is -0.308114606998 a.u.
  Current DIIS expansion coefficients : 
 [   1] 0.2025359115 [   2] 0.8916795476 [   3] 0.0035481333 [   4]-0.0220092933
 [   5]-0.0757542990
  Convergence information after    17 iterations: 
  Largest element of residual vector : -0.14281279E-07.
  Largest element of DIIS residual   : -0.10290356E-07.
  W(mnij) AB contribution =  0.0411292185 a.u.
  W(abef) AB contribution =  0.0433911579 a.u.
  W(mbej) AB contribution = -0.1063897129 a.u.
   After  18 iterations, amplitude changes are:
    -------------------------------------------------------------------
                 Spin      RMS          Max.      Max. change for
     Amplitude   Case     Change       Change       i    j    a    b
    -------------------------------------------------------------------
        T1        AA    0.0000000001-0.0000000056    3         6
        T2        AA    0.0000000000-0.0000000004    4    3   29    6
        T2        AB    0.0000000000-0.0000000025    4    4   26   26
    -------------------------------------------------------------------
   The AA contribution to the correlation energy is:   -0.0320720 a.u.
   The AB contribution to the correlation energy is:   -0.2439706 a.u.
   The total correlation energy is -0.308114607555 a.u.
   The total correlation energy is -0.308114607555 a.u.
  Current DIIS expansion coefficients : 
 [   1] 0.0223231767 [   2]-0.0014856439 [   3] 1.0214909571 [   4]-0.0033683345
 [   5]-0.0389601555
  Convergence information after    18 iterations: 
  Largest element of residual vector : -0.56011936E-08.
  Largest element of DIIS residual   : -0.44882304E-08.
  W(mnij) AB contribution =  0.0411292189 a.u.
  W(abef) AB contribution =  0.0433911580 a.u.
  W(mbej) AB contribution = -0.1063897136 a.u.
   After  19 iterations, amplitude changes are:
    -------------------------------------------------------------------
                 Spin      RMS          Max.      Max. change for
     Amplitude   Case     Change       Change       i    j    a    b
    -------------------------------------------------------------------
        T1        AA    0.0000000001-0.0000000028    3         6
        T2        AA    0.0000000000-0.0000000002    5    3   39    6
        T2        AB    0.0000000000 0.0000000018    3    3    6    6
    -------------------------------------------------------------------
   The AA contribution to the correlation energy is:   -0.0320720 a.u.
   The AB contribution to the correlation energy is:   -0.2439706 a.u.
   The total correlation energy is -0.308114607671 a.u.
   The total correlation energy is -0.308114607671 a.u.
  Current DIIS expansion coefficients : 
 [   1] 0.0145808909 [   2]-0.1765594051 [   3] 0.2810927751 [   4] 0.8854698234
 [   5]-0.0045840843
  Convergence information after    19 iterations: 
  Largest element of residual vector : -0.27919608E-08.
  Largest element of DIIS residual   : -0.14217174E-08.
  W(mnij) AB contribution =  0.0411292188 a.u.
  W(abef) AB contribution =  0.0433911579 a.u.
  W(mbej) AB contribution = -0.1063897132 a.u.
   After  20 iterations, amplitude changes are:
    -------------------------------------------------------------------
                 Spin      RMS          Max.      Max. change for
     Amplitude   Case     Change       Change       i    j    a    b
    -------------------------------------------------------------------
        T1        AA    0.0000000000 0.0000000011    5        36
        T2        AA    0.0000000000 0.0000000001    5    4   36   26
        T2        AB    0.0000000000-0.0000000006    5    5    6    6
    -------------------------------------------------------------------
   The AA contribution to the correlation energy is:   -0.0320720 a.u.
   The AB contribution to the correlation energy is:   -0.2439706 a.u.
   The total correlation energy is -0.308114607688 a.u.
   The total correlation energy is -0.308114607688 a.u.
  Current DIIS expansion coefficients : 
 [   1] 0.0118110520 [   2]-0.0752954137 [   3]-0.0231297524 [   4] 0.2028002156
 [   5] 0.8838138985
  Convergence information after    20 iterations: 
  Largest element of residual vector :  0.11315422E-08.
  Largest element of DIIS residual   : -0.49018170E-09.
   Largest T1 amplitudes for spin case AA:
   i       a                 i       a                 i       a    
-----------------------------------------------------------------------------
[  5      36    ] 0.02342 [  4      26    ] 0.02342 [  3      10    ] 0.00985
[  5      37    ]-0.00885 [  4      27    ]-0.00885 [  3       8    ] 0.00781
[  5      38    ] 0.00687 [  4      28    ] 0.00687 [  4      31    ]-0.00659
[  5      41    ]-0.00659 [  3      17    ] 0.00622 [  3       6    ] 0.00565
[  3      12    ] 0.00551 [  2       8    ] 0.00423 [  2      11    ]-0.00318
-----------------------------------------------------------------------------
   Norm of T1AA vector (       80 symmetry allowed elements):  0.0421632713.
-----------------------------------------------------------------------------
   Largest T2 amplitudes for spin case AB:
       _       _                 _       _                 _       _
   i   j   a   b             i   j   a   b             i   j   a   b
-----------------------------------------------------------------------------
[  3   3  12  12]-0.03357 [  4   4  29  29]-0.03051 [  5   5  39  39]-0.03051
[  4   3  29  12] 0.02154 [  3   4  12  29] 0.02154 [  5   3  39  12] 0.02154
[  3   5  12  39] 0.02154 [  1   1  14  14]-0.02151 [  5   4  39  29]-0.02104
[  4   5  29  39]-0.02104 [  1   1  32  32]-0.01697 [  1   1  42  42]-0.01697
[  4   4  31  31]-0.01644 [  5   5  41  41]-0.01644 [  5   5  15  15]-0.01637
-----------------------------------------------------------------------------
   Norm of T2AB vector (    13256 symmetry allowed elements):  0.2129958028.
-----------------------------------------------------------------------------
  W(mnij) AB contribution =  0.0411292187 a.u.
  W(abef) AB contribution =  0.0433911578 a.u.
  W(mbej) AB contribution = -0.1063897130 a.u.
   After  21 iterations, amplitude changes are:
    -------------------------------------------------------------------
                 Spin      RMS          Max.      Max. change for
     Amplitude   Case     Change       Change       i    j    a    b
    -------------------------------------------------------------------
        T1        AA    0.0000000000 0.0000000003    4        26
        T2        AA    0.0000000000 0.0000000000    5    4   39   26
        T2        AB    0.0000000000 0.0000000002    3    3    6    6
    -------------------------------------------------------------------
   The AA contribution to the correlation energy is:   -0.0320720 a.u.
   The AB contribution to the correlation energy is:   -0.2439706 a.u.
   The total correlation energy is -0.308114607695 a.u.
   The total correlation energy is -0.308114607695 a.u.
  Current DIIS expansion coefficients : 
 [   1] 1.1636991467 [   2] 0.0159216815 [   3]-0.0361778347 [   4]-0.1442451011
 [   5] 0.0008021075
  Convergence information after    21 iterations: 
  Largest element of residual vector :  0.32027525E-09.
  Largest element of DIIS residual   : -0.16762901E-09.
  Amplitude equations converged in    21iterations.
   The AA contribution to the correlation energy is:   -0.0320720 a.u.
   The AB contribution to the correlation energy is:   -0.2439706 a.u.
   The total correlation energy is -0.308114607692 a.u.
   The total correlation energy is -0.308114607692 a.u.
   The CC iterations have converged.

   Largest T1 amplitudes for spin case AA:
   i       a                 i       a                 i       a    
-----------------------------------------------------------------------------
[  5      36    ] 0.02342 [  4      26    ] 0.02342 [  3      10    ] 0.00985
[  5      37    ]-0.00885 [  4      27    ]-0.00885 [  3       8    ] 0.00781
[  5      38    ] 0.00687 [  4      28    ] 0.00687 [  4      31    ]-0.00659
[  5      41    ]-0.00659 [  3      17    ] 0.00622 [  3       6    ] 0.00565
[  3      12    ] 0.00551 [  2       8    ] 0.00423 [  2      11    ]-0.00318
-----------------------------------------------------------------------------
   Norm of T1AA vector (       80 symmetry allowed elements):  0.0421632718.
-----------------------------------------------------------------------------
   Largest T2 amplitudes for spin case AB:
       _       _                 _       _                 _       _
   i   j   a   b             i   j   a   b             i   j   a   b
-----------------------------------------------------------------------------
[  3   3  12  12]-0.03357 [  4   4  29  29]-0.03051 [  5   5  39  39]-0.03051
[  4   3  29  12] 0.02154 [  3   4  12  29] 0.02154 [  5   3  39  12] 0.02154
[  3   5  12  39] 0.02154 [  1   1  14  14]-0.02151 [  5   4  39  29]-0.02104
[  4   5  29  39]-0.02104 [  1   1  32  32]-0.01697 [  1   1  42  42]-0.01697
[  4   4  31  31]-0.01644 [  5   5  41  41]-0.01644 [  5   5  15  15]-0.01637
-----------------------------------------------------------------------------
   Norm of T2AB vector (    13256 symmetry allowed elements):  0.2129958027.
-----------------------------------------------------------------------------
       Summary of iterative solution of CC equations 
      -----------------------------------------------------------
                       Correlation           Total
       Iteration         Energy              Energy
      -----------------------------------------------------------
            0        -0.305955183671    -107.291594058695  DIIS 
            1        -0.301360664247    -107.286999539271  DIIS 
            2        -0.308103938066    -107.293742813090  DIIS 
            3        -0.307546585985    -107.293185461009  DIIS 
            4        -0.307963932823    -107.293602807847  DIIS 
            5        -0.308119062877    -107.293757937901  DIIS 
            6        -0.308115843742    -107.293754718767  DIIS 
            7        -0.308115442890    -107.293754317914  DIIS 
            8        -0.308117079066    -107.293755954090  DIIS 
            9        -0.308114394557    -107.293753269581  DIIS 
           10        -0.308114730216    -107.293753605240  DIIS 
           11        -0.308114549657    -107.293753424681  DIIS 
           12        -0.308114562758    -107.293753437782  DIIS 
           13        -0.308114583517    -107.293753458541  DIIS 
           14        -0.308114593848    -107.293753468872  DIIS 
           15        -0.308114601392    -107.293753476416  DIIS 
           16        -0.308114606697    -107.293753481721  DIIS 
           17        -0.308114606998    -107.293753482022  DIIS 
           18        -0.308114607555    -107.293753482579  DIIS 
           19        -0.308114607671    -107.293753482695  DIIS 
           20        -0.308114607688    -107.293753482712  DIIS 
           21        -0.308114607692    -107.293753482716  DIIS 
      -----------------------------------------------------------
      A miracle has come to pass. The CC iterations have converged.
 @DIMT3-I, Dimensions of T3 amplitudes : 
               # abc          # ijk       Symmetry    Spin 
                     3460              1     1          1
                     3330              3     2          1
                     3330              3     3          1
                     3124              3     4          1
                    11240             15     1          2
                    10420             13     2          2
                    10420             13     3          2
                     9544              9     4          2
                    11240             15     1          3
                    10420             13     2          3
                    10420             13     3          3
                     9544              9     4          3
                     3460              1     1          4
                     3330              3     2          4
                     3330              3     3          4
                     3124              3     4          4
 @DIMT3-I, Dimensions of T3 amplitudes : 
               # abc          # ijk       Symmetry    Spin 
                     3460              1     1          1
                     3330              3     2          1
                     3330              3     3          1
                     3124              3     4          1
                    11240             15     1          2
                    10420             13     2          2
                    10420             13     3          2
                     9544              9     4          2
                    11240             15     1          3
                    10420             13     2          3
                    10420             13     3          3
                     9544              9     4          3
                     3460              1     1          4
                     3330              3     2          4
                     3330              3     3          4
                     3124              3     4          4
 @TRPS-I, Welcome to TRPS. Watch your RUs ! 
 @TRPS-I, Method is CCSD(T) 
 @TRPS-I, Calculation type is energy 
 @TRPS-I, Reference function information : 
          Reference function is Hartree-Fock 
          Reference function is RHF Hartree-Fock 
 @TRPS-I, INT1 is true 
 @TRPS-I, INT2 is false 
 @TRPS-I, Lengths of ijka integrals. #1        596
                                     #2        596
                                     #3       1592
                                     #4       1592
                                    Max       1592
 @INITRP-I, Initializing W intermediate lists. 
 @SETOOOV-I, Some OOOV lists are being transposed. 
 @TRPS-I, Available memory in integer words    249959040
          Number of pre-allocated words for TRPS2        14810
          Number of free words for TRPS2    249944230
 @TRPS2-I, Spin case AAB 
 @TRPS2-I, Number of free integer words  249944230
           Number of free double  words  249944230
           Ratio                                 1
 @TRPS2-I, E4TBAA      -0.003711619887
  @TRPS2-I, E4TAAA  -1.952412531457059E-004
 @TRPS2-I, E5ST A    0.000231741258818
 @TRPS2-I, E5ST B    0.000130589584622
 @SETOOOV-I, Some OOOV lists are being transposed. 
 @CCENRG-I, CCSD/QCISD energy will now be evaluated. 
 @CCENRG-I, Correlation energies. ECCAA       -0.032072011343
                                  ECCBB        0.000000000000
                                  ECCAB       -0.243970585005
                                  Total       -0.308114607692
 @CCENRG-I, Reference   energy    -106.985638875024
            CCSD/QCISD energy     -107.293753482716
          E4T (T(CCSD)) = -0.007813722280
          E5ST          =  0.000724661687
          E4ST          =  0.000000000000
          In other words  
          <T3[2](Dagger) D3  T3[2]> = -0.007813722280
          <T1   (Dagger) Q1 WT3[2]> =  0.000724661687
          <T2   (Dagger) Q2 FT3[2]> =  0.000000000000
        E(CCSD)           =    -107.293753482716
        E(CCSD + T(CCSD)) =    -107.301567204996
        E(CCSD(T))        =    -107.300842543310
  @CHECKOUT-I, Total execution time (CPU/WALL):        0.98/       1.21 seconds.
--executable xvcc finished with status     0 in        1.29 seconds (walltime).
  The final electronic energy is      -107.300842543309543 a.u. 
  This computation required                            8.08 seconds (walltime).
