 --invoking executable--
/home/nike/cfour_v2.00beta/cfour_v2.00beta/bin/xjoda


   *************************************************************************
         <<<     CCCCCC     CCCCCC   |||     CCCCCC     CCCCCC   >>>
       <<<      CCC        CCC       |||    CCC        CCC         >>>
      <<<      CCC        CCC        |||   CCC        CCC            >>>
    <<<        CCC        CCC        |||   CCC        CCC              >>>
      <<<      CCC        CCC        |||   CCC        CCC            >>>
       <<<      CCC        CCC       |||    CCC        CCC         >>>
         <<<     CCCCCC     CCCCCC   |||     CCCCCC     CCCCCC   >>>
   *************************************************************************

     ****************************************************************
     * CFOUR Coupled-Cluster techniques for Computational Chemistry *
     ****************************************************************
 

   Department of Chemistry                Institut fuer Physikalische Chemie
   University of Texas at Austin          Universitaet Mainz
   Austin, TX  78712, USA                 D-55099 Mainz, Germany
 
                       Version 2.00beta
 
                     blg8422.int.ets1.calculquebec.ca                  
                     Mo 24. Feb 23:17:35 EST 2020                      
                     integer*8 version is running
 
********************************************************************************
*                          Input from ZMAT file                                *
********************************************************************************
TITLE                                                                           
H                                                                               
H 1 R                                                                           
                                                                                
R=1.401100                                                                      
                                                                                
*ACES2(CALC=CCSD(T)                                                             
UNITS=BOHR                                                                      
#GEOM=Puchalsi2017au                                                            
#COORD=CARTESIAN                                                                
COORD=INTERNAL                                                                  
PRINT=4                                                                         
JODA_PRINT=4                                                                    
INPUT_MRCC=OFF                                                                  
#CC_PROG=MRCC                                                                   
FROZEN_CORE=ON                                                                  
#DROPMO=1>5                                                                     
CONTRACTION=GENERAL                                                             
#CONTRACTION=SEGMENTED                                                          
RELATIVISTIC=OFF                                                                
#EXCITE=EOMEE                                                                   
#ESTATE_CONV=5                                                                  
#ESTATE_SYM=2/2/2/2/2/2/2/2                                                     
XFORM_TOL=18                                                                    
SAVE_INTS=ON                                                                    
SCF_EXPORDER=6                                                                  
SCF_EXPSTART=5                                                                  
#SCF_DAMPING=1000                                                               
SCF_EXTRAPOLATION=ON                                                            
SCF_CONV=12                                                                     
SCF_MAXCYC=99999                                                                
CC_CONV=9                                                                       
CC_MAXCYC=999                                                                   
T3_EXTRAPOL=ON                                                                  
REFERENCE=RHF                                                                   
CHARGE=+0                                                                       
MULT=1                                                                          
ABCDTYPE=STANDARD                                                               
#OCCUPATION=3-2-2-0-1-0-0-0/3-1-1-0-1-0-0-0                                     
MEM=12                                                                          
MEM_UNIT=GB                                                                     
BASIS=SPECIAL)                                                                  
                                                                                
H:def2-TZVPP                                                                    
H:def2-TZVPP                                                                    
                                                                                
********************************************************************************
  @GTFLGS-W, Keyword #GEOM not known and is ignored.
  @GTFLGS-W, Keyword #COORD not known and is ignored.
  @GTFLGS-W, Keyword #CC_PROG not known and is ignored.
  @GTFLGS-W, Keyword #DROPMO not known and is ignored.
  @GTFLGS-W, Keyword #CONTRACTION not known and is ignored.
  @GTFLGS-W, Keyword #EXCITE not known and is ignored.
  @GTFLGS-W, Keyword #ESTATE_CONV not known and is ignored.
  @GTFLGS-W, Keyword #ESTATE_SYM not known and is ignored.
  @GTFLGS-W, Keyword #SCF_DAMPING not known and is ignored.
  @GTFLGS-W, Keyword #OCCUPATION not known and is ignored.
    -------------------------------------------------------------------
                    CFOUR Control Parameters 
    -------------------------------------------------------------------
        External           Internal           Value            Units
          Name               Name
    -------------------------------------------------------------------
       ABCDTYPE             IABCDT         STANDARD     [  0]   ***   
       ANHARMONIC           IANHAR         OFF          [  0]   ***   
       ANH_ALGORIT          IANALG         STANDARD     [  0]   ***   
       ANH_DERIVAT          IANDER         SECOND       [  1]   ***   
       ANH_STEPSIZ          ICUBST             50000          x 10-6  
       ANH_SYMMETR          IANHSM         ABELIAN      [  0]   ***   
       AO_LADDERS           IAOLAD         SINGLEPASS   [  1]   ***   
       BASIS                IBASIS         SPECIAL      [  0]   ***   
       BREIT                IBREIT         OFF          [  0]   ***   
       BRUCK_CONV           IBRTOL          10D-  4             ***   
       BRUECKNER            IBRKNR             OFF      [  0]   ***   
       BUFFERSIZE           IBUFFS            600               ***   
       CACHE_RECS           ICHREC             10               ***   
       CALCLEVEL            ICLLVL           CCSD(T)    [ 22]   ***   
       CCORBOPT             ICCORB             OFF      [  0] x 0.01  
       CC_CONV              ICCCNV          10D-  9             ***   
       CC_EXPORDER          ICCEOR              5               ***   
       CC_EXTRAPOL          ICCEXT             DIIS     [  1]   ***   
       CC_MAXCYC            ICCCYC            999              cycles 
       CC_PROGRAM           ICCPRO         VCC          [  0]   ***   
       CHARGE               ICHRGE              0               ***   
       CHOLESKY             ICHOLE         OFF          [  0]   ***   
       CIS_CONV             ICISTL              5               ***   
       COMM_SIZE            IPSIZE            ***               ***   
       CONSTANT             ICONST         OLD          [  1]   ***   
       CONTINUUM            ICONTU         NONE         [  0]   ***   
       CONTRACTION          ICNTYP          GENERAL     [  1]   ***   
       COORDINATES          ICOORD         INTERNAL     [  0]   ***   
       CPHF_CONVER          ICPHFT          10D- 16             ***   
       CPHF_MAXCYC          ICPHFC             64              cycles 
       CUBIC                ICUBIC         OFF          [  0]   ***   
       CURVILINEAR          ICURVY            OFF       [  0]   ***   
       DBOC                 IDBOC          OFF          [  0]   ***   
       DCT                  IDCT           OFF          [  0]   ***   
       DERIV_LEV            IDRLVL            ZERO      [  0]   ***   
       DIAG_MRCC            IEOMST          10D-  0             ***   
       DIFF_TYPE            IDIFTY         RELAXED      [  0]   ***   
       DIRECT               IDIRCT         OFF          [  0]   ***   
       DROPMO               IDRPMO      NONE         
       ECP                  IECP           OFF          [  0]   ***   
       EIGENVECTOR          IVEC                1               ***   
       EL_ANHARM            IELANH         OFF          [  0]   ***   
       EOMFOLLOW            IEOMSR         ENERGY       [  0]   ***   
       EOM_MRCC             IMRCCE         NEW          [  1]   ***   
       EOM_NONIT            EOMNON         OFF          [  0]   ***   
       EOM_NSING            IEOMSI          10D-  0             ***   
       EOM_NSTATES          IMRCCD         DAVIDSON     [  0]   ***   
       EOM_NTRIP            IEOMTR          10D-  0             ***   
       EOM_ORDER            IEXORD         ENERGY       [  0]   ***   
       ESTATE_CONV          IEXTOL          10D-  5             ***   
       ESTATE_DIAG          IEXDIG         ITERATIVE    [  0]   ***   
       ESTATE_LOCK          IESLOC         ON           [  1]   ***   
       ESTATE_MAXC          IEXMXC             20               ***   
       ESTATE_PROP          IEXPRP         OFF          [  0]   ***   
       EVAL_HESS            IRECAL              0            # of cyc.
       EXCITATION           IEXCIT              0               ***   
       EXCITE               IEXCIT         NONE         [  0]   ***   
       FCGRADNEW            IFCGNW         OFF          [  0]   ***   
       FC_FIELD             IFINFC              0             x 10-6  
       FD_CALTYPE           IFDCAL         GRADONLY     [  0]   ***   
       FD_PROJECT           IFDPRJ         OFF          [  1]   ***   
       FD_STEPSIZE          IDISFD              0            10-4 bohr
       FD_USEGROUP          IFDGRP         FULL         [  0]   ***   
       FILE_RECSIZ          IFLREC              4096           words  
       FINITE_PERT          IFIPER              0             x 10-6  
       FIXGEOM              IFIXGM         OFF          [  0]   ***   
       FOCK                 IFOCK          AO           [  1]   ***   
       FREQ_ALGORI          IVIALG         STANDARD     [  0]   ***   
       FROZEN_CORE          IFROCO         ON           [  1]   ***   
       FROZEN_VIRT          IFROVI         OFF          [  0]   ***   
       GAMMA_ABCD           IGABCD         STORE        [  0]   ***   
       GAMMA_ABCI           IGABCI         STORE        [  0]   ***   
       GENBAS_1             IGNBS1              0               ***   
       GENBAS_2             IGNBS2              0               ***   
       GENBAS_3             IGNBS3              0               ***   
       GENBAS_4             IGNBS4              0               ***   
       GEO_CONV             ICONTL              5              H/bohr 
       GEO_MAXCYC           IOPTCY             50               ***   
       GEO_MAXSTEP          IMXSTP            300            millibohr
       GEO_METHOD           INR            SINGLE_POINT [  5]   ***   
       GIAO                 IGIAO          OFF          [  1]   ***   
       GIMIC                IGIMIC         OFF          [  0]   ***   
       GRID                 IGRID          OFF          [  0]   ***   
       GRID_ALGO            IGALGO         SERIAL       [  0]   ***   
       GUESS                IGUESS            MOREAD    [  0]   ***   
       HBAR                 IHBAR              OFF      [  0]   ***   
       HESS_TYPE            IHESTP         SCF          [  0]   ***   
       HF2_FILE             IHF2Fl         USE          [  1]   ***   
       HFSTABILITY          ISTABL         OFF          [  0]   ***   
       INCORE               INCORE             OFF      [  0]   ***   
       INPUT_MRCC           IMRCC          OFF          [  0]   ***   
       INTEGRALS            INTTYP             VMOL     [  1]   ***   
       JODA_PRINT           IJPRNT              4               ***   
       LINDEP_TOL           ILINDP              8               ***   
       LINEQ_CONV           IZTACN          10D-  7           cycles  
       LINEQ_EXPOR          ILMAXD              5               ***   
       LINEQ_MAXCY          ILMAXC             50               ***   
       LINEQ_TYPE           ILTYPE         DIIS         [  1]   ***   
       LOCK_ORBOCC          ILOCOC             OFF      [  0]   ***   
       MEMORY_SIZE          IMEMSZ         *********           words  
       MEM_UNIT             IMEMU          GB           [  3]   ***   
       MRCC                 IMRCCC         OFF          [  0]   ***   
       MULTIPLICTY          IMULTP              1               ***   
       NEGEVAL              IDIE             ABORT      [  0]   ***   
       NEWNORM              INEWNO         OFF          [  0]   ***   
       NON-HF               INONHF             OFF      [  0]   ***   
       NTOP_TAMP            ITOPT2             15               ***   
       NUC_MODEL            INUCMO         POINT        [  0]   ***   
       OCCUPATION           IOCCU   ESTIMATED BY SCF 
       OPEN-SHELL           IOPEN          SPIN-ORBITAL [  0]   ***   
       ORBITALS             IORBTP           STANDARD   [  0]   ***   
       PARALLEL             IPARAL         ON           [  1]   ***   
       PARA_INT             IPINTS         ON           [  1]   ***   
       PARA_PRINT           IPPRIN              0               ***   
       PERT_ORB             IPTORB         STANDARD     [  0]   ***   
       POINTS               IGRDFD              0               ***   
       PRINT                IPRNT               4               ***   
       PROPS                IPROPS             OFF      [  0]   ***   
       PROP_INTEGR          IINTYP         INTERNAL     [  0]   ***   
       PSI                  IPSI           OFF          [  0]   ***   
       QUARTIC              IQUART         OFF          [  0]   ***   
       RAMAN_INT            IRAMIN         OFF          [  0]   ***   
       RAMAN_ORB            IRAMRE         UNRELAXED    [  0]   ***   
       RDO                  IRDOFM             OFF      [  0]   ***   
       REFERENCE            IREFNC             RHF      [  0]   ***   
       RELATIVIST           IRELAT         OFF          [  0]   ***   
       RELAX_DENS           IRDENS             OFF      [  0]   ***   
       RESET_FLAGS          IRESET             OFF      [  0]   ***   
       RESTART_CC           ICCRES         OFF          [  0]   ***   
       ROT_EVEC             ROTVEC              0               ***   
       SAVE_INTS            ISVINT              ON      [  1]   ***   
       SCALE_ON             ISTCRT              0               ***   
       SCF_CONV             ISCFCV          10D- 12             ***   
       SCF_DAMPING          IDAMP               0             x 10-3  
       SCF_EXPORDE          IRPPOR              6               ***   
       SCF_EXPSTAR          IRPPLS              5               ***   
       SCF_EXTRAPO          IRPP                ON      [  1]   ***   
       SCF_MAXCYC           ISCFCY            ***              cycles 
       SCF_NOSTOP           ISCFST         OFF          [  0]   ***   
       SCF_PRINT            ISCFPR              0               ***   
       SD_FIELD             IFINSD              0             x 10-6  
       SEQUENCE             ISEQUE         OFF          [  0]   ***   
       SOPERT               IPERSO         OFF          [  0]   ***   
       SPHERICAL            IDFGHI             ON       [  1]   ***   
       SPINORBIT            ISOCAL         OFF          [  0]   ***   
       SPINROTATIO          ISRCON         OFF          [  0]   ***   
       SPIN_FLIP            ISPFLP         OFF          [  0]   ***   
       SPIN_ORBIT           ISPORB         OFF          [  0]   ***   
       SPIN_SCAL            ISCSMP         OFF          [  0]   ***   
       SUBGROUP             ISUBGP         DEFAULT      [  0]   ***   
       SUBGRPAXIS           ISBXYZ         X            [  0]   ***   
       SYMMETRY             ISYM             ON         [  0]   ***   
       SYM_CHECK            ISYMCK         OVERRIDE     [  1]   ***   
       T3_EXTRAPOL          IT3EXT         ON           [  1]   ***   
       TAMP_SUM             IEVERY              5               ***   
       TESTSUITE            ITESTS         OFF          [  0]   ***   
       THERMOCH             ITHERM         OFF          [  0]   ***   
       TOL_CHOLESK          ITOLCH          10D-  4             ***   
       TRANGRAD             IRESRM         OFF          [  0]   ***   
       TRANS_INV            ITRAIN         USE          [  0]   ***   
       TREAT_PERT           ITREAT         SIMULTANEOUS [  0]   ***   
       UIJ_THRESHO          IUIJTH              1               ***   
       UNITS                IUNITS         BOHR         [  1]   ***   
       UNOS                 IUNOS          OFF          [  0]   ***   
       UPDATE_HESS          IHUPDT         ON           [  1]   ***   
       VIBPHASE             ISETPH         STANDARD     [  0]   ***   
       VIBRATION            IVIB              NO        [  0]   ***   
       VIB_ALGORIT          IGEALG         STANDARD     [  0]   ***   
       VNATORB              IVNORB         OFF          [  0]   ***   
       VTRAN                IVTRAN         FULL/PARTIAL [  0]   ***   
       XFIELD               IXEFLD              0             x 10-6  
       XFORM_TOL            IXFTOL          10D- 18             ***   
       YFIELD               IYEFLD              0             x 10-6  
       ZFIELD               IZEFLD              0             x 10-6  
    -------------------------------------------------------------------
   2 entries found in Z-matrix 
   Job Title : TITLE                                                                           
 Variable names read by FETCHZ
  1           
  2           
  3           
  4 R         
  5           
  6           
 Atomic symbols read by FETCHZ
  1 H    
  2 H    
 Connectivity matrix read by FETCHZ
  1   0
  2   0
  3   0
  4   1
  5   0
  6   0
   There are  1 unique internal coordinates.
   Of these,  0 will be optimized.
   User supplied Z-matrix: 
--------------------------------------------------------------------------------
       SYMBOL    BOND      LENGTH    ANGLE     ANGLE     DIHED     ANGLE
                  TO      (ANGST)    WRT      (DEG)      WRT      (DEG)
--------------------------------------------------------------------------------
        H    
        H          1         R    
                  *Initial values for internal coordinates* 
                      Name             Value
                        R               1.4011000000
--------------------------------------------------------------------------------
  1  H          1     1.00783
  2  H          1     1.00783
    1.0078250350
    1.0078250350
 After translation to center of mass coordinates 
        0.000000000000    0.000000000000   -0.700550000000
        0.000000000000    0.000000000000    0.700550000000
  Inertia tensor (amu*bohr**2)
    0.98922    0.00000    0.00000
    0.00000    0.98922    0.00000
    0.00000    0.00000    0.00000
    Inertia tensor:
        0.989221194588    0.000000000000    0.000000000000
        0.000000000000    0.989221194588    0.000000000000
        0.000000000000    0.000000000000    0.000000000000
    Principal axis orientation for molecular system: 
       -0.000000000000    0.000000000000    0.700550000000
        0.000000000000    0.000000000000   -0.700550000000
    Diagonalized inertia tensor:
        0.989221194588    0.000000000000    0.000000000000
        0.000000000000    0.989221194588    0.000000000000
        0.000000000000    0.000000000000    0.000000000000
    Eigenvectors of inertia tensor: 
        1.000000000000    0.000000000000    0.000000000000
        0.000000000000    1.000000000000    0.000000000000
        0.000000000000    0.000000000000   -1.000000000000
 factor:   60.1997200000000     
   Rotational constants (in cm-1): 
         60.8556714407            60.8556714407
   Rotational constants (in MHz): 
    1824407.3880377901       1824407.3880377901
  @SYMMETRY-I, Handedness of inertial frame:-1.00000
  @SYMMETRY-I, Sense of inertial frame y-axis will be changed.
  @SYMMETRY-I, The symmetry group is 2-fold degenerate.
  @SYMMETRY-I, The molecule belongs to a point group with doubly degenerate representations.
  @SYMMETRY-I, The molecule is linear.
   Principal axis orientation for molecule:
       -0.000000000000    0.000000000000    0.700550000000
        0.000000000000    0.000000000000   -0.700550000000
   Reflection in plane  3 is a valid symmetry operation.
   Rotation about  3 is a valid symmetry operation 
   Reflection in plane  2 is a valid symmetry operation.
   Rotation about  2 is a valid symmetry operation 
   Reflection in plane  1 is a valid symmetry operation.
   Rotation about  1 is a valid symmetry operation 
   The molecule possesses an inversion center. 
  Symmetry bits:    7   7   1
********************************************************************************
   The full molecular point group is DXh .
   The largest Abelian subgroup of the full molecular point group is D2h .
   The computational point group is D2h .
********************************************************************************
--------------------------------------------------------------------------------
   Analysis of internal coordinates specified by Z-matrix 
--------------------------------------------------------------------------------
   *The nuclear repulsion energy is    0.713724930411819 a.u.
   *There is   1 degree of freedom within the tot. symm. molecular subspace.
   *Z-matrix requests optimization of   0 coordinates.
   *The optimization is constrained.
   *The following   1 parameters can have non-zero 
    derivatives within the totally symmetric subspace:
             R    [ 1]
   *The following   0 parameters are to be optimized:

   *The following coordinates must be varied in an  unconstrained optimization.
             R    [ 1]
--------------------------------------------------------------------------------
 ----------------------------------------------------------------
 Z-matrix   Atomic            Coordinates (in bohr)
  Symbol    Number           X              Y              Z
 ----------------------------------------------------------------
     H         1        -0.00000000     0.00000000     0.70055000
     H         1         0.00000000     0.00000000    -0.70055000
 ----------------------------------------------------------------
   Interatomic distance matrix (Angstroms) 
 
                 H             H    
                [ 1]        [ 2]
  H    [ 1]     0.00000
  H    [ 2]     0.74143     0.00000
  Inertia tensor (amu*bohr**2)
    0.98922    0.00000    0.00000
    0.00000    0.98922    0.00000
    0.00000    0.00000    0.00000
   Rotational constants (in cm-1): 
         60.8556714407             0.0000000000
   Rotational constants (in MHz): 
    1824407.3880377901             0.0000000000
  @GTFLGS-W, Keyword #GEOM not known and is ignored.
  @GTFLGS-W, Keyword #COORD not known and is ignored.
  @GTFLGS-W, Keyword #CC_PROG not known and is ignored.
  @GTFLGS-W, Keyword #DROPMO not known and is ignored.
  @GTFLGS-W, Keyword #CONTRACTION not known and is ignored.
  @GTFLGS-W, Keyword #EXCITE not known and is ignored.
  @GTFLGS-W, Keyword #ESTATE_CONV not known and is ignored.
  @GTFLGS-W, Keyword #ESTATE_SYM not known and is ignored.
  @GTFLGS-W, Keyword #SCF_DAMPING not known and is ignored.
  @GTFLGS-W, Keyword #OCCUPATION not known and is ignored.
  There are   28 basis functions.
 @GEOPT-W, Archive file not created for single-point calculation.
  @CHECKOUT-I, Total execution time (CPU/WALL):        0.45/       1.10 seconds.
--executable xjoda finished with status     0 in        3.57 seconds (walltime).
 --invoking executable--
/home/nike/cfour_v2.00beta/cfour_v2.00beta/bin/xvmol
 Serial version of molecule started
********************************************************************************
                    Input from MOL file
********************************************************************************
INTGRL        1    0    1    0    0    0    0    0    0                         
         *** CFOUR Program System (Release V0.1) ***                            
TITLE                                                                           
    1    3 X  Y   Z   0.10E-08              0    0                              
   9999.00      3.00                                                            
          1.00000000    1    3    1    1    1                                   
H #1  -0.000000000000000   0.000000000000000   0.700550000000000                
    5    3                                                                      
   34.0613410000000       6.025197800000000E-003  0.000000000000000E+000        
  0.000000000000000E+000                                                        
   5.12357460000000       4.502109400000000E-002  0.000000000000000E+000        
  0.000000000000000E+000                                                        
   1.16466260000000       0.201897260000000       0.000000000000000E+000        
  0.000000000000000E+000                                                        
  0.327230410000000       0.000000000000000E+000   1.00000000000000             
  0.000000000000000E+000                                                        
  0.103072410000000       0.000000000000000E+000  0.000000000000000E+000        
   1.00000000000000                                                             
    2    2                                                                      
   1.40700000000000        1.00000000000000       0.000000000000000E+000        
  0.388000000000000       0.000000000000000E+000   1.00000000000000             
    1    1                                                                      
   1.05700000000000        1.00000000000000                                     
FINISH                                                                          
 
********************************************************************************
 One- and two-electron integrals over symmetry-adapted AOs are calculated.

  Spherical harmonics are used.
  
   1 types of atoms
   3 symmetry operations

   Reflection in the YZ-plane
   Reflection in the XZ-plane
   Reflection in the XY-plane
  
  Integrals less than  0.10E-13 are neglected.

  Atomic type number  1 :
  -----------------------

    Nuclear charge:                        1
    number of symmetry independent atoms:  1
    highest orbital type:                  d

      1 groups of CGTOs of s type
      1 groups of CGTOs of p type
      1 groups of CGTOs of d type

    nuclear coordinates (in a.u.) are :

    H #1        0.000000000000000        0.000000000000000        0.700550000000000
  
   Basis function not normalized: 
   Center (as ordered in MOL file):   1
   Angular Momentum type          : s
   Offset within angular momentum :  1
   <chi|chi>                      :    4.2221530402
   Internuclear distances (A) :

     for atom H #1 (coordinates :   0.00000   0.00000   0.70055)

     H #1   5     distance is  0.741

   Group multiplication table :

         1   2   3   4   5   6   7   8
         2   1   4   3   6   5   8   7
         3   4   1   2   7   8   5   6
         4   3   2   1   8   7   6   5
         5   6   7   8   1   2   3   4
         6   5   8   7   2   1   4   3
         7   8   5   6   3   4   1   2
         8   7   6   5   4   3   2   1

   Gaussian basis information :

   atom                 exponent      coefficients

 H #1  1    S   
+                 1      34.061341   0.0060252   0.0000000   0.0000000
                  2       5.123575   0.0450211   0.0000000   0.0000000
                  3       1.164663   0.2018973   0.0000000   0.0000000
                  4       0.327230   0.0000000   1.0000000   0.0000000
                  5       0.103072   0.0000000   0.0000000   1.0000000

 H #1  5    S   
+                 6      34.061341   0.0060252   0.0000000   0.0000000
                  7       5.123575   0.0450211   0.0000000   0.0000000
                  8       1.164663   0.2018973   0.0000000   0.0000000
                  9       0.327230   0.0000000   1.0000000   0.0000000
                 10       0.103072   0.0000000   0.0000000   1.0000000

 H #1  1    X   
+                11       1.407000   1.0000000   0.0000000
                 12       0.388000   0.0000000   1.0000000

 H #1  5    X   
+                13       1.407000   1.0000000   0.0000000
                 14       0.388000   0.0000000   1.0000000

 H #1  1    Y   
+                15       1.407000   1.0000000   0.0000000
                 16       0.388000   0.0000000   1.0000000

 H #1  5    Y   
+                17       1.407000   1.0000000   0.0000000
                 18       0.388000   0.0000000   1.0000000

 H #1  1    Z   
+                19       1.407000   1.0000000   0.0000000
                 20       0.388000   0.0000000   1.0000000

 H #1  5    Z   
+                21       1.407000   1.0000000   0.0000000
                 22       0.388000   0.0000000   1.0000000

 H #1  1    XX  
+                23       1.057000   1.0000000

 H #1  5    XX  
+                24       1.057000   1.0000000

 H #1  1    XY  
+                25       1.057000   1.0000000

 H #1  5    XY  
+                26       1.057000   1.0000000

 H #1  1    XZ  
+                27       1.057000   1.0000000

 H #1  5    XZ  
+                28       1.057000   1.0000000

 H #1  1    YY  
+                29       1.057000   1.0000000

 H #1  5    YY  
+                30       1.057000   1.0000000

 H #1  1    YZ  
+                31       1.057000   1.0000000

 H #1  5    YZ  
+                32       1.057000   1.0000000

 H #1  1    ZZ  
+                33       1.057000   1.0000000

 H #1  5    ZZ  
+                34       1.057000   1.0000000
 30 28
  1  2  3  4  5  6  7***  8  9 10 11 12 13 14 15 16 17 18 19 20 21*** 22 23
 24 25 26 27 28
1

             SYMMETRY TRANSFORMATION INFO
             28 SYMMETRY ADAPTED BASIS FUNCTIONS 


          irreducible representation number 1

    1    1  H #1     1s     2   1   1.0   2   1.0
    2    2  H #1     1s     2   3   1.0   4   1.0
    3    3  H #1     1s     2   5   1.0   6   1.0
    4    4  H #1     2pz    2  15   1.0  16  -1.0
    5    5  H #1     2pz    2  17   1.0  18  -1.0
    6    6  H #1     3d2-   6  19  -1.0  25  -1.0  29   2.0  20  -1.0  26  -1.0  30   2.0
    7    7  H #1     3d1+   4  19   1.0  25  -1.0  20   1.0  26  -1.0


          irreducible representation number 2

    8    1  H #1     2px    2   7   1.0   8   1.0
    9    2  H #1     2px    2   9   1.0  10   1.0
   10    3  H #1     3d0    2  23   1.0  24  -1.0


          irreducible representation number 3

   11    1  H #1     2py    2  11   1.0  12   1.0
   12    2  H #1     2py    2  13   1.0  14   1.0
   13    3  H #1     3d2+   2  27   1.0  28  -1.0


          irreducible representation number 4

   14    1  H #1     3d1-   2  21   1.0  22   1.0


          irreducible representation number 5

   15    1  H #1     1s     2   1   1.0   2  -1.0
   16    2  H #1     1s     2   3   1.0   4  -1.0
   17    3  H #1     1s     2   5   1.0   6  -1.0
   18    4  H #1     2pz    2  15   1.0  16   1.0
   19    5  H #1     2pz    2  17   1.0  18   1.0
   20    6  H #1     3d2-   6  19  -1.0  25  -1.0  29   2.0  20   1.0  26   1.0  30  -2.0
   21    7  H #1     3d1+   4  19   1.0  25  -1.0  20  -1.0  26   1.0


          irreducible representation number 6

   22    1  H #1     2px    2   7   1.0   8  -1.0
   23    2  H #1     2px    2   9   1.0  10  -1.0
   24    3  H #1     3d0    2  23   1.0  24   1.0


          irreducible representation number 7

   25    1  H #1     2py    2  11   1.0  12  -1.0
   26    2  H #1     2py    2  13   1.0  14  -1.0
   27    3  H #1     3d2+   2  27   1.0  28   1.0


          irreducible representation number 8

   28    1  H #1     3d1-   2  21   1.0  22  -1.0
  Nuclear repulsion energy :    0.7137249304 a.u.
  required memory for a1 array                5009076  words 
  required memory for a2 array                2004508  words 
 @GETMEM-I,  Allocated      68 MB of main memory.
  @MOLECU-I, One electron integrals (CPU/WALL):        0.02/       0.06 seconds.
  @TWOEL-I,        634 integrals of symmetry type  I I I I
  @TWOEL-I,       3036 integrals of symmetry type  I J I J
  @TWOEL-I,       2217 integrals of symmetry type  I I J J
  @TWOEL-I,       4494 integrals of symmetry type  I J K L
  @TWOEL-I, Total number of 2-e integrals      10381.
  @MOLECU-I, Two electron integrals (CPU/WALL):        0.02/       0.02 seconds.
  @CHECKOUT-I, Total execution time (CPU/WALL):        0.17/       0.55 seconds.
--executable xvmol finished with status     0 in        0.68 seconds (walltime).
 --invoking executable--
/home/nike/cfour_v2.00beta/cfour_v2.00beta/bin/xvmol2ja
 @GETMEM-I,  Allocated   11444 MB of main memory.
  @CHECKOUT-I, Total execution time (CPU/WALL):        0.01/       0.04 seconds.
--executable xvmol2ja finished with status     0 in        0.12 seconds (walltime).
 --invoking executable--
/home/nike/cfour_v2.00beta/cfour_v2.00beta/bin/xvscf
  There are   28 functions in the AO basis.

  There are 8 irreducible representations.

       Irrep        # of functions
         1                  7
         2                  3
         3                  3
         4                  1
         5                  7
         6                  3
         7                  3
         8                  1


  Parameters for SCF calculation: 
        SCF reference function:  RHF  
  Maximum number of iterations: ****
     Full symmetry point group: DXh 
     Computational point group: D2h 
        Initial density matrix: MOREAD                 
     SCF convergence tolerance: 10**(-12)
  DIIS convergence acceleration:  ON
          Latest start for DIIS:   5
                     DIIS order:   6

  Memory information:      70066 words required.
  Fock matrices are constructed from AO integral file.
 @GETMEM-I,  Allocated       0 MB of main memory.
  Initialization and symmetry analysis required      0.021 seconds.

  @INITGES-I, Occupancies from core Hamiltonian:

          Alpha population by irrep:   1    0    0    0    0    0    0    0
           Beta population by irrep:   1    0    0    0    0    0    0    0


 total no. of electrons in initial guess :  0.000000000000000E+000
  --------------------------------------------------------------------
  Iteration         Total Energy            Largest Density Difference
  --------------------------------------------------------------------
       0             0.713724930411819              0.0000000000D+00
   current occupation vector 
     1  0  0  0  0  0  0  0
     1  0  0  0  0  0  0  0
  processed                    634  ao basis integrals from 
                     2  buffers.
  processed                   2217  ao basis integrals from 
                     4  buffers.
  processed                   3036  ao basis integrals from 
                     6  buffers.
       1            -1.074202194880521              0.2055721457D+00
   current occupation vector 
     1  0  0  0  0  0  0  0
     1  0  0  0  0  0  0  0
  processed                    634  ao basis integrals from 
                     2  buffers.
  processed                   2217  ao basis integrals from 
                     4  buffers.
  processed                   3036  ao basis integrals from 
                     6  buffers.
       2            -1.131101809587134              0.4764339414D-01
   current occupation vector 
     1  0  0  0  0  0  0  0
     1  0  0  0  0  0  0  0
  processed                    634  ao basis integrals from 
                     2  buffers.
  processed                   2217  ao basis integrals from 
                     4  buffers.
  processed                   3036  ao basis integrals from 
                     6  buffers.
       3            -1.132936314171280              0.1608802607D-01
   current occupation vector 
     1  0  0  0  0  0  0  0
     1  0  0  0  0  0  0  0
  processed                    634  ao basis integrals from 
                     2  buffers.
  processed                   2217  ao basis integrals from 
                     4  buffers.
  processed                   3036  ao basis integrals from 
                     6  buffers.
       4            -1.132959041107216              0.3714381938D-02
   current occupation vector 
     1  0  0  0  0  0  0  0
     1  0  0  0  0  0  0  0
 
 sum over diagonal and offdiagdiagonal of C(T)*S*C for irrep
                     1
  9.436895709313831E-015 -1.078014274387051E-014
 reorthoganalization of MOs is carried out
 sum over diagonal and offdiagdiagonal of C(T)*S*C for irrep
                     1
  4.440892098500626E-016 -1.650270161471862E-015
 
 sum over diagonal and offdiagdiagonal of C(T)*S*C for irrep
                     2
 -1.332267629550188E-015  8.279177870224067E-015
 reorthoganalization of MOs is carried out
 sum over diagonal and offdiagdiagonal of C(T)*S*C for irrep
                     2
 -3.330669073875470E-016  1.140389588754170E-016
 
 sum over diagonal and offdiagdiagonal of C(T)*S*C for irrep
                     3
 -1.332267629550188E-015  8.279177870224067E-015
 reorthoganalization of MOs is carried out
 sum over diagonal and offdiagdiagonal of C(T)*S*C for irrep
                     3
 -3.330669073875470E-016  1.140389588754170E-016
 
 sum over diagonal and offdiagdiagonal of C(T)*S*C for irrep
                     4
  0.000000000000000E+000  0.000000000000000E+000
 reorthoganalization of MOs is carried out
 sum over diagonal and offdiagdiagonal of C(T)*S*C for irrep
                     4
  0.000000000000000E+000  0.000000000000000E+000
 
 sum over diagonal and offdiagdiagonal of C(T)*S*C for irrep
                     5
  8.226752612472410E-014  6.620812433130728E-014
 reorthoganalization of MOs is carried out
 sum over diagonal and offdiagdiagonal of C(T)*S*C for irrep
                     5
 -1.909583602355269E-014 -2.025249487205656E-015
 
 sum over diagonal and offdiagdiagonal of C(T)*S*C for irrep
                     6
  1.398881011027697E-014 -1.199990477470138E-016
 reorthoganalization of MOs is carried out
 sum over diagonal and offdiagdiagonal of C(T)*S*C for irrep
                     6
  6.661338147750939E-016 -3.639215739655878E-016
 
 sum over diagonal and offdiagdiagonal of C(T)*S*C for irrep
                     7
  1.398881011027697E-014 -1.199990477470138E-016
 reorthoganalization of MOs is carried out
 sum over diagonal and offdiagdiagonal of C(T)*S*C for irrep
                     7
  6.661338147750939E-016 -3.639215739655878E-016
 
 sum over diagonal and offdiagdiagonal of C(T)*S*C for irrep
                     8
 -2.220446049250313E-016  0.000000000000000E+000
 reorthoganalization of MOs is carried out
 sum over diagonal and offdiagdiagonal of C(T)*S*C for irrep
                     8
 -2.220446049250313E-016  0.000000000000000E+000
  processed                    634  ao basis integrals from 
                     2  buffers.
  processed                   2217  ao basis integrals from 
                     4  buffers.
  processed                   3036  ao basis integrals from 
                     6  buffers.
       5            -1.132959092012263              0.1840539563D-03
   current occupation vector 
     1  0  0  0  0  0  0  0
     1  0  0  0  0  0  0  0
  processed                    634  ao basis integrals from 
                     2  buffers.
  processed                   2217  ao basis integrals from 
                     4  buffers.
  processed                   3036  ao basis integrals from 
                     6  buffers.
       6            -1.132959092350776              0.8495486309D-05
   current occupation vector 
     1  0  0  0  0  0  0  0
     1  0  0  0  0  0  0  0
  processed                    634  ao basis integrals from 
                     2  buffers.
  processed                   2217  ao basis integrals from 
                     4  buffers.
  processed                   3036  ao basis integrals from 
                     6  buffers.
       7            -1.132959092351240              0.1717579815D-06
   current occupation vector 
     1  0  0  0  0  0  0  0
     1  0  0  0  0  0  0  0
  processed                    634  ao basis integrals from 
                     2  buffers.
  processed                   2217  ao basis integrals from 
                     4  buffers.
  processed                   3036  ao basis integrals from 
                     6  buffers.
       8            -1.132959092351240              0.9658596284D-08
   current occupation vector 
     1  0  0  0  0  0  0  0
     1  0  0  0  0  0  0  0
  processed                    634  ao basis integrals from 
                     2  buffers.
  processed                   2217  ao basis integrals from 
                     4  buffers.
  processed                   3036  ao basis integrals from 
                     6  buffers.
       9            -1.132959092351237              0.1475296552D-09
   current occupation vector 
     1  0  0  0  0  0  0  0
     1  0  0  0  0  0  0  0
 
 sum over diagonal and offdiagdiagonal of C(T)*S*C for irrep
                     1
  9.325873406851315E-015 -6.634764567824534E-015
 reorthoganalization of MOs is carried out
 sum over diagonal and offdiagdiagonal of C(T)*S*C for irrep
                     1
  3.330669073875470E-016  1.160278896287501E-015
 
 sum over diagonal and offdiagdiagonal of C(T)*S*C for irrep
                     2
 -6.661338147750939E-015  8.302023058127232E-015
 reorthoganalization of MOs is carried out
 sum over diagonal and offdiagdiagonal of C(T)*S*C for irrep
                     2
 -1.110223024625157E-016  7.682545302016846E-017
 
 sum over diagonal and offdiagdiagonal of C(T)*S*C for irrep
                     3
 -6.661338147750939E-015  8.302023058127232E-015
 reorthoganalization of MOs is carried out
 sum over diagonal and offdiagdiagonal of C(T)*S*C for irrep
                     3
 -1.110223024625157E-016  7.682545302016846E-017
 
 sum over diagonal and offdiagdiagonal of C(T)*S*C for irrep
                     4
  0.000000000000000E+000  0.000000000000000E+000
 reorthoganalization of MOs is carried out
 sum over diagonal and offdiagdiagonal of C(T)*S*C for irrep
                     4
  0.000000000000000E+000  0.000000000000000E+000
 
 sum over diagonal and offdiagdiagonal of C(T)*S*C for irrep
                     5
  6.750155989720952E-014  4.045904700701656E-014
 reorthoganalization of MOs is carried out
 sum over diagonal and offdiagdiagonal of C(T)*S*C for irrep
                     5
  1.276756478318930E-014  6.896513152102009E-015
 
 sum over diagonal and offdiagdiagonal of C(T)*S*C for irrep
                     6
  8.215650382226158E-015 -2.239167758323228E-015
 reorthoganalization of MOs is carried out
 sum over diagonal and offdiagdiagonal of C(T)*S*C for irrep
                     6
  4.440892098500626E-016  4.728522016518407E-017
 
 sum over diagonal and offdiagdiagonal of C(T)*S*C for irrep
                     7
  8.215650382226158E-015 -2.239167758323228E-015
 reorthoganalization of MOs is carried out
 sum over diagonal and offdiagdiagonal of C(T)*S*C for irrep
                     7
  4.440892098500626E-016  4.728522016518407E-017
 
 sum over diagonal and offdiagdiagonal of C(T)*S*C for irrep
                     8
 -2.220446049250313E-016  0.000000000000000E+000
 reorthoganalization of MOs is carried out
 sum over diagonal and offdiagdiagonal of C(T)*S*C for irrep
                     8
 -2.220446049250313E-016  0.000000000000000E+000

  SCF has converged.

 Density matrix saved to file den.dat
 total electron number:   2.00000000000000     
  processed                    634  ao basis integrals from 
                     2  buffers.
  processed                   2217  ao basis integrals from 
                     4  buffers.
  processed                   3036  ao basis integrals from 
                     6  buffers.
     E(SCF)=        -1.132959092351234              0.3459177389D-12


  ORBITAL EIGENVECTORS

  SYMMETRY BLOCK 1 (ALPHA)

                          MO #  1       MO #  2       MO #  3       MO #  4

    BASIS/ORB E           -0.59425       0.30673       1.09660       2.41795
                        ----------    ----------    ----------    ----------
    1; H #1                0.18556       0.05592       0.00665       0.95455
    2; H #1                0.28368       0.73601       0.66762      -0.99105
    3; H #1                0.13649      -0.86064      -0.35581       0.38623
    4; H #1               -0.01205      -0.01668      -0.10290      -0.10645
    5; H #1               -0.01744       0.05052       1.06119       0.23758
    6; H #1                0.00025      -0.00235      -0.01925       0.03287
    7; H #1                0.00000       0.00000       0.00000       0.00000


                          MO #  5       MO #  6       MO #  7

    BASIS\ORB E            3.17526       3.67482       5.80887
                        ----------    ----------    ----------
    1; H #1                0.00000       0.08263       1.20873
    2; H #1                0.00000       0.26936      -0.57261
    3; H #1                0.00000      -0.15505       0.09237
    4; H #1                0.00000      -0.82277      -0.02657
    5; H #1                0.00000       0.87207       0.70660
    6; H #1                0.00000      -0.12446      -0.32140
    7; H #1                0.30380       0.00000       0.00000


  SYMMETRY BLOCK 2 (ALPHA)

                          MO #  8       MO #  9       MO # 10

    BASIS\ORB E            0.69255       3.41191       4.11364
                        ----------    ----------    ----------
    8; H #1                0.05871       0.58789       0.65667
    9; H #1               -0.57845      -0.35651      -0.24859
   10; H #1               -0.00907      -0.32171       0.56376


  SYMMETRY BLOCK 3 (ALPHA)

                          MO # 11       MO # 12       MO # 13

    BASIS\ORB E            0.69255       3.41191       4.11364
                        ----------    ----------    ----------
   11; H #1                0.05871       0.58789       0.65667
   12; H #1               -0.57845      -0.35651      -0.24859
   13; H #1               -0.00907      -0.32171       0.56376


  SYMMETRY BLOCK 4 (ALPHA)

                          MO # 14

    BASIS\ORB E            3.17526
                        ----------
   14; H #1                0.60760


  SYMMETRY BLOCK 5 (ALPHA)

                          MO # 15       MO # 16       MO # 17       MO # 18

    BASIS/ORB E            0.16755       0.64584       1.52880       2.34706
                        ----------    ----------    ----------    ----------
   15; H #1                0.06711       0.12314       0.03663       0.63349
   16; H #1               -0.29268       2.17780      13.01349      -3.60722
   17; H #1                2.31550      -2.24463      -0.25930       1.31804
   18; H #1                0.03495      -0.08440      -0.13028       0.56247
   19; H #1                0.09492      -0.16371      -6.20972       0.77678
   20; H #1               -0.00544       0.01986       0.08424      -0.12340
   21; H #1                0.00000       0.00000       0.00000       0.00000


                          MO # 19       MO # 20       MO # 21

    BASIS\ORB E            4.08381       4.64892       6.97180
                        ----------    ----------    ----------
   15; H #1                0.00000       0.68675       1.54434
   16; H #1                0.00000       7.01455       4.39858
   17; H #1                0.00000       0.14390      -0.59048
   18; H #1                0.00000       0.19009      -1.96861
   19; H #1                0.00000      -3.69855      -1.70308
   20; H #1                0.00000       0.27703       0.29575
   21; H #1                0.44000       0.00000       0.00000


  SYMMETRY BLOCK 6 (ALPHA)

                          MO # 22       MO # 23       MO # 24

    BASIS\ORB E            1.11989       3.89402       5.72741
                        ----------    ----------    ----------
   22; H #1                0.06731       0.50070       1.06791
   23; H #1               -1.41582      -1.13488       0.46789
   24; H #1                0.10756       0.83253      -1.35112


  SYMMETRY BLOCK 7 (ALPHA)

                          MO # 25       MO # 26       MO # 27

    BASIS\ORB E            1.11989       3.89402       5.72741
                        ----------    ----------    ----------
   25; H #1                0.06731       0.50070       1.06791
   26; H #1               -1.41582      -1.13488       0.46789
   27; H #1                0.10756       0.83253      -1.35112


  SYMMETRY BLOCK 8 (ALPHA)

                          MO # 28

    BASIS\ORB E            4.08381
                        ----------
   28; H #1                0.88000


 @PUTMOS-I, Writing converged MOs to NEWMOS. 
 @PUTMOS-I, Symmetry   1 Full Blocks  1 Partial Blocksize   3
 @PUTMOS-I, Symmetry   2 Full Blocks  0 Partial Blocksize   3
 @PUTMOS-I, Symmetry   3 Full Blocks  0 Partial Blocksize   3
 @PUTMOS-I, Symmetry   4 Full Blocks  0 Partial Blocksize   1
 @PUTMOS-I, Symmetry   5 Full Blocks  1 Partial Blocksize   3
 @PUTMOS-I, Symmetry   6 Full Blocks  0 Partial Blocksize   3
 @PUTMOS-I, Symmetry   7 Full Blocks  0 Partial Blocksize   3
 @PUTMOS-I, Symmetry   8 Full Blocks  0 Partial Blocksize   1
--------------------------------------------------------------------------------
Eigenvalue     -0.594254      0.167552      0.306729      0.645837      0.692552
 Symmetry        SGg+          SGu+          SGg+          SGu+          PIu     
--------------------------------------------------------------------------------
   1 S         0.1855599     0.0671139     0.0559152     0.1231390     0.0000000
   1 S         0.2836760    -0.2926804     0.7360065     2.1777982     0.0000000
   1 S         0.1364851     2.3154957    -0.8606444    -2.2446350     0.0000000
   1 PX        0.0000000     0.0000000     0.0000000     0.0000000     0.0587067
   1 PY        0.0000000     0.0000000     0.0000000     0.0000000     0.0000000
   1 PZ       -0.0120493     0.0349463    -0.0166802    -0.0843959     0.0000000
   1 PX        0.0000000     0.0000000     0.0000000     0.0000000    -0.5784547
   1 PY        0.0000000     0.0000000     0.0000000     0.0000000     0.0000000
   1 PZ       -0.0174391     0.0949195     0.0505242    -0.1637093     0.0000000
   1 DX2      -0.0002457     0.0054409     0.0023536    -0.0198601     0.0000000
   1 DXY       0.0000000     0.0000000     0.0000000     0.0000000     0.0000000
   1 DXZ       0.0000000     0.0000000     0.0000000     0.0000000    -0.0090721
   1 DY2      -0.0002457     0.0054409     0.0023536    -0.0198601     0.0000000
   1 DYZ       0.0000000     0.0000000     0.0000000     0.0000000     0.0000000
   1 DZZ       0.0004914    -0.0108817    -0.0047072     0.0397202     0.0000000
   2 S         0.1855599    -0.0671139     0.0559152    -0.1231390     0.0000000
   2 S         0.2836760     0.2926804     0.7360065    -2.1777982     0.0000000
   2 S         0.1364851    -2.3154957    -0.8606444     2.2446350     0.0000000
   2 PX        0.0000000     0.0000000     0.0000000     0.0000000     0.0587067
   2 PY        0.0000000     0.0000000     0.0000000     0.0000000     0.0000000
   2 PZ        0.0120493     0.0349463     0.0166802    -0.0843959     0.0000000
   2 PX        0.0000000     0.0000000     0.0000000     0.0000000    -0.5784547
   2 PY        0.0000000     0.0000000     0.0000000     0.0000000     0.0000000
   2 PZ        0.0174391     0.0949195    -0.0505242    -0.1637093     0.0000000
   2 DX2      -0.0002457    -0.0054409     0.0023536     0.0198601     0.0000000
   2 DXY       0.0000000     0.0000000     0.0000000     0.0000000     0.0000000
   2 DXZ       0.0000000     0.0000000     0.0000000     0.0000000     0.0090721
   2 DY2      -0.0002457    -0.0054409     0.0023536     0.0198601     0.0000000
   2 DYZ       0.0000000     0.0000000     0.0000000     0.0000000     0.0000000
   2 DZZ       0.0004914     0.0108817    -0.0047072    -0.0397202     0.0000000
--------------------------------------------------------------------------------
Eigenvalue      0.692552      1.096601      1.119887      1.119887      1.528798
 Symmetry        PIu           SGg+          PIg           PIg           SGu+    
--------------------------------------------------------------------------------
   1 S         0.0000000     0.0066472     0.0000000     0.0000000     0.0366293
   1 S         0.0000000     0.6676229     0.0000000     0.0000000    13.0134865
   1 S         0.0000000    -0.3558078     0.0000000     0.0000000    -0.2592988
   1 PX        0.0000000     0.0000000     0.0673057     0.0000000     0.0000000
   1 PY        0.0587067     0.0000000     0.0000000     0.0673057     0.0000000
   1 PZ        0.0000000    -0.1028970     0.0000000     0.0000000    -0.1302814
   1 PX        0.0000000     0.0000000    -1.4158161     0.0000000     0.0000000
   1 PY       -0.5784547     0.0000000     0.0000000    -1.4158161     0.0000000
   1 PZ        0.0000000     1.0611854     0.0000000     0.0000000    -6.2097177
   1 DX2       0.0000000     0.0192488     0.0000000     0.0000000    -0.0842385
   1 DXY       0.0000000     0.0000000     0.0000000     0.0000000     0.0000000
   1 DXZ       0.0000000     0.0000000     0.1075573     0.0000000     0.0000000
   1 DY2       0.0000000     0.0192488     0.0000000     0.0000000    -0.0842385
   1 DYZ      -0.0090721     0.0000000     0.0000000     0.1075573     0.0000000
   1 DZZ       0.0000000    -0.0384976     0.0000000     0.0000000     0.1684771
   2 S         0.0000000     0.0066472     0.0000000     0.0000000    -0.0366293
   2 S         0.0000000     0.6676229     0.0000000     0.0000000   -13.0134865
   2 S         0.0000000    -0.3558078     0.0000000     0.0000000     0.2592988
   2 PX        0.0000000     0.0000000    -0.0673057     0.0000000     0.0000000
   2 PY        0.0587067     0.0000000     0.0000000    -0.0673057     0.0000000
   2 PZ        0.0000000     0.1028970     0.0000000     0.0000000    -0.1302814
   2 PX        0.0000000     0.0000000     1.4158161     0.0000000     0.0000000
   2 PY       -0.5784547     0.0000000     0.0000000     1.4158161     0.0000000
   2 PZ        0.0000000    -1.0611854     0.0000000     0.0000000    -6.2097177
   2 DX2       0.0000000     0.0192488     0.0000000     0.0000000     0.0842385
   2 DXY       0.0000000     0.0000000     0.0000000     0.0000000     0.0000000
   2 DXZ       0.0000000     0.0000000     0.1075573     0.0000000     0.0000000
   2 DY2       0.0000000     0.0192488     0.0000000     0.0000000     0.0842385
   2 DYZ       0.0090721     0.0000000     0.0000000     0.1075573     0.0000000
   2 DZZ       0.0000000    -0.0384976     0.0000000     0.0000000    -0.1684771
--------------------------------------------------------------------------------
Eigenvalue      2.347060      2.417950      3.175258      3.175258      3.411911
 Symmetry        SGu+          SGg+          DEg           DEg           PIu     
--------------------------------------------------------------------------------
   1 S         0.6334925     0.9545501     0.0000000     0.0000000     0.0000000
   1 S        -3.6072160    -0.9910487     0.0000000     0.0000000     0.0000000
   1 S         1.3180394     0.3862252     0.0000000     0.0000000     0.0000000
   1 PX        0.0000000     0.0000000     0.0000000     0.0000000     0.5878853
   1 PY        0.0000000     0.0000000     0.0000000     0.0000000     0.0000000
   1 PZ        0.5624702    -0.1064501     0.0000000     0.0000000     0.0000000
   1 PX        0.0000000     0.0000000     0.0000000     0.0000000    -0.3565091
   1 PY        0.0000000     0.0000000     0.0000000     0.0000000     0.0000000
   1 PZ        0.7767802     0.2375801     0.0000000     0.0000000     0.0000000
   1 DX2       0.1233987    -0.0328707     0.0000000     0.3038020     0.0000000
   1 DXY       0.0000000     0.0000000     0.6076039     0.0000000     0.0000000
   1 DXZ       0.0000000     0.0000000     0.0000000     0.0000000    -0.3217086
   1 DY2       0.1233987    -0.0328707     0.0000000    -0.3038020     0.0000000
   1 DYZ       0.0000000     0.0000000     0.0000000     0.0000000     0.0000000
   1 DZZ      -0.2467973     0.0657414     0.0000000     0.0000000     0.0000000
   2 S        -0.6334925     0.9545501     0.0000000     0.0000000     0.0000000
   2 S         3.6072160    -0.9910487     0.0000000     0.0000000     0.0000000
   2 S        -1.3180394     0.3862252     0.0000000     0.0000000     0.0000000
   2 PX        0.0000000     0.0000000     0.0000000     0.0000000     0.5878853
   2 PY        0.0000000     0.0000000     0.0000000     0.0000000     0.0000000
   2 PZ        0.5624702     0.1064501     0.0000000     0.0000000     0.0000000
   2 PX        0.0000000     0.0000000     0.0000000     0.0000000    -0.3565091
   2 PY        0.0000000     0.0000000     0.0000000     0.0000000     0.0000000
   2 PZ        0.7767802    -0.2375801     0.0000000     0.0000000     0.0000000
   2 DX2      -0.1233987    -0.0328707     0.0000000     0.3038020     0.0000000
   2 DXY       0.0000000     0.0000000     0.6076039     0.0000000     0.0000000
   2 DXZ       0.0000000     0.0000000     0.0000000     0.0000000     0.3217086
   2 DY2      -0.1233987    -0.0328707     0.0000000    -0.3038020     0.0000000
   2 DYZ       0.0000000     0.0000000     0.0000000     0.0000000     0.0000000
   2 DZZ       0.2467973     0.0657414     0.0000000     0.0000000     0.0000000
--------------------------------------------------------------------------------
Eigenvalue      3.411911      3.674825      3.894018      3.894018      4.083814
 Symmetry        PIu           SGg+          PIg           PIg           DEu     
--------------------------------------------------------------------------------
   1 S         0.0000000     0.0826316     0.0000000     0.0000000     0.0000000
   1 S         0.0000000     0.2693600     0.0000000     0.0000000     0.0000000
   1 S         0.0000000    -0.1550521     0.0000000     0.0000000     0.0000000
   1 PX        0.0000000     0.0000000     0.5006968     0.0000000     0.0000000
   1 PY        0.5878853     0.0000000     0.0000000     0.5006968     0.0000000
   1 PZ        0.0000000    -0.8227700     0.0000000     0.0000000     0.0000000
   1 PX        0.0000000     0.0000000    -1.1348836     0.0000000     0.0000000
   1 PY       -0.3565091     0.0000000     0.0000000    -1.1348836     0.0000000
   1 PZ        0.0000000     0.8720720     0.0000000     0.0000000     0.0000000
   1 DX2       0.0000000     0.1244577     0.0000000     0.0000000     0.0000000
   1 DXY       0.0000000     0.0000000     0.0000000     0.0000000     0.8800032
   1 DXZ       0.0000000     0.0000000     0.8325343     0.0000000     0.0000000
   1 DY2       0.0000000     0.1244577     0.0000000     0.0000000     0.0000000
   1 DYZ      -0.3217086     0.0000000     0.0000000     0.8325343     0.0000000
   1 DZZ       0.0000000    -0.2489154     0.0000000     0.0000000     0.0000000
   2 S         0.0000000     0.0826316     0.0000000     0.0000000     0.0000000
   2 S         0.0000000     0.2693600     0.0000000     0.0000000     0.0000000
   2 S         0.0000000    -0.1550521     0.0000000     0.0000000     0.0000000
   2 PX        0.0000000     0.0000000    -0.5006968     0.0000000     0.0000000
   2 PY        0.5878853     0.0000000     0.0000000    -0.5006968     0.0000000
   2 PZ        0.0000000     0.8227700     0.0000000     0.0000000     0.0000000
   2 PX        0.0000000     0.0000000     1.1348836     0.0000000     0.0000000
   2 PY       -0.3565091     0.0000000     0.0000000     1.1348836     0.0000000
   2 PZ        0.0000000    -0.8720720     0.0000000     0.0000000     0.0000000
   2 DX2       0.0000000     0.1244577     0.0000000     0.0000000     0.0000000
   2 DXY       0.0000000     0.0000000     0.0000000     0.0000000    -0.8800032
   2 DXZ       0.0000000     0.0000000     0.8325343     0.0000000     0.0000000
   2 DY2       0.0000000     0.1244577     0.0000000     0.0000000     0.0000000
   2 DYZ       0.3217086     0.0000000     0.0000000     0.8325343     0.0000000
   2 DZZ       0.0000000    -0.2489154     0.0000000     0.0000000     0.0000000
--------------------------------------------------------------------------------
Eigenvalue      4.083814      4.113642      4.113642      4.648920      5.727408
 Symmetry        DEu           PIu           PIu           SGu+          PIg     
--------------------------------------------------------------------------------
   1 S         0.0000000     0.0000000     0.0000000     0.6867534     0.0000000
   1 S         0.0000000     0.0000000     0.0000000     7.0145496     0.0000000
   1 S         0.0000000     0.0000000     0.0000000     0.1439018     0.0000000
   1 PX        0.0000000     0.6566670     0.0000000     0.0000000     1.0679142
   1 PY        0.0000000     0.0000000     0.6566670     0.0000000     0.0000000
   1 PZ        0.0000000     0.0000000     0.0000000     0.1900861     0.0000000
   1 PX        0.0000000    -0.2485851     0.0000000     0.0000000     0.4678945
   1 PY        0.0000000     0.0000000    -0.2485851     0.0000000     0.0000000
   1 PZ        0.0000000     0.0000000     0.0000000    -3.6985500     0.0000000
   1 DX2       0.4400016     0.0000000     0.0000000    -0.2770335     0.0000000
   1 DXY       0.0000000     0.0000000     0.0000000     0.0000000     0.0000000
   1 DXZ       0.0000000     0.5637553     0.0000000     0.0000000    -1.3511195
   1 DY2      -0.4400016     0.0000000     0.0000000    -0.2770335     0.0000000
   1 DYZ       0.0000000     0.0000000     0.5637553     0.0000000     0.0000000
   1 DZZ       0.0000000     0.0000000     0.0000000     0.5540670     0.0000000
   2 S         0.0000000     0.0000000     0.0000000    -0.6867534     0.0000000
   2 S         0.0000000     0.0000000     0.0000000    -7.0145496     0.0000000
   2 S         0.0000000     0.0000000     0.0000000    -0.1439018     0.0000000
   2 PX        0.0000000     0.6566670     0.0000000     0.0000000    -1.0679142
   2 PY        0.0000000     0.0000000     0.6566670     0.0000000     0.0000000
   2 PZ        0.0000000     0.0000000     0.0000000     0.1900861     0.0000000
   2 PX        0.0000000    -0.2485851     0.0000000     0.0000000    -0.4678945
   2 PY        0.0000000     0.0000000    -0.2485851     0.0000000     0.0000000
   2 PZ        0.0000000     0.0000000     0.0000000    -3.6985500     0.0000000
   2 DX2      -0.4400016     0.0000000     0.0000000     0.2770335     0.0000000
   2 DXY       0.0000000     0.0000000     0.0000000     0.0000000     0.0000000
   2 DXZ       0.0000000    -0.5637553     0.0000000     0.0000000    -1.3511195
   2 DY2       0.4400016     0.0000000     0.0000000     0.2770335     0.0000000
   2 DYZ       0.0000000     0.0000000    -0.5637553     0.0000000     0.0000000
   2 DZZ       0.0000000     0.0000000     0.0000000    -0.5540670     0.0000000
--------------------------------------------------------------------------------
Eigenvalue      5.727408      5.808866      6.971799
 Symmetry        PIg           SGg+          SGu+    
--------------------------------------------------------------------------------
   1 S         0.0000000     1.2087318     1.5443393
   1 S         0.0000000    -0.5726142     4.3985778
   1 S         0.0000000     0.0923681    -0.5904766
   1 PX        0.0000000     0.0000000     0.0000000
   1 PY        1.0679142     0.0000000     0.0000000
   1 PZ        0.0000000    -0.0265666    -1.9686140
   1 PX        0.0000000     0.0000000     0.0000000
   1 PY        0.4678945     0.0000000     0.0000000
   1 PZ        0.0000000     0.7066005    -1.7030837
   1 DX2       0.0000000     0.3213974    -0.2957468
   1 DXY       0.0000000     0.0000000     0.0000000
   1 DXZ       0.0000000     0.0000000     0.0000000
   1 DY2       0.0000000     0.3213974    -0.2957468
   1 DYZ      -1.3511195     0.0000000     0.0000000
   1 DZZ       0.0000000    -0.6427948     0.5914936
   2 S         0.0000000     1.2087318    -1.5443393
   2 S         0.0000000    -0.5726142    -4.3985778
   2 S         0.0000000     0.0923681     0.5904766
   2 PX        0.0000000     0.0000000     0.0000000
   2 PY       -1.0679142     0.0000000     0.0000000
   2 PZ        0.0000000     0.0265666    -1.9686140
   2 PX        0.0000000     0.0000000     0.0000000
   2 PY       -0.4678945     0.0000000     0.0000000
   2 PZ        0.0000000    -0.7066005    -1.7030837
   2 DX2       0.0000000     0.3213974     0.2957468
   2 DXY       0.0000000     0.0000000     0.0000000
   2 DXZ       0.0000000     0.0000000     0.0000000
   2 DY2       0.0000000     0.3213974     0.2957468
   2 DYZ      -1.3511195     0.0000000     0.0000000
   2 DZZ       0.0000000    -0.6427948    -0.5914936
--------------------------------------------------------------------------------


 
  ORBITAL EIGENVALUES (ALPHA)  (1H = 27.2113838 eV)

       MO #        E(hartree)               E(eV)           FULLSYM    COMPSYM
       ----   --------------------   --------------------   -------   ---------
    1     1          -0.5942535541         -16.1704615479    SGg+        Ag (1)
  +++++++++++++++++++++++++++++++++++++++++++++++++++++++++++++++++++++++++++++
    2    15           0.1675519125           4.5593194002    SGu+       B1u (5)
    3     2           0.3067289944           8.3465203942    SGg+        Ag (1)
    4    16           0.6458369913          17.5741182553    SGu+       B1u (5)
    5     8           0.6925516219          18.8452879996    PIu        B2u (2)
    6    11           0.6925516219          18.8452879996    PIu        B3u (3)
    7     3           1.0966014064          29.8400417654    SGg+        Ag (1)
    8    22           1.1198865658          30.4736631760    PIg        B3g (6)
    9    25           1.1198865658          30.4736631760    PIg        B2g (7)
   10    17           1.5287984241          41.6007207017    SGu+       B1u (5)
   11    18           2.3470601997          63.8667559405    SGu+       B1u (5)
   12     4           2.4179496226          65.7957552369    SGg+        Ag (1)
   13    14           3.1752579379          86.4031624740    DEg        B1g (4)
   14     5           3.1752579379          86.4031624740    DEg         Ag (1)
   15    12           3.4119107204          92.8428121708    PIu        B2u (3)
   16     9           3.4119107204          92.8428121708    PIu        B3u (2)
   17     6           3.6748247213          99.9970659601    SGg+        Ag (1)
   18    23           3.8940176900         105.9616099629    PIg        B3g (6)
   19    26           3.8940176900         105.9616099629    PIg        B2g (7)
   20    28           4.0838138613         111.1262264279    DEu         Au (8)
   21    19           4.0838138613         111.1262264279    DEu        B1u (5)
   22    13           4.1136421818         111.9378963051    PIu        B2u (3)
   23    10           4.1136421818         111.9378963051    PIu        B3u (2)
   24    20           4.6489202454         126.5035531430    SGu+       B1u (5)
   25    27           5.7274075479         155.8506850762    PIg        B3g (7)
   26    24           5.7274075479         155.8506850762    PIg        B2g (6)
   27     7           5.8088661593         158.0672866160    SGg+        Ag (1)
   28    21           6.9717992707         189.7123058683    SGu+       B1u (5)


  VSCF finished.

  @CHECKOUT-I, Total execution time (CPU/WALL):        0.41/       0.59 seconds.
--executable xvscf finished with status     0 in        0.70 seconds (walltime).
 --invoking executable--
/home/nike/cfour_v2.00beta/cfour_v2.00beta/bin/xvtran
 @GETMEM-I,  Allocated   11444 MB of main memory.
  Full RHF integral transformation
  @GTNRB2-I, There are  8 irreducible representations.
  Transformation of IIII integrals :
  1 pass through the AO integral file was required.
         634 AO integrals were read.
         634 MO integrals were written to HF2.
  Transformation of IIJJ integrals :
  1 pass through the AO integral file was required.
        2217 AO integrals were read.
        2217 MO integrals were written to HF2.
  Transformation of IJIJ integrals :
  1 pass through the AO integral file was required.
        3036 AO integrals were read.
        3036 MO integrals were written to HF2.
  Transformation of IJKL integrals :
  1 pass through the AO integral file was required.
        4494 AO integrals were read.
        4494 MO integrals were written to HF2.
  Summary of active molecular orbitals: 
------------------------------------------------------------------------
 
  Index      Eigenvalue    Symmetry    Index      Eigenvalue    Symmetry
------------------------------------------------------------------------
     1        -0.5942536        1        15         0.1675519        5
     2         0.3067290        1        16         0.6458370        5
     3         1.0966014        1        17         1.5287984        5
     4         2.4179496        1        18         2.3470602        5
     5         3.1752579        1        19         4.0838139        5
     6         3.6748247        1        20         4.6489202        5
     7         5.8088662        1        21         6.9717993        5
     8         0.6925516        2        22         1.1198866        6
     9         3.4119107        2        23         3.8940177        6
    10         4.1136422        2        24         5.7274075        6
    11         0.6925516        3        25         1.1198866        7
    12         3.4119107        3        26         3.8940177        7
    13         4.1136422        3        27         5.7274075        7
    14         3.1752579        4        28         4.0838139        8
------------------------------------------------------------------------
  @CHECKOUT-I, Total execution time (CPU/WALL):        0.05/       0.08 seconds.
--executable xvtran finished with status     0 in        0.22 seconds (walltime).
 --invoking executable--
/home/nike/cfour_v2.00beta/cfour_v2.00beta/bin/xintprc
 @GETMEM-I,  Allocated   11444 MB of main memory.
  @GMOIAA-I, Processing MO integrals for spin case AA.
  @GMOIAA-I, Generation of integral list completed.
                      TYPE                NUMBER
                      ----               --------
                      PPPP                  8965
                      PPPH                  1282
                      PPHH                    64
                      PHPH                    64
                      PHHH                     5
                      HHHH                     1

                     TOTAL                 10381
  @DS16AB-I, Sort of HHHHAB will be done in core.
   Words required:    1820 Words available:********.
  @ST16AB-I, Processing integral type HHHH spin case AB.
  @DS25AA-I, PHHHAA integrals will be sorted in core.
     Words required:       59  Words available: ********
  @ST25AA-I, Processing integral type PHHH spin case AA.
  @DS25AB-I, PHHHAB integrals will be sorted in core.
     Words required:     5451  Words available: ********
  @ST25AB-I, Processing integral type PHHH spin case AB.
  @STT3AA-I, Processing integral type PPHH spin case AAAA.
  @STT4AA-I, Processing integral type PHPH, spin case AAAA.
  @DS25AB-I, PPPHAB integrals will be sorted in core.
     Words required:     8969  Words available: ********
  @ST25AB-I, Processing integral type PPPH spin case AB.
  @DS16AB-I, Sort of PPPPAB will be done in core.
   Words required:   73376 Words available:********.
  @ST16AB-I, Processing integral type PPPP spin case AB.
  ALPHA EIGENVALUES 
  -0.59425   0.30673   1.09660   2.41795   3.17526   3.67482   5.80887
   0.69255   3.41191   4.11364   0.69255   3.41191   4.11364   3.17526
   0.16755   0.64584   1.52880   2.34706   4.08381   4.64892   6.97180
   1.11989   3.89402   5.72741   1.11989   3.89402   5.72741   4.08381
  BETA EIGENVALUES 
  -0.59425   0.30673   1.09660   2.41795   3.17526   3.67482   5.80887
   0.69255   3.41191   4.11364   0.69255   3.41191   4.11364   3.17526
   0.16755   0.64584   1.52880   2.34706   4.08381   4.64892   6.97180
   1.11989   3.89402   5.72741   1.11989   3.89402   5.72741   4.08381

  @FORMT2-I, Second-order MP correlation energies:
            ------------------------------------------------
            E(SCF)                  =     -1.132959092351 a.u.
            E2(AA)                  =      0.000000000000 a.u.
            E2(AB)                  =     -0.031681338499 a.u.
            E2(TOT)                 =     -0.031681338499 a.u.
            Total MP2 energy        =     -1.164640430851 a.u.
            ------------------------------------------------
   Largest T2 amplitudes for spin case AB:
       _       _                 _       _                 _       _
   i   j   a   b             i   j   a   b             i   j   a   b
-----------------------------------------------------------------------------
[  1   1  16  16]-0.03905 [  1   1   8   8]-0.03317 [  1   1  11  11]-0.03317
[  1   1   2   2]-0.03110 [  1   1  16  15]-0.02870 [  1   1  15  16]-0.02870
[  1   1  15  15]-0.02738 [  1   1  18  16]-0.01585 [  1   1  16  18]-0.01585
[  1   1   4   4]-0.01565 [  1   1  18  18]-0.01437 [  1   1   3   3]-0.01329
[  1   1   4   2]-0.01313 [  1   1   2   4]-0.01313 [  1   1   3   2] 0.01059
-----------------------------------------------------------------------------
   Norm of T2AB vector (      123 symmetry allowed elements):  0.1007043666.
-----------------------------------------------------------------------------
------------------------------------------------------------------------
          Core memory requirement for full matrix algorithms

    Contraction or quantity             Memory needed (words)
                                      C1                     D2h
------------------------------------------------------------------------
  Particle-particle ladder (AB)      532899                   15375
  Hole-hole ladder (AB)                1459                     247
  Fourth-order singles (AB)               0                       0
  Rings (AB)                           2187                     147
  T2 vector (AB)                        729                     123
  T2 vector (AA)                          0                       0
------------------------------------------------------------------------
------------------------------------------------------------------------
     Floating point operations required for full  matrix algorithms

  Term            spins   method                    FLOP
                                           C1                 D2h
------------------------------------------------------------------------
 a) contributions to the intermediates :
 
 T2 --> W(MNIJ)  (ABAB)   2 - 7              729               123
 
 T1 --> W(MNIJ)  (ABAB)     7                 27                 6
 
 T2 --> W(MBEJ)  (AAAA)   3 - 7            39366              1338
 T2 --> W(MBEJ)  (ABAB)   3 - 7            39366              1338
 T2 --> W(MBEJ)  (BAAB)   3 - 7            19683               669
 
 T1 --> W(MBEJ)  (AAAA)     7              20412               774
 T1 --> W(MBEJ)  (ABAB)     7              20412               774
 T1 --> W(MBEJ)  (BAAB)     7              20412               774
 
 T1 --> W(ABEF)  (ABAB)     7              20412               774
 
 T2 --> F(MI)    (AA)     3 - 7              729               123
 
 T2 --> F(AE)    (AA)     3 - 7            19683               669
 
b) contractions
------------------------------------------------------------------------
 
 W(ABEF) --> T2 (ABAB)    1 - 7           531441             15129
 
 W(MNIJ) --> T2 (ABAB)    1 - 7              729               123
 
 W(MBEJ) --> T2 (ABAB)    1 - 7            39366              1338
 W(MBEJ) --> T2 (BAAB)    1 - 7            19683               669
 
 F(MI) --> T2   (ABAB)    2 - 7              729               123
 
 F(AE) --> T2   (ABAB)    2 - 7            19683               669
 
c) direct contributions
------------------------------------------------------------------------
 
 T2 --> T1       (AA)     3,4,6,7          29889              1062
 
 T1 --> T2      (ABAB)     6,7             20412               774
 
 T1**2 --> T2   (ABAB)      7               1458                72
 T1**2 --> T2   (BAAB)      7               1458                72
 
d) total number of operations for various methods
------------------------------------------------------------------------
 
 MBPT(3)                        (1)       591219             17259
 DQ-MBPT(4)                     (2)       790965             24441
 SDQ-MBPT(4)                    (3)       820854             25503
 CCD          per iteration     (5)       731187             22311
 QCISD        per iteration     (6)       781488             24147
 CCSD         per iteration     (7)       845667             26619
 
------------------------------------------------------------------------
  @CHECKOUT-I, Total execution time (CPU/WALL):        0.12/       9.98 seconds.
--executable xintprc finished with status     0 in       10.14 seconds (walltime).
  calling xvcc 
 --invoking executable--
/home/nike/cfour_v2.00beta/cfour_v2.00beta/bin/xvcc
 @GETMEM-I,  Allocated   11444 MB of main memory.
   CCSD(T) energy will be calculated.
   Correlation energies computed from initial T amplitudes: 
   Initial T amplitudes: 
   Largest T2 amplitudes for spin case AB:
       _       _                 _       _                 _       _
   i   j   a   b             i   j   a   b             i   j   a   b
-----------------------------------------------------------------------------
[  1   1  16  16]-0.03905 [  1   1   8   8]-0.03317 [  1   1  11  11]-0.03317
[  1   1   2   2]-0.03110 [  1   1  16  15]-0.02870 [  1   1  15  16]-0.02870
[  1   1  15  15]-0.02738 [  1   1  18  16]-0.01585 [  1   1  16  18]-0.01585
[  1   1   4   4]-0.01565 [  1   1  18  18]-0.01437 [  1   1   3   3]-0.01329
[  1   1   4   2]-0.01313 [  1   1   2   4]-0.01313 [  1   1   3   2] 0.01059
-----------------------------------------------------------------------------
[...]
    -------------------------------------------------------------------
        T1        AA    0.0000455385 0.0002514757    1         3
        T2        AB    0.0000085237-0.0004710472    1    1   15   15
    -------------------------------------------------------------------
   The AA contribution to the correlation energy is:    0.0000000 a.u.
   The AB contribution to the correlation energy is:   -0.0393412 a.u.
   The total correlation energy is -0.039341186899 a.u.
   The total correlation energy is -0.039341186899 a.u.
  Current DIIS expansion coefficients : 
 [   1] 0.1868394064 [   2]-0.6187704557 [   3] 1.4319310493
  Convergence information after     3 iterations: 
  Largest element of residual vector : -0.47104719E-03.
  Largest element of DIIS residual   : -0.21274938E-03.
  W(mnij) AB contribution =  0.0112553124 a.u.
  W(abef) AB contribution =  0.0161665260 a.u.
  W(mbej) AB contribution = -0.0405214422 a.u.
   After   4 iterations, amplitude changes are:
    -------------------------------------------------------------------
                 Spin      RMS          Max.      Max. change for
     Amplitude   Case     Change       Change       i    j    a    b
    -------------------------------------------------------------------
        T1        AA    0.0000083699 0.0000388492    1         2
        T2        AB    0.0000009398-0.0000580655    1    1   15   15
    -------------------------------------------------------------------
   The AA contribution to the correlation energy is:    0.0000000 a.u.
   The AB contribution to the correlation energy is:   -0.0393801 a.u.
   The total correlation energy is -0.039380148791 a.u.
   The total correlation energy is -0.039380148791 a.u.
  Current DIIS expansion coefficients : 
 [   1]-0.0330281573 [   2] 0.1121693416 [   3]-0.3467764553 [   4] 1.2676352711
  Convergence information after     4 iterations: 
  Largest element of residual vector : -0.58065526E-04.
  Largest element of DIIS residual   :  0.22949763E-04.
  W(mnij) AB contribution =  0.0112593195 a.u.
  W(abef) AB contribution =  0.0161730912 a.u.
  W(mbej) AB contribution = -0.0405351698 a.u.
   After   5 iterations, amplitude changes are:
    -------------------------------------------------------------------
                 Spin      RMS          Max.      Max. change for
     Amplitude   Case     Change       Change       i    j    a    b
    -------------------------------------------------------------------
        T1        AA    0.0000013114 0.0000077936    1         2
        T2        AB    0.0000000910 0.0000049568    1    1    2    2
    -------------------------------------------------------------------
   The AA contribution to the correlation energy is:    0.0000000 a.u.
   The AB contribution to the correlation energy is:   -0.0393808 a.u.
   The total correlation energy is -0.039380782666 a.u.
   The total correlation energy is -0.039380782666 a.u.
  Current DIIS expansion coefficients : 
 [   1] 0.0037521818 [   2]-0.0122161986 [   3] 0.0460010278 [   4]-0.2256382086
 [   5] 1.1881011976
  Convergence information after     5 iterations: 
  Largest element of residual vector :  0.77935774E-05.
  Largest element of DIIS residual   :  0.46790643E-05.
   Largest T1 amplitudes for spin case AA:
   i       a                 i       a                 i       a    
-----------------------------------------------------------------------------
[  1       2    ] 0.00669 [  1       4    ] 0.00299 [  1       3    ] 0.00266
[  1       6    ]-0.00136 [  1       7    ] 0.00073 [  1       5    ]-0.00000
[  1       1    ] 0.00000 [  1       1    ] 0.00000 [  1       1    ] 0.00000
[  1       1    ] 0.00000 [  1       1    ] 0.00000 [  1       1    ] 0.00000
[  1       1    ] 0.00000 [  1       1    ] 0.00000 [  1       1    ] 0.00000
-----------------------------------------------------------------------------
   Norm of T1AA vector (        6 symmetry allowed elements):  0.0079431667.
-----------------------------------------------------------------------------
   Largest T2 amplitudes for spin case AB:
       _       _                 _       _                 _       _
   i   j   a   b             i   j   a   b             i   j   a   b
-----------------------------------------------------------------------------
[  1   1  16  16]-0.05633 [  1   1  16  15]-0.04479 [  1   1  15  16]-0.04479
[  1   1   8   8]-0.04223 [  1   1  11  11]-0.04223 [  1   1  15  15]-0.04008
[  1   1   2   2]-0.03873 [  1   1  18  16]-0.02131 [  1   1  16  18]-0.02131
[  1   1   4   2]-0.01686 [  1   1   2   4]-0.01686 [  1   1   4   4]-0.01601
[  1   1   3   2] 0.01488 [  1   1   2   3] 0.01488 [  1   1  18  18]-0.01445
-----------------------------------------------------------------------------
   Norm of T2AB vector (      123 symmetry allowed elements):  0.1346765694.
-----------------------------------------------------------------------------
  W(mnij) AB contribution =  0.0112577484 a.u.
  W(abef) AB contribution =  0.0161718209 a.u.
  W(mbej) AB contribution = -0.0405300074 a.u.
   After   6 iterations, amplitude changes are:
    -------------------------------------------------------------------
                 Spin      RMS          Max.      Max. change for
     Amplitude   Case     Change       Change       i    j    a    b
    -------------------------------------------------------------------
        T1        AA    0.0000003024 0.0000017831    1         2
        T2        AB    0.0000000122 0.0000009028    1    1    2    2
    -------------------------------------------------------------------
   The AA contribution to the correlation energy is:    0.0000000 a.u.
   The AB contribution to the correlation energy is:   -0.0393803 a.u.
   The total correlation energy is -0.039380273208 a.u.
   The total correlation energy is -0.039380273208 a.u.
  Current DIIS expansion coefficients : 
 [   1] 1.2383807533 [   2]-0.0002109688 [   3]-0.0016469845 [   4] 0.0198108925
 [   5]-0.2563336925
  Convergence information after     6 iterations: 
  Largest element of residual vector :  0.17830853E-05.
  Largest element of DIIS residual   :  0.57577125E-06.
  W(mnij) AB contribution =  0.0112578819 a.u.
  W(abef) AB contribution =  0.0161720868 a.u.
  W(mbej) AB contribution = -0.0405306687 a.u.
   After   7 iterations, amplitude changes are:
    -------------------------------------------------------------------
                 Spin      RMS          Max.      Max. change for
     Amplitude   Case     Change       Change       i    j    a    b
    -------------------------------------------------------------------
        T1        AA    0.0000000390 0.0000002304    1         2
        T2        AB    0.0000000026 0.0000001923    1    1    2    2
    -------------------------------------------------------------------
   The AA contribution to the correlation energy is:    0.0000000 a.u.
   The AB contribution to the correlation energy is:   -0.0393804 a.u.
   The total correlation energy is -0.039380366820 a.u.
   The total correlation energy is -0.039380366820 a.u.
  Current DIIS expansion coefficients : 
 [   1]-0.1010222390 [   2] 1.1078493200 [   3]-0.0000987596 [   4] 0.0014972803
 [   5]-0.0082256017
  Convergence information after     7 iterations: 
  Largest element of residual vector :  0.23041568E-06.
  Largest element of DIIS residual   :  0.11586790E-06.
  W(mnij) AB contribution =  0.0112578702 a.u.
  W(abef) AB contribution =  0.0161720867 a.u.
  W(mbej) AB contribution = -0.0405306516 a.u.
   After   8 iterations, amplitude changes are:
    -------------------------------------------------------------------
                 Spin      RMS          Max.      Max. change for
     Amplitude   Case     Change       Change       i    j    a    b
    -------------------------------------------------------------------
        T1        AA    0.0000000054 0.0000000294    1         2
        T2        AB    0.0000000007 0.0000000494    1    1    2    2
    -------------------------------------------------------------------
   The AA contribution to the correlation energy is:    0.0000000 a.u.
   The AB contribution to the correlation energy is:   -0.0393804 a.u.
   The total correlation energy is -0.039380367998 a.u.
   The total correlation energy is -0.039380367998 a.u.
  Current DIIS expansion coefficients : 
 [   1] 0.0366010053 [   2]-0.4380029484 [   3] 1.4021088774 [   4]-0.0001679321
 [   5]-0.0005390023
  Convergence information after     8 iterations: 
  Largest element of residual vector :  0.49433557E-07.
  Largest element of DIIS residual   : -0.96095731E-08.
  W(mnij) AB contribution =  0.0112578605 a.u.
  W(abef) AB contribution =  0.0161720782 a.u.
  W(mbej) AB contribution = -0.0405306208 a.u.
   After   9 iterations, amplitude changes are:
    -------------------------------------------------------------------
                 Spin      RMS          Max.      Max. change for
     Amplitude   Case     Change       Change       i    j    a    b
    -------------------------------------------------------------------
        T1        AA    0.0000000002-0.0000000009    1         4
        T2        AB    0.0000000000 0.0000000019    1    1   18   15
    -------------------------------------------------------------------
   The AA contribution to the correlation energy is:    0.0000000 a.u.
   The AB contribution to the correlation energy is:   -0.0393804 a.u.
   The total correlation energy is -0.039380364737 a.u.
   The total correlation energy is -0.039380364737 a.u.
  Current DIIS expansion coefficients : 
 [   1]-0.0019336423 [   2] 0.0276116541 [   3]-0.1175568992 [   4] 1.0918231056
 [   5] 0.0000557817
  Convergence information after     9 iterations: 
  Largest element of residual vector :  0.18677893E-08.
  Largest element of DIIS residual   : -0.14977704E-08.
  W(mnij) AB contribution =  0.0112578603 a.u.
  W(abef) AB contribution =  0.0161720781 a.u.
  W(mbej) AB contribution = -0.0405306202 a.u.
   After  10 iterations, amplitude changes are:
    -------------------------------------------------------------------
                 Spin      RMS          Max.      Max. change for
     Amplitude   Case     Change       Change       i    j    a    b
    -------------------------------------------------------------------
        T1        AA    0.0000000000-0.0000000001    1         4
        T2        AB    0.0000000000-0.0000000005    1    1   11   11
    -------------------------------------------------------------------
   The AA contribution to the correlation energy is:    0.0000000 a.u.
   The AB contribution to the correlation energy is:   -0.0393804 a.u.
   The total correlation energy is -0.039380364673 a.u.
   The total correlation energy is -0.039380364673 a.u.
  Current DIIS expansion coefficients : 
 [   1] 0.0008375055 [   2]-0.0115296438 [   3] 0.0437898618 [   4]-0.3720062819
 [   5] 1.3389085584
  Convergence information after    10 iterations: 
  Largest element of residual vector : -0.49561730E-09.
  Largest element of DIIS residual   : -0.16850564E-09.
  Amplitude equations converged in    10iterations.
   The AA contribution to the correlation energy is:    0.0000000 a.u.
   The AB contribution to the correlation energy is:   -0.0393804 a.u.
   The total correlation energy is -0.039380364694 a.u.
   The total correlation energy is -0.039380364694 a.u.
   The CC iterations have converged.

   Largest T1 amplitudes for spin case AA:
   i       a                 i       a                 i       a    
-----------------------------------------------------------------------------
[  1       2    ] 0.00669 [  1       4    ] 0.00299 [  1       3    ] 0.00266
[  1       6    ]-0.00136 [  1       7    ] 0.00073 [  1       5    ] 0.00000
[  1       1    ] 0.00000 [  1       1    ] 0.00000 [  1       1    ] 0.00000
[  1       1    ] 0.00000 [  1       1    ] 0.00000 [  1       1    ] 0.00000
[  1       1    ] 0.00000 [  1       1    ] 0.00000 [  1       1    ] 0.00000
-----------------------------------------------------------------------------
   Norm of T1AA vector (        6 symmetry allowed elements):  0.0079456650.
-----------------------------------------------------------------------------
   Largest T2 amplitudes for spin case AB:
       _       _                 _       _                 _       _
   i   j   a   b             i   j   a   b             i   j   a   b
-----------------------------------------------------------------------------
[  1   1  16  16]-0.05633 [  1   1  16  15]-0.04479 [  1   1  15  16]-0.04479
[  1   1  11  11]-0.04223 [  1   1   8   8]-0.04223 [  1   1  15  15]-0.04008
[  1   1   2   2]-0.03872 [  1   1  18  16]-0.02131 [  1   1  16  18]-0.02131
[  1   1   4   2]-0.01686 [  1   1   2   4]-0.01686 [  1   1   4   4]-0.01601
[  1   1   3   2] 0.01488 [  1   1   2   3] 0.01488 [  1   1  18  18]-0.01445
-----------------------------------------------------------------------------
   Norm of T2AB vector (      123 symmetry allowed elements):  0.1346771868.
-----------------------------------------------------------------------------
       Summary of iterative solution of CC equations 
      -----------------------------------------------------------
                       Correlation           Total
       Iteration         Energy              Energy
      -----------------------------------------------------------
            0        -0.031681338499      -1.164640430851  DIIS 
            1        -0.036982497638      -1.169941589989  DIIS 
            2        -0.038565530502      -1.171524622854  DIIS 
            3        -0.039341186899      -1.172300279250  DIIS 
            4        -0.039380148791      -1.172339241142  DIIS 
            5        -0.039380782666      -1.172339875017  DIIS 
            6        -0.039380273208      -1.172339365559  DIIS 
            7        -0.039380366820      -1.172339459172  DIIS 
            8        -0.039380367998      -1.172339460350  DIIS 
            9        -0.039380364737      -1.172339457088  DIIS 
           10        -0.039380364694      -1.172339457045  DIIS 
      -----------------------------------------------------------
      A miracle has come to pass. The CC iterations have converged.
 @DIMT3-I, Dimensions of T3 amplitudes : 
               # abc          # ijk       Symmetry    Spin 
                      387              0     1          1
                      370              0     2          1
                      370              0     3          1
                      342              0     4          1
                      374              0     5          1
                      370              0     6          1
                      370              0     7          1
                      342              0     8          1
                     1317              0     1          2
                     1188              0     2          2
                     1188              0     3          2
                     1052              0     4          2
                     1304              0     5          2
                     1188              0     6          2
                     1188              0     7          2
                     1052              0     8          2
                     1317              0     1          3
                     1188              0     2          3
                     1188              0     3          3
                     1052              0     4          3
                     1304              0     5          3
                     1188              0     6          3
                     1188              0     7          3
                     1052              0     8          3
                      387              0     1          4
                      370              0     2          4
                      370              0     3          4
                      342              0     4          4
                      374              0     5          4
                      370              0     6          4
                      370              0     7          4
                      342              0     8          4
 @DIMT3-I, Dimensions of T3 amplitudes : 
               # abc          # ijk       Symmetry    Spin 
                      387              0     1          1
                      370              0     2          1
                      370              0     3          1
                      342              0     4          1
                      374              0     5          1
                      370              0     6          1
                      370              0     7          1
                      342              0     8          1
                     1317              0     1          2
                     1188              0     2          2
                     1188              0     3          2
                     1052              0     4          2
                     1304              0     5          2
                     1188              0     6          2
                     1188              0     7          2
                     1052              0     8          2
                     1317              0     1          3
                     1188              0     2          3
                     1188              0     3          3
                     1052              0     4          3
                     1304              0     5          3
                     1188              0     6          3
                     1188              0     7          3
                     1052              0     8          3
                      387              0     1          4
                      370              0     2          4
                      370              0     3          4
                      342              0     4          4
                      374              0     5          4
                      370              0     6          4
                      370              0     7          4
                      342              0     8          4
 @TRPS-I, Welcome to TRPS. Watch your RUs ! 
 @TRPS-I, Method is CCSD(T) 
 @TRPS-I, Calculation type is energy 
 @TRPS-I, Reference function information : 
          Reference function is Hartree-Fock 
          Reference function is RHF Hartree-Fock 
 @TRPS-I, INT1 is true 
 @TRPS-I, INT2 is false 
 @TRPS-I, Lengths of ijka integrals. #1          0
                                     #2          0
                                     #3          6
                                     #4          6
                                    Max          6
 @INITRP-I, Initializing W intermediate lists. 
 @CCENRG-I, CCSD/QCISD energy will now be evaluated. 
 @CCENRG-I, Correlation energies. ECCAA        0.000000000000
                                  ECCBB        0.000000000000
                                  ECCAB       -0.039380364694
                                  Total       -0.039380364694
 @CCENRG-I, Reference   energy      -1.132959092351
            CCSD/QCISD energy       -1.172339457045
          E4T (T(CCSD)) =  0.000000000000
          E5ST          =  0.000000000000
          E4ST          =  0.000000000000
          In other words  
          <T3[2](Dagger) D3  T3[2]> =  0.000000000000
          <T1   (Dagger) Q1 WT3[2]> =  0.000000000000
          <T2   (Dagger) Q2 FT3[2]> =  0.000000000000
        E(CCSD)           =      -1.172339457045
        E(CCSD + T(CCSD)) =      -1.172339457045
        E(CCSD(T))        =      -1.172339457045
  @CHECKOUT-I, Total execution time (CPU/WALL):        0.23/       0.27 seconds.
--executable xvcc finished with status     0 in        0.43 seconds (walltime).
  The final electronic energy is        -1.172339457045450 a.u. 
  This computation required                           15.95 seconds (walltime).
