 --invoking executable--
/project1/nike/cfour_v2.1_24_08_2019_emailFromDevin/bin/xjoda


   *************************************************************************
         <<<     CCCCCC     CCCCCC   |||     CCCCCC     CCCCCC   >>>
       <<<      CCC        CCC       |||    CCC        CCC         >>>
      <<<      CCC        CCC        |||   CCC        CCC            >>>
    <<<        CCC        CCC        |||   CCC        CCC              >>>
      <<<      CCC        CCC        |||   CCC        CCC            >>>
       <<<      CCC        CCC       |||    CCC        CCC         >>>
         <<<     CCCCCC     CCCCCC   |||     CCCCCC     CCCCCC   >>>
   *************************************************************************

     ****************************************************************
     * CFOUR Coupled-Cluster techniques for Computational Chemistry *
     ****************************************************************


   Department of Chemistry                Institut fuer Physikalische Chemie
   University of Florida                  Universitaet Mainz
   Gainesville, FL 32611, USA             D-55099 Mainz, Germany

   Department of Chemistry                Fakultaet fuer Chemie und Biowiss.
   Johns Hopkins University               Karlsruher Institut fuer Technologie
   Baltimore, MD 21218, USA               D-76131 Karlsruhe, Germany

   Department of Chemistry                Department of Physical Chemistry
   Southern Methodist University          Eotvos Lorand University
   Dallas, TX 75275, USA                  H-1053 Budapest, Hungary


                       Version 1.2

                     wob107                                            
                     Thu Sep  5 21:26:25 EDT 2019                      
                     integer*8 version is running

********************************************************************************
*                          Input from ZMAT file                                *
********************************************************************************
TITLE                                                                           
O                                                                               
O 1 R                                                                           
O 1 R 2 A                                                                       
                                                                                
R=1.2716                                                                        
A=117.47                                                                        
                                                                                
*ACES2(CALC=CCSD                                                                
#GEOM=CRC2016_Re_And_Theta_e                                                    
#COORD=CARTESIAN                                                                
PRINT=4                                                                         
JODA_PRINT=4                                                                    
INPUT_MRCC=OFF                                                                  
CC_PROG=MRCC                                                                    
FROZEN_CORE=ON                                                                  
#DROPMO=1>5                                                                     
CONTRACTION=GENERAL                                                             
#CONTRACTION=SEGMENTED                                                          
RELATIVISTIC=OFF                                                                
#EXCITE=EOMEE                                                                   
#ESTATE_CONV=5                                                                  
#ESTATE_SYM=2/2/2/2/2/2/2/2                                                     
XFORM_TOL=18                                                                    
SAVE_INTS=ON                                                                    
SCF_EXPORDER=6                                                                  
SCF_EXPSTART=5                                                                  
#SCF_DAMPING=1000                                                               
SCF_EXTRAPOLATION=ON                                                            
SCF_CONV=13                                                                     
SCF_MAXCYC=9999                                                                 
CC_CONV=6                                                                       
CC_MAXCYC=999                                                                   
T3_EXTRAPOL=ON                                                                  
REFERENCE=RHF                                                                   
CHARGE=+0                                                                       
MULT=1                                                                          
ABCDTYPE=STANDARD                                                               
#OCCUPATION=3-2-2-0-1-0-0-0/3-1-1-0-1-0-0-0                                     
MEM=20                                                                          
MEM_UNIT=GB                                                                     
BASIS=SPECIAL)                                                                  
                                                                                
O:def2-TZVPP                                                                    
O:def2-TZVPP                                                                    
O:def2-TZVPP                                                                    
                                                                                
********************************************************************************
  @GTFLGS-W, Keyword #GEOM not known and is ignored.
  @GTFLGS-W, Keyword #COORD not known and is ignored.
  @GTFLGS-W, Keyword #DROPMO not known and is ignored.
  @GTFLGS-W, Keyword #CONTRACTION not known and is ignored.
  @GTFLGS-W, Keyword #EXCITE not known and is ignored.
  @GTFLGS-W, Keyword #ESTATE_CONV not known and is ignored.
  @GTFLGS-W, Keyword #ESTATE_SYM not known and is ignored.
  @GTFLGS-W, Keyword #SCF_DAMPING not known and is ignored.
  @GTFLGS-W, Keyword #OCCUPATION not known and is ignored.
    -------------------------------------------------------------------
                    CFOUR Control Parameters 
    -------------------------------------------------------------------
        External           Internal           Value            Units
          Name               Name
    -------------------------------------------------------------------
       ABCDTYPE             IABCDT         STANDARD    [  0]    ***   
       ANHARMONIC           IANHAR         OFF         [  0]    ***   
       ANH_ALGORIT          IANALG         STANDARD    [  0]    ***   
       ANH_DERIVAT          IANDER         SECOND      [  1]    ***   
       ANH_MODE             ANHMOD         VIBRATION   [  0]    ***   
       ANH_STEPSIZ          ICUBST             50000          x 10-6  
       ANH_SYMMETR          IANHSM         ABELIAN     [  0]    ***   
       AO_LADDERS           IAOLAD         SINGLEPASS  [  1]    ***   
       AV_SCF               IAVSCF         OFF         [  0]    ***   
       BASIS                IBASIS         SPECIAL     [  0]    ***   
       BOTHVECTORS          BOTHVC         OFF         [  0]    ***   
       BOX_POTENT           IPIAB          OFF         [  0]    ***   
       BREIT                IBREIT         OFF         [  0]    ***   
       BRUCK_CONV           IBRTOL          10D-  4             ***   
       BRUECKNER            IBRKNR         OFF         [  0]    ***   
       BUFFERSIZE           IBUFFS              4096            ***   
       CACHE_RECS           ICHREC             10               ***   
       CALCLEVEL            ICLLVL         CCSD        [ 10]    ***   
       CCORBOPT             ICCORB         OFF         [  0]  x 0.01  
       CC_CONV              ICCCNV          10D-  6             ***   
       CC_EXPORDER          ICCEOR              5               ***   
       CC_EXTRAPOL          ICCEXT         DIIS        [  1]    ***   
       CC_GUESS             ICCGES         MP2         [  0]    ***   
       CC_MAXCYC            ICCCYC            999              cycles 
       CC_PROGRAM           ICCPRO         MRCC        [  2]    ***   
       CHARGE               ICHRGE              0               ***   
       CHOLESKY             ICHOLE         OFF         [  0]    ***   
       CIS_CONV             ICISTL              5               ***   
       COMM_SIZE            IPSIZE            ***               ***   
       CONSTANT             ICONST         OLD         [  1]    ***   
       CONTINUUM            ICONTU         NONE        [  0]    ***   
       CONTRACTION          ICNTYP         GENERAL     [  1]    ***   
       COORDINATES          ICOORD         INTERNAL    [  0]    ***   
       CPHF_CONVER          ICPHFT          10D- 16             ***   
       CPHF_MAXCYC          ICPHFC             64              cycles 
       CUBIC                ICUBIC         OFF         [  0]    ***   
       CURVILINEAR          ICURVY         OFF         [  0]    ***   
       DBOC                 IDBOC          OFF         [  0]    ***   
       DCT                  IDCT           OFF         [  0]    ***   
       DERIV_LEV            IDRLVL         ZERO        [  0]    ***   
       DEVMEM_SIZE          IDVMEM         *********           MByte  
       DIAG_MRCC            IEOMST          10D-  0             ***   
       DIFF_TYPE            IDIFTY         RELAXED     [  0]    ***   
       DIRECT               IDIRCT         OFF         [  0]    ***   
       DROPMO               IDRPMO      NONE         
       ECP                  IECP           OFF         [  0]    ***   
       EIGENVECTOR          IVEC                1               ***   
       EL_ANHARM            IELANH         OFF         [  0]    ***   
       EOMFOLLOW            IEOMSR         ENERGY      [  0]    ***   
       EOMIP                IEOMIP         OFF         [  0]    ***   
       EOMLEVEL             HBARFM         SAME        [  0]    ***   
       EOM_MRCC             IMRCCE         NEW         [  1]    ***   
       EOM_NONIT            EOMNON         OFF         [  0]    ***   
       EOM_NSING            IEOMSI          10D-  0             ***   
       EOM_NSTATES          IMRCCD         DAVIDSON    [  0]    ***   
       EOM_NTRIP            IEOMTR          10D-  0             ***   
       EOM_ORDER            IEXORD         ENERGY      [  0]    ***   
       EOM_PROPSTA          IEOMST              0               ***   
       ESTATE_CONV          IEXTOL          10D-  5             ***   
       ESTATE_DIAG          IEXDIG         ITERATIVE   [  0]    ***   
       ESTATE_LOCK          IESLOC         ON          [  1]    ***   
       ESTATE_MAXC          IEXMXC             40               ***   
       ESTATE_PROP          IEXPRP         OFF         [  0]    ***   
       EVAL_HESS            IRECAL              0            # of cyc.
       EXCITATION           IEXCIT              0               ***   
       EXCITE               IEXCIT         NONE        [  0]    ***   
       EXTERN_POT           IEXPOT         OFF         [  0]    ***   
       FCGRADNEW            IFCGNW         OFF         [  0]    ***   
       FC_FIELD             IFINFC              0             x 10-6  
       FD_CALTYPE           IFDCAL         GRADONLY    [  0]    ***   
       FD_PROJECT           IFDPRJ         OFF         [  1]    ***   
       FD_STEPSIZE          IDISFD              0            10-4 bohr
       FD_USEGROUP          IFDGRP         FULL        [  0]    ***   
       FILE_RECSIZ          IFLREC              4096           words  
       FINITE_PERT          IFIPER              0             x 10-6  
       FIXGEOM              IFIXGM         OFF         [  0]    ***   
       FOCK                 IFOCK          AO          [  1]    ***   
       FREQ_ALGORI          IVIALG         STANDARD    [  0]    ***   
       FROZEN_CORE          IFROCO         ON          [  1]    ***   
       GAMMA_ABCD           IGABCD         STORE       [  0]    ***   
       GAMMA_ABCI           IGABCI         STORE       [  0]    ***   
       GENBAS_1             IGNBS1              0               ***   
       GENBAS_2             IGNBS2              0               ***   
       GENBAS_3             IGNBS3              0               ***   
       GENBAS_4             IGNBS4              0               ***   
       GEO_CONV             ICONTL              5              H/bohr 
       GEO_MAXCYC           IOPTCY             50               ***   
       GEO_MAXSTEP          IMXSTP            300            millibohr
       GEO_METHOD           INR            SINGLE_POINT[  5]    ***   
       GIAO                 IGIAO          OFF         [  1]    ***   
       GIMIC                IGIMIC         OFF         [  0]    ***   
       GRID                 IGRID          OFF         [  0]    ***   
       GRID_ALGO            IGALGO         SERIAL      [  0]    ***   
       GUESS                IGUESS         MOREAD      [  0]    ***   
       HBAR                 IHBAR          OFF         [  0]    ***   
       HESS_TYPE            IHESTP         SCF         [  0]    ***   
       HF2_FILE             IHF2Fl         USE         [  1]    ***   
       HFSTABILITY          ISTABL         OFF         [  0]    ***   
       INCORE               INCORE         OFF         [  0]    ***   
       INPUT_MRCC           IMRCC          OFF         [  0]    ***   
       INTEGRALS            INTTYP         VMOL        [  1]    ***   
       JODA_PRINT           IJPRNT              4               ***   
       KEYWORD_OUT          IDMPKW         NO          [  0]    ***   
       LINDEP_TOL           ILINDP              8               ***   
       LINEQ_CONV           IZTACN          10D-  7           cycles  
       LINEQ_EXPOR          ILMAXD              5               ***   
       LINEQ_MAXCY          ILMAXC            100               ***   
       LINEQ_TYPE           ILTYPE         DIIS        [  1]    ***   
       LOCK_ORBOCC          ILOCOC         OFF         [  0]    ***   
       MEMORY_SIZE          IMEMSZ         *********           words  
       MEM_UNIT             IMEMU          GB          [  3]    ***   
       MRCC                 IMRCCC         OFF         [  0]    ***   
       MULTIPLICTY          IMULTP              1               ***   
       NACOUPLING           IVCOUP         OFF         [  0]    ***   
       NEGEVAL              IDIE           ABORT       [  0]    ***   
       NEWNORM              INEWNO         OFF         [  0]    ***   
       NON-HF               INONHF         OFF         [  0]    ***   
       NTOP_TAMP            ITOPT2             15               ***   
       NUC_MODEL            INUCMO         POINT       [  0]    ***   
       OCCUPATION           IOCCU   ESTIMATED BY SCF 
       OPEN-SHELL           IOPEN          SPIN-ORBITAL[  0]    ***   
       OPTVIB               IOPTVB         OFF         [  0]    ***   
       ORBITALS             IORBTP         STANDARD    [  0]    ***   
       PARALLEL             IPARAL         ON          [  1]    ***   
       PARA_INT             IPINTS         ON          [  1]    ***   
       PARA_PRINT           IPPRIN              0               ***   
       PERT_ORB             IPTORB         STANDARD    [  0]    ***   
       POINTS               IGRDFD              0               ***   
       PRINT                IPRNT               4               ***   
       PROPS                IPROPS         OFF         [  0]    ***   
       PROP_INTEGR          IINTYP         INTERNAL    [  0]    ***   
       PSI                  IPSI           OFF         [  0]    ***   
       QC_ALG               IQCALG         FLM         [  0]    ***   
       QC_LINALG            IQCLIN         TRIDIAG     [  2]    ***   
       QC_MAXCYC            IQCMAX          10D-100           cycles  
       QC_MAXSCFCY          IQCMSC          10D- 15           cycles  
       QC_RTRUST            IQCRTR          10D-  0           x 10-3  
       QC_SKIPSCF           IQCSKI         OFF         [  0]    ***   
       QC_START             IQCSTA          10D-  1             ***   
       QRHFGUESS            IQGUES         OFF         [  0]    ***   
       QUARTIC              IQUART         OFF         [  0]    ***   
       RAMAN_INT            IRAMIN         OFF         [  0]    ***   
       RAMAN_ORB            IRAMRE         UNRELAXED   [  0]    ***   
       RDO                  IRDOFM         OFF         [  0]    ***   
       REDUCE_REPR          REDREP         Ir          [  0]    ***   
       REFERENCE            IREFNC         RHF         [  0]    ***   
       RELATIVIST           IRELAT         OFF         [  0]    ***   
       RELAX_DENS           IRDENS         OFF         [  0]    ***   
       RESET_FLAGS          IRESET         OFF         [  0]    ***   
       RESTART_CC           ICCRES         OFF         [  0]    ***   
       ROT_EVEC             ROTVEC              0               ***   
       SAVE_INTS            ISVINT         ON          [  1]    ***   
       SCALE_ON             ISTCRT              0               ***   
       SCF_CONV             ISCFCV          10D- 13             ***   
       SCF_DAMPING          IDAMP               0             x 10-3  
       SCF_EXPORDE          IRPPOR              6               ***   
       SCF_EXPSTAR          IRPPLS              5               ***   
       SCF_EXTRAPO          IRPP           ON          [  1]    ***   
       SCF_MAXCYC           ISCFCY            ***              cycles 
       SCF_NOSTOP           ISCFST         OFF         [  0]    ***   
       SCF_PRINT            ISCFPR              0               ***   
       SCF_PROG             ISCFPR         SCF         [  0]    ***   
       SD_FIELD             IFINSD              0             x 10-6  
       SOPERT               IPERSO         OFF         [  0]    ***   
       SPHERICAL            IDFGHI         ON          [  1]    ***   
       SPINORBIT            ISOCAL         OFF         [  0]    ***   
       SPINROTATIO          ISRCON         OFF         [  0]    ***   
       SPIN_FLIP            ISPFLP         OFF         [  0]    ***   
       SPIN_ORBIT           ISPORB         OFF         [  0]    ***   
       SPIN_SCAL            ISCSMP         OFF         [  0]    ***   
       STEEPSCALE           ISTPSC              1000          x 10-3  
       SUBGROUP             ISUBGP         DEFAULT     [  0]    ***   
       SUBGRPAXIS           ISBXYZ         X           [  0]    ***   
       SYMMETRY             ISYM           ON          [  0]    ***   
       SYM_CHECK            ISYMCK         OVERRIDE    [  1]    ***   
       T3_EXTRAPOL          IT3EXT         ON          [  1]    ***   
       T4_EXTRAPOL          IT4EXP         OFF         [  0]    ***   
       TAMP_SUM             IEVERY              5               ***   
       TESTSUITE            ITESTS         OFF         [  0]    ***   
       THERMOCH             ITHERM         OFF         [  0]    ***   
       TOL_CHOLESK          ITOLCH          10D-  4             ***   
       TRANGRAD             IRESRM         OFF         [  0]    ***   
       TRANS_INV            ITRAIN         USE         [  0]    ***   
       TREAT_PERT           ITREAT         SIMULTANEOUS[  0]    ***   
       TRIP_ALGORI          ITRALG         NORMAL      [  0]    ***   
       UIJ_THRESHO          IUIJTH              1               ***   
       UNITS                IUNITS         ANGSTROM    [  0]    ***   
       UNOS                 IUNOS          OFF         [  0]    ***   
       UPDATE_HESS          IHUPDT         ON          [  1]    ***   
       VIBPHASE             ISETPH         STANDARD    [  0]    ***   
       VIBRATION            IVIB           NO          [  0]    ***   
       VIB_ALGORIT          IGEALG         STANDARD    [  0]    ***   
       VNATORB              IVNORB         OFF         [  0]    ***   
       VTRAN                IVTRAN         FULL/PARTIAL[  0]    ***   
       XFIELD               IXEFLD              0             x 10-6  
       XFORM_TOL            IXFTOL          10D- 18             ***   
       YFIELD               IYEFLD              0             x 10-6  
       ZFIELD               IZEFLD              0             x 10-6  
       ZSCALE_EXP           IZEXPS         OFF         [  0]    ***   
    -------------------------------------------------------------------
   3 entries found in Z-matrix 
   Job Title : TITLE                                                                           
 Variable names read by FETCHZ
  1           
  2           
  3           
  4 R         
  5           
  6           
  7 R         
  8 A         
  9           
 Atomic symbols read by FETCHZ
  1 O    
  2 O    
  3 O    
 Connectivity matrix read by FETCHZ
  1   0
  2   0
  3   0
  4   1
  5   0
  6   0
  7   1
  8   2
  9   0
   There are  2 unique internal coordinates.
   Of these,  0 will be optimized.
   User supplied Z-matrix: 
--------------------------------------------------------------------------------
       SYMBOL    BOND      LENGTH    ANGLE     ANGLE     DIHED     ANGLE
                  TO      (ANGST)    WRT      (DEG)      WRT      (DEG)
--------------------------------------------------------------------------------
        O    
        O          1         R    
        O          1         R          2        A    
                  *Initial values for internal coordinates* 
                      Name             Value
                        R               1.2716000000
                        A             117.4700000000
--------------------------------------------------------------------------------
   15.9949146300
   15.9949146300
   15.9949146300
 After translation to center of mass coordinates 
       -0.710682212601   -0.000000000000   -0.431507160179
       -0.710682212601   -0.000000000000    1.971469083502
        1.421364425201   -0.000000000000   -1.539961923322
  Inertia tensor (amu*bohr**2)
  103.07717    0.00000   52.51563
    0.00000  151.54841    0.00000
   52.51563    0.00000   48.47123
    Inertia tensor:
      103.077172014838    0.000000000000   52.515633609368
        0.000000000000  151.548405133519    0.000000000000
       52.515633609368    0.000000000000   48.471233118681
    Principal axis orientation for molecular system: 
       -0.000000000000   -0.831425063727    0.000000000000
       -2.054006486202    0.415712531863    0.000000000000
        2.054006486202    0.415712531863    0.000000000000
    Diagonalized inertia tensor:
       16.585150250676    0.000000000000    0.000000000000
        0.000000000000  134.963254882843    0.000000000000
        0.000000000000    0.000000000000  151.548405133519
    Eigenvectors of inertia tensor: 
        0.518997055784    0.854776026856   -0.000000000000
       -0.000000000000    0.000000000000    1.000000000000
       -0.854776026856    0.518997055784   -0.000000000000
   Rotational constants (in cm-1): 
          0.3972309702             0.4460452592             3.6297361851
   Rotational constants (in MHz): 
      11908.6865626858         13372.1023353848        108816.7685268004
  @SYMMETRY-I, Handedness of inertial frame:-1.00000
  @SYMMETRY-I, Sense of inertial frame y-axis will be changed.
  @SYMMETRY-I, The symmetry group is 1-fold degenerate.
  @SYMMETRY-I, The molecule belongs to an Abelian group.
   Principal axis orientation for molecule:
       -0.000000000000    0.831425063727    0.000000000000
       -2.054006486202   -0.415712531863    0.000000000000
        2.054006486202   -0.415712531863    0.000000000000
   Reflection in plane  3 is a valid symmetry operation.
   Rotation about  2 is a valid symmetry operation 
   Reflection in plane  1 is a valid symmetry operation.
  Symmetry bits:    5   2   0
********************************************************************************
   The full molecular point group is C2v .
   The largest Abelian subgroup of the full molecular point group is C2v .
   The computational point group is C2v .
********************************************************************************
--------------------------------------------------------------------------------
   Analysis of internal coordinates specified by Z-matrix 
--------------------------------------------------------------------------------
   *The nuclear repulsion energy is   68.846584656599006 a.u.
   *There are   2 degrees of freedom within the tot. symm. molecular subspace.
   *Z-matrix requests optimization of   0 coordinates.
   *The optimization is constrained.
   *The following   2 parameters can have non-zero 
    derivatives within the totally symmetric subspace:
             A    [ 3]  R    [ 2]
   *The following   0 parameters are to be optimized:

   *The following coordinates must be varied in an  unconstrained optimization.
             A    [ 3]  R    [ 2]
--------------------------------------------------------------------------------


 ----------------------------------------------------------------
         Coordinates used in calculation (QCOMP) 
 ----------------------------------------------------------------
 Z-matrix   Atomic            Coordinates (in bohr)
  Symbol    Number           X              Y              Z
 ----------------------------------------------------------------
     O         8         0.00000000    -0.00000000     0.83142506
     O         8         0.00000000    -2.05400649    -0.41571253
     O         8         0.00000000     2.05400649    -0.41571253
 ----------------------------------------------------------------

  Original Center of Mass Coordinates (QCOM) 
        -0.71068221260052        -0.00000000000000        -0.43150716017935
        -0.71068221260052        -0.00000000000000         1.97146908350164
         1.42136442520104        -0.00000000000000        -1.53996192332229

  Transformation matrix between QCOM and QCOMP (OMAT) 
  (QCOM = OMAT * QCOMP, where Q is stored 3 x NATOMS)
        -0.00000000000000         1.00000000000000        -0.00000000000000
         0.51899705578425        -0.00000000000000        -0.85477602685574
        -0.85477602685574        -0.00000000000000        -0.51899705578425
  test:  OMAT * QCOMP = 
        -0.71068221260052        -0.00000000000000        -0.43150716017935
        -0.71068221260052         0.00000000000000         1.97146908350164
         1.42136442520104        -0.00000000000000        -1.53996192332229

   Interatomic distance matrix (Angstroms) 

                 O             O             O    
                [ 1]        [ 2]        [ 3]
  O    [ 1]     0.00000
  O    [ 2]     1.27160     0.00000
  O    [ 3]     1.27160     2.17387     0.00000
  Inertia tensor (amu*bohr**2)
  151.54841    0.00000    0.00000
    0.00000   16.58515   -0.00000
    0.00000   -0.00000  134.96325
 rotcon2
   Rotational constants (in cm-1): 
          0.3972309702             3.6297361851             0.4460452592
   Rotational constants (in MHz): 
      11908.6865626858        108816.7685268000         13372.1023353848
  ECPDATA file not present.   Using default ECPDATA. 
  @GTFLGS-W, Keyword #GEOM not known and is ignored.
  @GTFLGS-W, Keyword #COORD not known and is ignored.
  @GTFLGS-W, Keyword #DROPMO not known and is ignored.
  @GTFLGS-W, Keyword #CONTRACTION not known and is ignored.
  @GTFLGS-W, Keyword #EXCITE not known and is ignored.
  @GTFLGS-W, Keyword #ESTATE_CONV not known and is ignored.
  @GTFLGS-W, Keyword #ESTATE_SYM not known and is ignored.
  @GTFLGS-W, Keyword #SCF_DAMPING not known and is ignored.
  @GTFLGS-W, Keyword #OCCUPATION not known and is ignored.
  There are   3 frozen-core orbitals.
  There are   93 basis functions.
 @GEOPT-W, Archive file not created for single-point calculation.
 @CHECKOUT-I, Total execution time (CPU/WALL):        0.56/       0.65 seconds.
--executable xjoda finished with status     0 in        0.73 seconds (walltime).
 --invoking executable--
/project1/nike/cfour_v2.1_24_08_2019_emailFromDevin/bin/xvmol
 SERIAL VERSION OF MOLECULE STARTED
********************************************************************************
                    INPUT FROM MOL FILE
********************************************************************************
INTGRL        1    0    1    0    0    0    0    0    0                         
         *** CFOUR Program System (Release V0.1) ***                            
TITLE                                                                           
    2    2 X  Y       0.10E-08              0    0                              
   9999.00      3.00                                                            
          8.00000000    1    4    1    1    1    1                              
O #1   0.000000000000000  -0.000000000000000   0.831425063726621                
   11    5                                                                      
   27032.382631000000        2.1726302464999999E-004   0.0000000000000000       
   4052.3871392000001        1.6838662198999999E-003   0.0000000000000000       
   922.32722709999996        8.7395616264999993E-003   0.0000000000000000       
   261.24070989000001        3.5239968807999997E-002   0.0000000000000000       
   85.354641350999998       0.11153519115000000        0.0000000000000000       
   31.035035245000000       0.25588953960999999        0.0000000000000000       
   12.260860728000001        0.0000000000000000       0.39768730900999999       
   4.9987076005000004        0.0000000000000000       0.24627849430000001       
   1.1703108158000000        0.0000000000000000        0.0000000000000000       
  0.46474740994000002        0.0000000000000000        0.0000000000000000       
  0.18504536357000001        0.0000000000000000        0.0000000000000000       
    6    3                                                                      
   63.274954801000000        6.0685103417999998E-003   0.0000000000000000       
   14.627049379000001        4.1912575824000001E-002   0.0000000000000000       
   4.4501223455999996       0.16153841088000001        0.0000000000000000       
   1.5275799646999999       0.35706951311000001        0.0000000000000000       
  0.52935117942999999        0.0000000000000000       0.44794207502000000       
  0.17478421270000000        0.0000000000000000        0.0000000000000000       
    2    2                                                                      
   2.3140000000000001        1.0000000000000000        0.0000000000000000       
  0.64500000000000002        0.0000000000000000        1.0000000000000000       
    1    1                                                                      
   1.4279999999999999        1.0000000000000000                                 
          8.00000000    1    4    1    1    1    1                              
O #2   0.000000000000000  -2.054006486202362  -0.415712531863311                
   11    5                                                                      
   27032.382631000000        2.1726302464999999E-004   0.0000000000000000       
   4052.3871392000001        1.6838662198999999E-003   0.0000000000000000       
   922.32722709999996        8.7395616264999993E-003   0.0000000000000000       
   261.24070989000001        3.5239968807999997E-002   0.0000000000000000       
   85.354641350999998       0.11153519115000000        0.0000000000000000       
   31.035035245000000       0.25588953960999999        0.0000000000000000       
   12.260860728000001        0.0000000000000000       0.39768730900999999       
   4.9987076005000004        0.0000000000000000       0.24627849430000001       
   1.1703108158000000        0.0000000000000000        0.0000000000000000       
  0.46474740994000002        0.0000000000000000        0.0000000000000000       
  0.18504536357000001        0.0000000000000000        0.0000000000000000       
    6    3                                                                      
   63.274954801000000        6.0685103417999998E-003   0.0000000000000000       
   14.627049379000001        4.1912575824000001E-002   0.0000000000000000       

Running with 10 threads/proc

   4.4501223455999996       0.16153841088000001        0.0000000000000000       
   1.5275799646999999       0.35706951311000001        0.0000000000000000       
  0.52935117942999999        0.0000000000000000       0.44794207502000000       
  0.17478421270000000        0.0000000000000000        0.0000000000000000       
    2    2                                                                      
   2.3140000000000001        1.0000000000000000        0.0000000000000000       
  0.64500000000000002        0.0000000000000000        1.0000000000000000       
    1    1                                                                      
   1.4279999999999999        1.0000000000000000                                 
FINISH                                                                          

********************************************************************************
 ONE- AND TWO-ELECTRON INTEGRALS OVER SYMMETRY-ADAPTED AOS ARE CALCULATED.

  SPHERICAL HARMONICS ARE USED.
  
   2 TYPES OF ATOMS
   2 SYMMETRY OPERATIONS

   REFLECTION IN THE YZ-PLANE
   REFLECTION IN THE XZ-PLANE
  
  INTEGRALS LESS THAN  0.10E-13 ARE NEGLECTED.

  ATOMIC TYPE NUMBER  1 :
  -----------------------

    NUCLEAR CHARGE:                        8
    NUMBER OF SYMMETRY INDEPENDENT ATOMS:  1
    HIGHEST ORBITAL TYPE:                  F

      1 GROUPS OF CGTOS OF S TYPE
      1 GROUPS OF CGTOS OF P TYPE
      1 GROUPS OF CGTOS OF D TYPE
      1 GROUPS OF CGTOS OF F TYPE

    NUCLEAR COORDINATES (IN A.U.) ARE :

    O #1        0.000000000000000       -0.000000000000000        0.831425063726621
  
   BASIS FUNCTION NOT NORMALIZED: 
   CENTER (AS ORDERED IN MOL FILE):   1
   ANGULAR MOMENTUM TYPE          : S
   OFFSET WITHIN ANGULAR MOMENTUM :  1
   <CHI|CHI>                      :    2.6340117148
   BASIS FUNCTION NOT NORMALIZED: 
   CENTER (AS ORDERED IN MOL FILE):   1
   ANGULAR MOMENTUM TYPE          : S
   OFFSET WITHIN ANGULAR MOMENTUM :  2
   <CHI|CHI>                      :    1.6052797155
   BASIS FUNCTION NOT NORMALIZED: 
   CENTER (AS ORDERED IN MOL FILE):   1
   ANGULAR MOMENTUM TYPE          : P
   OFFSET WITHIN ANGULAR MOMENTUM :  1
   <CHI|CHI>                      :    1.9804419117
   BASIS FUNCTION NOT NORMALIZED: 
   CENTER (AS ORDERED IN MOL FILE):   1
   ANGULAR MOMENTUM TYPE          : P
   OFFSET WITHIN ANGULAR MOMENTUM :  2
   <CHI|CHI>                      :    2.2324315035
   BASIS FUNCTION NOT NORMALIZED: 
   CENTER (AS ORDERED IN MOL FILE):   1
   ANGULAR MOMENTUM TYPE          : P
   OFFSET WITHIN ANGULAR MOMENTUM :  3
   <CHI|CHI>                      :    4.0906371199
  ATOMIC TYPE NUMBER  2 :
  -----------------------

    NUCLEAR CHARGE:                        8
    NUMBER OF SYMMETRY INDEPENDENT ATOMS:  1
    HIGHEST ORBITAL TYPE:                  F

      1 GROUPS OF CGTOS OF S TYPE
      1 GROUPS OF CGTOS OF P TYPE
      1 GROUPS OF CGTOS OF D TYPE
      1 GROUPS OF CGTOS OF F TYPE

    NUCLEAR COORDINATES (IN A.U.) ARE :

    O #2        0.000000000000000       -2.054006486202362       -0.415712531863311
  
   BASIS FUNCTION NOT NORMALIZED: 
   CENTER (AS ORDERED IN MOL FILE):   2
   ANGULAR MOMENTUM TYPE          : S
   OFFSET WITHIN ANGULAR MOMENTUM :  1
   <CHI|CHI>                      :    2.6340117148
   BASIS FUNCTION NOT NORMALIZED: 
   CENTER (AS ORDERED IN MOL FILE):   2
   ANGULAR MOMENTUM TYPE          : S
   OFFSET WITHIN ANGULAR MOMENTUM :  2
   <CHI|CHI>                      :    1.6052797155
   BASIS FUNCTION NOT NORMALIZED: 
   CENTER (AS ORDERED IN MOL FILE):   2
   ANGULAR MOMENTUM TYPE          : P
   OFFSET WITHIN ANGULAR MOMENTUM :  1
   <CHI|CHI>                      :    1.9804419117
   BASIS FUNCTION NOT NORMALIZED: 
   CENTER (AS ORDERED IN MOL FILE):   2
   ANGULAR MOMENTUM TYPE          : P
   OFFSET WITHIN ANGULAR MOMENTUM :  2
   <CHI|CHI>                      :    2.2324315035
   BASIS FUNCTION NOT NORMALIZED: 
   CENTER (AS ORDERED IN MOL FILE):   2
   ANGULAR MOMENTUM TYPE          : P
   OFFSET WITHIN ANGULAR MOMENTUM :  3
   <CHI|CHI>                      :    4.0906371199
   INTERNUCLEAR DISTANCES (A) :

     FOR ATOM O #1 (COORDINATES :   0.00000  -0.00000   0.83143)

     O #2   1     DISTANCE IS  1.272

     FOR ATOM O #2 (COORDINATES :   0.00000  -2.05401  -0.41571)

     O #2   3     DISTANCE IS  2.174

   GROUP MULTIPLICATION TABLE :

         1   2   3   4
         2   1   4   3
         3   4   1   2
         4   3   2   1

   GAUSSIAN BASIS INFORMATION :

   ATOM                 EXPONENT      COEFFICIENTS

 O #1  1    S   
+                 1   27032.382631   0.0002173   0.0000000   0.0000000   0.0000000   0.0000000
                  2    4052.387139   0.0016839   0.0000000   0.0000000   0.0000000   0.0000000
                  3     922.327227   0.0087396   0.0000000   0.0000000   0.0000000   0.0000000
                  4     261.240710   0.0352400   0.0000000   0.0000000   0.0000000   0.0000000
                  5      85.354641   0.1115352   0.0000000   0.0000000   0.0000000   0.0000000
                  6      31.035035   0.2558895   0.0000000   0.0000000   0.0000000   0.0000000
                  7      12.260861   0.0000000   0.3976873   0.0000000   0.0000000   0.0000000
                  8       4.998708   0.0000000   0.2462785   0.0000000   0.0000000   0.0000000
                  9       1.170311   0.0000000   0.0000000   1.0000000   0.0000000   0.0000000
                 10       0.464747   0.0000000   0.0000000   0.0000000   1.0000000   0.0000000
                 11       0.185045   0.0000000   0.0000000   0.0000000   0.0000000   1.0000000

 O #1  1    X   
+                12      63.274955   0.0060685   0.0000000   0.0000000
                 13      14.627049   0.0419126   0.0000000   0.0000000
                 14       4.450122   0.1615384   0.0000000   0.0000000
                 15       1.527580   0.3570695   0.0000000   0.0000000
                 16       0.529351   0.0000000   0.4479421   0.0000000
                 17       0.174784   0.0000000   0.0000000   0.2444607

 O #1  1    Y   
+                18      63.274955   0.0060685   0.0000000   0.0000000
                 19      14.627049   0.0419126   0.0000000   0.0000000
                 20       4.450122   0.1615384   0.0000000   0.0000000
                 21       1.527580   0.3570695   0.0000000   0.0000000
                 22       0.529351   0.0000000   0.4479421   0.0000000
                 23       0.174784   0.0000000   0.0000000   0.2444607

 O #1  1    Z   
+                24      63.274955   0.0060685   0.0000000   0.0000000
                 25      14.627049   0.0419126   0.0000000   0.0000000
                 26       4.450122   0.1615384   0.0000000   0.0000000
                 27       1.527580   0.3570695   0.0000000   0.0000000
                 28       0.529351   0.0000000   0.4479421   0.0000000
                 29       0.174784   0.0000000   0.0000000   0.2444607

 O #1  1    XX  
+                30       2.314000   1.0000000   0.0000000
                 31       0.645000   0.0000000   1.0000000

 O #1  1    XY  
+                32       2.314000   1.0000000   0.0000000
                 33       0.645000   0.0000000   1.0000000

 O #1  1    XZ  
+                34       2.314000   1.0000000   0.0000000
                 35       0.645000   0.0000000   1.0000000

 O #1  1    YY  
+                36       2.314000   1.0000000   0.0000000
                 37       0.645000   0.0000000   1.0000000

 O #1  1    YZ  
+                38       2.314000   1.0000000   0.0000000
                 39       0.645000   0.0000000   1.0000000

 O #1  1    ZZ  
+                40       2.314000   1.0000000   0.0000000
                 41       0.645000   0.0000000   1.0000000

 O #1  1    F300
+                42       1.428000   1.0000000

 O #1  1    F210
+                43       1.428000   1.0000000

 O #1  1    F201
+                44       1.428000   1.0000000

 O #1  1    F120
+                45       1.428000   1.0000000

 O #1  1    F111
+                46       1.428000   1.0000000

 O #1  1    F102
+                47       1.428000   1.0000000

 O #1  1    F030
+                48       1.428000   1.0000000

 O #1  1    F021
+                49       1.428000   1.0000000

 O #1  1    F012
+                50       1.428000   1.0000000

 O #1  1    F003
+                51       1.428000   1.0000000

 O #2  1    S   
+                52   27032.382631   0.0002173   0.0000000   0.0000000   0.0000000   0.0000000
                 53    4052.387139   0.0016839   0.0000000   0.0000000   0.0000000   0.0000000
                 54     922.327227   0.0087396   0.0000000   0.0000000   0.0000000   0.0000000
                 55     261.240710   0.0352400   0.0000000   0.0000000   0.0000000   0.0000000
                 56      85.354641   0.1115352   0.0000000   0.0000000   0.0000000   0.0000000
                 57      31.035035   0.2558895   0.0000000   0.0000000   0.0000000   0.0000000
                 58      12.260861   0.0000000   0.3976873   0.0000000   0.0000000   0.0000000
                 59       4.998708   0.0000000   0.2462785   0.0000000   0.0000000   0.0000000
                 60       1.170311   0.0000000   0.0000000   1.0000000   0.0000000   0.0000000
                 61       0.464747   0.0000000   0.0000000   0.0000000   1.0000000   0.0000000
                 62       0.185045   0.0000000   0.0000000   0.0000000   0.0000000   1.0000000

 O #2  3    S   
+                63   27032.382631   0.0002173   0.0000000   0.0000000   0.0000000   0.0000000
                 64    4052.387139   0.0016839   0.0000000   0.0000000   0.0000000   0.0000000
                 65     922.327227   0.0087396   0.0000000   0.0000000   0.0000000   0.0000000
                 66     261.240710   0.0352400   0.0000000   0.0000000   0.0000000   0.0000000
                 67      85.354641   0.1115352   0.0000000   0.0000000   0.0000000   0.0000000
                 68      31.035035   0.2558895   0.0000000   0.0000000   0.0000000   0.0000000
                 69      12.260861   0.0000000   0.3976873   0.0000000   0.0000000   0.0000000
                 70       4.998708   0.0000000   0.2462785   0.0000000   0.0000000   0.0000000
                 71       1.170311   0.0000000   0.0000000   1.0000000   0.0000000   0.0000000
                 72       0.464747   0.0000000   0.0000000   0.0000000   1.0000000   0.0000000
                 73       0.185045   0.0000000   0.0000000   0.0000000   0.0000000   1.0000000

 O #2  1    X   
+                74      63.274955   0.0060685   0.0000000   0.0000000
                 75      14.627049   0.0419126   0.0000000   0.0000000
                 76       4.450122   0.1615384   0.0000000   0.0000000
                 77       1.527580   0.3570695   0.0000000   0.0000000
                 78       0.529351   0.0000000   0.4479421   0.0000000
                 79       0.174784   0.0000000   0.0000000   0.2444607

 O #2  3    X   
+                80      63.274955   0.0060685   0.0000000   0.0000000
                 81      14.627049   0.0419126   0.0000000   0.0000000
                 82       4.450122   0.1615384   0.0000000   0.0000000
                 83       1.527580   0.3570695   0.0000000   0.0000000
                 84       0.529351   0.0000000   0.4479421   0.0000000
                 85       0.174784   0.0000000   0.0000000   0.2444607

 O #2  1    Y   
+                86      63.274955   0.0060685   0.0000000   0.0000000
                 87      14.627049   0.0419126   0.0000000   0.0000000
                 88       4.450122   0.1615384   0.0000000   0.0000000
                 89       1.527580   0.3570695   0.0000000   0.0000000
                 90       0.529351   0.0000000   0.4479421   0.0000000
                 91       0.174784   0.0000000   0.0000000   0.2444607

 O #2  3    Y   
+                92      63.274955   0.0060685   0.0000000   0.0000000
                 93      14.627049   0.0419126   0.0000000   0.0000000
                 94       4.450122   0.1615384   0.0000000   0.0000000
                 95       1.527580   0.3570695   0.0000000   0.0000000
                 96       0.529351   0.0000000   0.4479421   0.0000000
                 97       0.174784   0.0000000   0.0000000   0.2444607

 O #2  1    Z   
+                98      63.274955   0.0060685   0.0000000   0.0000000
                 99      14.627049   0.0419126   0.0000000   0.0000000
                100       4.450122   0.1615384   0.0000000   0.0000000
                101       1.527580   0.3570695   0.0000000   0.0000000
                102       0.529351   0.0000000   0.4479421   0.0000000
                103       0.174784   0.0000000   0.0000000   0.2444607

 O #2  3    Z   
+               104      63.274955   0.0060685   0.0000000   0.0000000
                105      14.627049   0.0419126   0.0000000   0.0000000
                106       4.450122   0.1615384   0.0000000   0.0000000
                107       1.527580   0.3570695   0.0000000   0.0000000
                108       0.529351   0.0000000   0.4479421   0.0000000
                109       0.174784   0.0000000   0.0000000   0.2444607

 O #2  1    XX  
+               110       2.314000   1.0000000   0.0000000
                111       0.645000   0.0000000   1.0000000

 O #2  3    XX  
+               112       2.314000   1.0000000   0.0000000
                113       0.645000   0.0000000   1.0000000

 O #2  1    XY  
+               114       2.314000   1.0000000   0.0000000
                115       0.645000   0.0000000   1.0000000

 O #2  3    XY  
+               116       2.314000   1.0000000   0.0000000
                117       0.645000   0.0000000   1.0000000

 O #2  1    XZ  
+               118       2.314000   1.0000000   0.0000000
                119       0.645000   0.0000000   1.0000000

 O #2  3    XZ  
+               120       2.314000   1.0000000   0.0000000
                121       0.645000   0.0000000   1.0000000

 O #2  1    YY  
+               122       2.314000   1.0000000   0.0000000
                123       0.645000   0.0000000   1.0000000

 O #2  3    YY  
+               124       2.314000   1.0000000   0.0000000
                125       0.645000   0.0000000   1.0000000

 O #2  1    YZ  
+               126       2.314000   1.0000000   0.0000000
                127       0.645000   0.0000000   1.0000000

 O #2  3    YZ  
+               128       2.314000   1.0000000   0.0000000
                129       0.645000   0.0000000   1.0000000

 O #2  1    ZZ  
+               130       2.314000   1.0000000   0.0000000
                131       0.645000   0.0000000   1.0000000

 O #2  3    ZZ  
+               132       2.314000   1.0000000   0.0000000
                133       0.645000   0.0000000   1.0000000

 O #2  1    F300
+               134       1.428000   1.0000000

 O #2  3    F300
+               135       1.428000   1.0000000

 O #2  1    F210
+               136       1.428000   1.0000000

 O #2  3    F210
+               137       1.428000   1.0000000

 O #2  1    F201
+               138       1.428000   1.0000000

 O #2  3    F201
+               139       1.428000   1.0000000

 O #2  1    F120
+               140       1.428000   1.0000000

 O #2  3    F120
+               141       1.428000   1.0000000

 O #2  1    F111
+               142       1.428000   1.0000000

 O #2  3    F111
+               143       1.428000   1.0000000

 O #2  1    F102
+               144       1.428000   1.0000000

 O #2  3    F102
+               145       1.428000   1.0000000

 O #2  1    F030
+               146       1.428000   1.0000000

 O #2  3    F030
+               147       1.428000   1.0000000

 O #2  1    F021
+               148       1.428000   1.0000000

 O #2  3    F021
+               149       1.428000   1.0000000

 O #2  1    F012
+               150       1.428000   1.0000000

 O #2  3    F012
+               151       1.428000   1.0000000

 O #2  1    F003
+               152       1.428000   1.0000000

 O #2  3    F003
+               153       1.428000   1.0000000
108 93
  1  2  3  4  5  6  7  8  9 10 11 12****** 13 14*** 15 16 17 18 19 20 21 22
 23 24 25 26 27 28 29 30 31****** 32 33 34 35****** 36 37 38 39 40 41 42***
 43 44 45 46 47 48 49 50 51 52*** 53 54 55 56 57 58 59*** 60 61 62 63 64 65
 66 67 68 69 70 71 72 73 74 75 76****** 77 78 79 80****** 81 82 83 84 85 86
 87 88 89 90 91 92 93***
1

             SYMMETRY TRANSFORMATION INFO
             93 SYMMETRY ADAPTED BASIS FUNCTIONS 


          IRREDUCIBLE REPRESENTATION NUMBER 1

    1    1  O #1     1S     1   1   1.0
    2    2  O #1     1S     1   2   1.0
    3    3  O #1     1S     1   3   1.0
    4    4  O #1     1S     1   4   1.0
    5    5  O #1     1S     1   5   1.0
    6    6  O #1     2PZ    1  12   1.0
    7    7  O #1     2PZ    1  13   1.0
    8    8  O #1     2PZ    1  14   1.0
    9    9  O #1     3D2-   3  15  -1.0  21  -1.0  25   2.0
   10   10  O #1     3D2-   3  16  -1.0  22  -1.0  26   2.0
   11   11  O #1     3D1+   2  15   1.0  21  -1.0
   12   12  O #1     3D1+   2  16   1.0  22  -1.0
   13   13  O #1     4F1-   3  29  -3.0  34  -3.0  36   2.0
   14   14  O #1     4F3+   2  29   1.0  34  -1.0
   15   15  O #2     1S     2  37   1.0  38   1.0
   16   16  O #2     1S     2  39   1.0  40   1.0
   17   17  O #2     1S     2  41   1.0  42   1.0
   18   18  O #2     1S     2  43   1.0  44   1.0
   19   19  O #2     1S     2  45   1.0  46   1.0
   20   20  O #2     2PY    2  53   1.0  54  -1.0
   21   21  O #2     2PY    2  55   1.0  56  -1.0
   22   22  O #2     2PY    2  57   1.0  58  -1.0
   23   23  O #2     2PZ    2  59   1.0  60   1.0
   24   24  O #2     2PZ    2  61   1.0  62   1.0
   25   25  O #2     2PZ    2  63   1.0  64   1.0
   26   26  O #2     3D2-   6  65  -1.0  77  -1.0  85   2.0  66  -1.0  78  -1.0  86   2.0
   27   27  O #2     3D2-   6  67  -1.0  79  -1.0  87   2.0  68  -1.0  80  -1.0  88   2.0
   28   28  O #2     3D1+   4  65   1.0  77  -1.0  66   1.0  78  -1.0
   29   29  O #2     3D1+   4  67   1.0  79  -1.0  68   1.0  80  -1.0
   30   30  O #2     3D2+   2  81   1.0  82  -1.0
   31   31  O #2     3D2+   2  83   1.0  84  -1.0
   32   32  O #2     4F2-   6  91  -1.0 101  -1.0 105   4.0  92   1.0 102   1.0 106  -4.0
   33   33  O #2     4F1-   6  93  -3.0 103  -3.0 107   2.0  94  -3.0 104  -3.0 108   2.0
   34   34  O #2     4F2+   4  91   3.0 101  -1.0  92  -3.0 102   1.0
   35   35  O #2     4F3+   4  93   1.0 103  -1.0  94   1.0 104  -1.0


          IRREDUCIBLE REPRESENTATION NUMBER 2

   36    1  O #1     2PX    1   6   1.0
   37    2  O #1     2PX    1   7   1.0
   38    3  O #1     2PX    1   8   1.0
   39    4  O #1     3D0    1  19   1.0
   40    5  O #1     3D0    1  20   1.0
   41    6  O #1     4F3-   3  27  -1.0  30  -1.0  32   4.0
   42    7  O #1     4F0    2  27   1.0  30  -3.0
   43    8  O #2     2PX    2  47   1.0  48   1.0
   44    9  O #2     2PX    2  49   1.0  50   1.0
   45   10  O #2     2PX    2  51   1.0  52   1.0
   46   11  O #2     3D1-   2  69   1.0  70  -1.0
   47   12  O #2     3D1-   2  71   1.0  72  -1.0
   48   13  O #2     3D0    2  73   1.0  74   1.0
   49   14  O #2     3D0    2  75   1.0  76   1.0
   50   15  O #2     4F3-   6  89  -1.0  95  -1.0  99   4.0  90  -1.0  96  -1.0 100   4.0
   51   16  O #2     4F0    4  89   1.0  95  -3.0  90   1.0  96  -3.0
   52   17  O #2     4F1+   2  97   1.0  98  -1.0


          IRREDUCIBLE REPRESENTATION NUMBER 3

   53    1  O #1     2PY    1   9   1.0
   54    2  O #1     2PY    1  10   1.0
   55    3  O #1     2PY    1  11   1.0
   56    4  O #1     3D2+   1  23   1.0
   57    5  O #1     3D2+   1  24   1.0
   58    6  O #1     4F2-   3  28  -1.0  33  -1.0  35   4.0
   59    7  O #1     4F2+   2  28   3.0  33  -1.0
   60    8  O #2     1S     2  37   1.0  38  -1.0
   61    9  O #2     1S     2  39   1.0  40  -1.0
   62   10  O #2     1S     2  41   1.0  42  -1.0
   63   11  O #2     1S     2  43   1.0  44  -1.0
   64   12  O #2     1S     2  45   1.0  46  -1.0
   65   13  O #2     2PY    2  53   1.0  54   1.0
   66   14  O #2     2PY    2  55   1.0  56   1.0
   67   15  O #2     2PY    2  57   1.0  58   1.0
   68   16  O #2     2PZ    2  59   1.0  60  -1.0
   69   17  O #2     2PZ    2  61   1.0  62  -1.0
   70   18  O #2     2PZ    2  63   1.0  64  -1.0
   71   19  O #2     3D2-   6  65  -1.0  77  -1.0  85   2.0  66   1.0  78   1.0  86  -2.0
   72   20  O #2     3D2-   6  67  -1.0  79  -1.0  87   2.0  68   1.0  80   1.0  88  -2.0
   73   21  O #2     3D1+   4  65   1.0  77  -1.0  66  -1.0  78   1.0
   74   22  O #2     3D1+   4  67   1.0  79  -1.0  68  -1.0  80   1.0
   75   23  O #2     3D2+   2  81   1.0  82   1.0
   76   24  O #2     3D2+   2  83   1.0  84   1.0
   77   25  O #2     4F2-   6  91  -1.0 101  -1.0 105   4.0  92  -1.0 102  -1.0 106   4.0
   78   26  O #2     4F1-   6  93  -3.0 103  -3.0 107   2.0  94   3.0 104   3.0 108  -2.0
   79   27  O #2     4F2+   4  91   3.0 101  -1.0  92   3.0 102  -1.0
   80   28  O #2     4F3+   4  93   1.0 103  -1.0  94  -1.0 104   1.0


          IRREDUCIBLE REPRESENTATION NUMBER 4

   81    1  O #1     3D1-   1  17   1.0
   82    2  O #1     3D1-   1  18   1.0
   83    3  O #1     4F1+   1  31   1.0
   84    4  O #2     2PX    2  47   1.0  48  -1.0
   85    5  O #2     2PX    2  49   1.0  50  -1.0
   86    6  O #2     2PX    2  51   1.0  52  -1.0
   87    7  O #2     3D1-   2  69   1.0  70   1.0
   88    8  O #2     3D1-   2  71   1.0  72   1.0
   89    9  O #2     3D0    2  73   1.0  74  -1.0
   90   10  O #2     3D0    2  75   1.0  76  -1.0
   91   11  O #2     4F3-   6  89  -1.0  95  -1.0  99   4.0  90   1.0  96   1.0 100  -4.0
   92   12  O #2     4F0    4  89   1.0  95  -3.0  90  -1.0  96   3.0
   93   13  O #2     4F1+   2  97   1.0  98   1.0
  NUCLEAR REPULSION ENERGY :   68.8465846566 A.U.
  @MOLECU-I, ONE ELECTRON INTEGRALS (CPU/WALL):        0.27/       0.03 SECONDS.
  @TWOEL-I,     264521 INTEGRALS OF SYMMETRY TYPE  I I I I
  @TWOEL-I,     864155 INTEGRALS OF SYMMETRY TYPE  I J I J
  @TWOEL-I,     465505 INTEGRALS OF SYMMETRY TYPE  I I J J
  @TWOEL-I,     581250 INTEGRALS OF SYMMETRY TYPE  I J K L
  @TWOEL-I, TOTAL NUMBER OF 2-E INTEGRALS    2175431.
  @MOLECU-I, TWO ELECTRON INTEGRALS (CPU/WALL):       45.17/       4.53 SECONDS.
 @CHECKOUT-I, Total execution time (CPU/WALL):       45.45/       4.58 seconds.
--executable xvmol finished with status     0 in        4.65 seconds (walltime).
 --invoking executable--
/project1/nike/cfour_v2.1_24_08_2019_emailFromDevin/bin/xvmol2ja
 @GETMEM-I,  Allocated   19073 MB of main memory.
 ZMAT order <=> comp order: mapping vector 
           1    1
           2    2
           3    3
 @CHECKOUT-I, Total execution time (CPU/WALL):        0.05/       0.01 seconds.
--executable xvmol2ja finished with status     0 in        0.07 seconds (walltime).
 --invoking executable--
/project1/nike/cfour_v2.1_24_08_2019_emailFromDevin/bin/xvscf
  There are   93 functions in the AO basis.

  There are 4 irreducible representations.

       Irrep        # of functions
         1                 35
         2                 17
         3                 28
         4                 13


  Parameters for SCF calculation: 
        SCF reference function:  RHF  
  Maximum number of iterations: 9999
     Full symmetry point group: C2v 
     Computational point group: C2v 
        Initial density matrix: MOREAD                 
     SCF convergence tolerance: 10**(-13)
  DIIS convergence acceleration:  ON
          Latest start for DIIS:   5
                     DIIS order:   6

  Memory information:     420899 words required.
  Fock matrices are constructed from AO integral file.
 @GETMEM-I,  Allocated       3 MB of main memory.
  Initialization and symmetry analysis required      0.003 seconds.

 @INITGES-I, Routine entered. 
  @INITGES-I, Occupancies from core Hamiltonian:

          Alpha population by irrep:   6    1    4    1
           Beta population by irrep:   6    1    4    1


 total no. of electrons in initial guess :   0.0000000000000000     
  --------------------------------------------------------------------
  Iteration         Total Energy            Largest Density Difference
  --------------------------------------------------------------------
       0            68.846584656598992              0.0000000000D+00
   current occupation vector 
     6  1  4  1
     6  1  4  1
  processed                264521  ao basis integrals from                    65  buffers.
  processed                465505  ao basis integrals from                   114  buffers.
  processed                864155  ao basis integrals from                   211  buffers.
       1          -199.143218767338482              0.3905910393D+01
   current occupation vector 
     6  1  4  1
     6  1  4  1
  processed                264521  ao basis integrals from                    65  buffers.
  processed                465505  ao basis integrals from                   114  buffers.
  processed                864155  ao basis integrals from                   211  buffers.
       2          -206.273249093880708              0.1483515254D+02
   current occupation vector 
     6  1  4  1
     6  1  4  1
  processed                264521  ao basis integrals from                    65  buffers.
  processed                465505  ao basis integrals from                   114  buffers.
  processed                864155  ao basis integrals from                   211  buffers.
       3          -211.608703333713635              0.1497686858D+02
   current occupation vector 
     6  1  4  1
     6  1  4  1
  processed                264521  ao basis integrals from                    65  buffers.
  processed                465505  ao basis integrals from                   114  buffers.
  processed                864155  ao basis integrals from                   211  buffers.
       4          -211.502623900293003              0.1046361613D+02
   current occupation vector 
     6  1  4  1
     6  1  4  1

 sum over diagonal and offdiagdiagonal of C(T)*S*C for irrep                    1
   1.7652546091539989E-013  -5.5149072274139073E-014
 reorthoganalization of MOs is carried out
 sum over diagonal and offdiagdiagonal of C(T)*S*C for irrep                    1
  -2.3869795029440866E-014   9.0698025246042286E-014

 sum over diagonal and offdiagdiagonal of C(T)*S*C for irrep                    2
   2.9309887850104133E-014  -8.2864962179345081E-014
 reorthoganalization of MOs is carried out
 sum over diagonal and offdiagdiagonal of C(T)*S*C for irrep                    2
  -2.7755575615628914E-015  -5.4982602672171144E-015

 sum over diagonal and offdiagdiagonal of C(T)*S*C for irrep                    3
   2.4180657476335909E-013   8.8825333897021649E-013
 reorthoganalization of MOs is carried out
 sum over diagonal and offdiagdiagonal of C(T)*S*C for irrep                    3
  -8.6597395920762210E-015  -3.9246669105904712E-014

 sum over diagonal and offdiagdiagonal of C(T)*S*C for irrep                    4
   5.2180482157382357E-014   5.0366611922814108E-015
 reorthoganalization of MOs is carried out
 sum over diagonal and offdiagdiagonal of C(T)*S*C for irrep                    4
   0.0000000000000000        3.0342753049722448E-016
  processed                264521  ao basis integrals from                    65  buffers.
  processed                465505  ao basis integrals from                   114  buffers.
  processed                864155  ao basis integrals from                   211  buffers.
       5          -206.816378895161080              0.1048315599D+02
   current occupation vector 
     6  1  4  1
     6  1  4  1
  processed                264521  ao basis integrals from                    65  buffers.
  processed                465505  ao basis integrals from                   114  buffers.
  processed                864155  ao basis integrals from                   211  buffers.
       6          -220.808614884262369              0.1625189646D+01
   current occupation vector 
     6  1  4  1
     6  1  4  1
  processed                264521  ao basis integrals from                    65  buffers.
  processed                465505  ao basis integrals from                   114  buffers.
  processed                864155  ao basis integrals from                   211  buffers.
       7          -223.863703634195900              0.4029797869D+00
   current occupation vector 
     6  1  4  1
     6  1  4  1
  processed                264521  ao basis integrals from                    65  buffers.
  processed                465505  ao basis integrals from                   114  buffers.
  processed                864155  ao basis integrals from                   211  buffers.
       8          -224.346363087554920              0.1632545505D+00
   current occupation vector 
     6  1  4  1
     6  1  4  1
  processed                264521  ao basis integrals from                    65  buffers.
  processed                465505  ao basis integrals from                   114  buffers.
  processed                864155  ao basis integrals from                   211  buffers.
       9          -224.350436705953285              0.1536070976D-01
   current occupation vector 
     6  1  4  1
     6  1  4  1

 sum over diagonal and offdiagdiagonal of C(T)*S*C for irrep                    1
   1.9162449405030202E-013  -2.9026218132131430E-013
 reorthoganalization of MOs is carried out
 sum over diagonal and offdiagdiagonal of C(T)*S*C for irrep                    1
   2.7311486405778851E-014  -2.1216778390237647E-014

 sum over diagonal and offdiagdiagonal of C(T)*S*C for irrep                    2
   1.2878587085651816E-014  -2.5549080622536352E-014
 reorthoganalization of MOs is carried out
 sum over diagonal and offdiagdiagonal of C(T)*S*C for irrep                    2
   2.2204460492503131E-016  -7.6195346402117099E-016

 sum over diagonal and offdiagdiagonal of C(T)*S*C for irrep                    3
   2.3225865675158275E-013   6.2030603967334228E-013
 reorthoganalization of MOs is carried out
 sum over diagonal and offdiagdiagonal of C(T)*S*C for irrep                    3
  -7.1054273576010019E-015  -1.6452451958003755E-014

 sum over diagonal and offdiagdiagonal of C(T)*S*C for irrep                    4
   6.3282712403633923E-014   1.4178059251198564E-013
 reorthoganalization of MOs is carried out
 sum over diagonal and offdiagdiagonal of C(T)*S*C for irrep                    4
  -1.7763568394002505E-015  -1.6856136703653052E-015
  processed                264521  ao basis integrals from                    65  buffers.
  processed                465505  ao basis integrals from                   114  buffers.
  processed                864155  ao basis integrals from                   211  buffers.
      10          -224.351831114679072              0.8536326131D-02
   current occupation vector 
     6  1  4  1
     6  1  4  1
  processed                264521  ao basis integrals from                    65  buffers.
  processed                465505  ao basis integrals from                   114  buffers.
  processed                864155  ao basis integrals from                   211  buffers.
      11          -224.352065388507782              0.4273112619D-02
   current occupation vector 
     6  1  4  1
     6  1  4  1
  processed                264521  ao basis integrals from                    65  buffers.
  processed                465505  ao basis integrals from                   114  buffers.
  processed                864155  ao basis integrals from                   211  buffers.
      12          -224.352070377005163              0.7406678842D-03
   current occupation vector 
     6  1  4  1
     6  1  4  1
  processed                264521  ao basis integrals from                    65  buffers.
  processed                465505  ao basis integrals from                   114  buffers.
  processed                864155  ao basis integrals from                   211  buffers.
      13          -224.352071826854143              0.4546377112D-03
   current occupation vector 
     6  1  4  1
     6  1  4  1
  processed                264521  ao basis integrals from                    65  buffers.
  processed                465505  ao basis integrals from                   114  buffers.
  processed                864155  ao basis integrals from                   211  buffers.
      14          -224.352072168496619              0.2577719627D-03
   current occupation vector 
     6  1  4  1
     6  1  4  1

 sum over diagonal and offdiagdiagonal of C(T)*S*C for irrep                    1
   2.5335289421946072E-013  -2.8821869081223575E-013
 reorthoganalization of MOs is carried out
 sum over diagonal and offdiagdiagonal of C(T)*S*C for irrep                    1
   2.1316282072803006E-014   1.3731446323753097E-014

 sum over diagonal and offdiagdiagonal of C(T)*S*C for irrep                    2
   2.1316282072803006E-014  -2.1180815855320609E-014
 reorthoganalization of MOs is carried out
 sum over diagonal and offdiagdiagonal of C(T)*S*C for irrep                    2
  -1.3322676295501878E-015   1.0143595281891693E-015

 sum over diagonal and offdiagdiagonal of C(T)*S*C for irrep                    3
   2.4602542225693469E-013   6.1684908760879608E-013
 reorthoganalization of MOs is carried out
 sum over diagonal and offdiagdiagonal of C(T)*S*C for irrep                    3
  -1.6098233857064770E-014  -4.2599183874173920E-015

 sum over diagonal and offdiagdiagonal of C(T)*S*C for irrep                    4
   6.3948846218409017E-014   1.3933688276564096E-013
 reorthoganalization of MOs is carried out
 sum over diagonal and offdiagdiagonal of C(T)*S*C for irrep                    4
   0.0000000000000000       -1.1681924772275832E-015
  processed                264521  ao basis integrals from                    65  buffers.
  processed                465505  ao basis integrals from                   114  buffers.
  processed                864155  ao basis integrals from                   211  buffers.
      15          -224.352072205733094              0.9900924594D-04
   current occupation vector 
     6  1  4  1
     6  1  4  1
  processed                264521  ao basis integrals from                    65  buffers.
  processed                465505  ao basis integrals from                   114  buffers.
  processed                864155  ao basis integrals from                   211  buffers.
      16          -224.352072206964152              0.1301109210D-04
   current occupation vector 
     6  1  4  1
     6  1  4  1
  processed                264521  ao basis integrals from                    65  buffers.
  processed                465505  ao basis integrals from                   114  buffers.
  processed                864155  ao basis integrals from                   211  buffers.
      17          -224.352072207081534              0.3085137238D-05
   current occupation vector 
     6  1  4  1
     6  1  4  1
  processed                264521  ao basis integrals from                    65  buffers.
  processed                465505  ao basis integrals from                   114  buffers.
  processed                864155  ao basis integrals from                   211  buffers.
      18          -224.352072207095745              0.8984509773D-06
   current occupation vector 
     6  1  4  1
     6  1  4  1
  processed                264521  ao basis integrals from                    65  buffers.
  processed                465505  ao basis integrals from                   114  buffers.
  processed                864155  ao basis integrals from                   211  buffers.
      19          -224.352072207098757              0.7281713899D-06
   current occupation vector 
     6  1  4  1
     6  1  4  1

 sum over diagonal and offdiagdiagonal of C(T)*S*C for irrep                    1
   2.3692159345500841E-013  -2.4637614340561539E-013
 reorthoganalization of MOs is carried out
 sum over diagonal and offdiagdiagonal of C(T)*S*C for irrep                    1
   1.1102230246251565E-014  -8.3635301146966242E-014

 sum over diagonal and offdiagdiagonal of C(T)*S*C for irrep                    2
   3.1530333899354446E-014  -2.4045889321204658E-014
 reorthoganalization of MOs is carried out
 sum over diagonal and offdiagdiagonal of C(T)*S*C for irrep                    2
  -3.7747582837255322E-015   1.6292302737217225E-015

 sum over diagonal and offdiagdiagonal of C(T)*S*C for irrep                    3
   2.1738166822160565E-013   6.4855429519235010E-013
 reorthoganalization of MOs is carried out
 sum over diagonal and offdiagdiagonal of C(T)*S*C for irrep                    3
   2.5091040356528538E-014   7.1479297133008571E-014

 sum over diagonal and offdiagdiagonal of C(T)*S*C for irrep                    4
   5.0182080713057076E-014   1.3074390376936848E-013
 reorthoganalization of MOs is carried out
 sum over diagonal and offdiagdiagonal of C(T)*S*C for irrep                    4
   1.3322676295501878E-015   4.8126908579507969E-016
  processed                264521  ao basis integrals from                    65  buffers.
  processed                465505  ao basis integrals from                   114  buffers.
  processed                864155  ao basis integrals from                   211  buffers.
      20          -224.352072207098985              0.1638930949D-06
   current occupation vector 
     6  1  4  1
     6  1  4  1
  processed                264521  ao basis integrals from                    65  buffers.
  processed                465505  ao basis integrals from                   114  buffers.
  processed                864155  ao basis integrals from                   211  buffers.
      21          -224.352072207098757              0.8077758284D-07
   current occupation vector 
     6  1  4  1
     6  1  4  1
  processed                264521  ao basis integrals from                    65  buffers.
  processed                465505  ao basis integrals from                   114  buffers.
  processed                864155  ao basis integrals from                   211  buffers.
      22          -224.352072207098189              0.7145077918D-08
   current occupation vector 
     6  1  4  1
     6  1  4  1
  processed                264521  ao basis integrals from                    65  buffers.
  processed                465505  ao basis integrals from                   114  buffers.
  processed                864155  ao basis integrals from                   211  buffers.
      23          -224.352072207098871              0.4290927225D-08
   current occupation vector 
     6  1  4  1
     6  1  4  1
  processed                264521  ao basis integrals from                    65  buffers.
  processed                465505  ao basis integrals from                   114  buffers.
  processed                864155  ao basis integrals from                   211  buffers.
      24          -224.352072207098587              0.2923241205D-08
   current occupation vector 
     6  1  4  1
     6  1  4  1

 sum over diagonal and offdiagdiagonal of C(T)*S*C for irrep                    1
   1.5587531265737198E-013  -3.3993931457179084E-013
 reorthoganalization of MOs is carried out
 sum over diagonal and offdiagdiagonal of C(T)*S*C for irrep                    1
   2.3980817331903381E-014   5.6714175921516416E-014

 sum over diagonal and offdiagdiagonal of C(T)*S*C for irrep                    2
   4.2854608750531042E-014  -1.4341048615808885E-014
 reorthoganalization of MOs is carried out
 sum over diagonal and offdiagdiagonal of C(T)*S*C for irrep                    2
  -9.9920072216264089E-016  -5.0741212376086221E-015

 sum over diagonal and offdiagdiagonal of C(T)*S*C for irrep                    3
   2.1715962361668062E-013   6.7449178154200516E-013
 reorthoganalization of MOs is carried out
 sum over diagonal and offdiagdiagonal of C(T)*S*C for irrep                    3
   8.4376949871511897E-015  -5.5381498544999571E-014

 sum over diagonal and offdiagdiagonal of C(T)*S*C for irrep                    4
   6.3504757008558954E-014   1.3070285104703038E-013
 reorthoganalization of MOs is carried out
 sum over diagonal and offdiagdiagonal of C(T)*S*C for irrep                    4
   4.4408920985006262E-016   5.0883750948101276E-015
  processed                264521  ao basis integrals from                    65  buffers.
  processed                465505  ao basis integrals from                   114  buffers.
  processed                864155  ao basis integrals from                   211  buffers.
      25          -224.352072207099098              0.5650304669D-09
   current occupation vector 
     6  1  4  1
     6  1  4  1
  processed                264521  ao basis integrals from                    65  buffers.
  processed                465505  ao basis integrals from                   114  buffers.
  processed                864155  ao basis integrals from                   211  buffers.
      26          -224.352072207099440              0.1268876115D-09
   current occupation vector 
     6  1  4  1
     6  1  4  1
  processed                264521  ao basis integrals from                    65  buffers.
  processed                465505  ao basis integrals from                   114  buffers.
  processed                864155  ao basis integrals from                   211  buffers.
      27          -224.352072207099098              0.2896766160D-10
   current occupation vector 
     6  1  4  1
     6  1  4  1
  processed                264521  ao basis integrals from                    65  buffers.
  processed                465505  ao basis integrals from                   114  buffers.
  processed                864155  ao basis integrals from                   211  buffers.
      28          -224.352072207099042              0.1274669259D-10
   current occupation vector 
     6  1  4  1
     6  1  4  1
  processed                264521  ao basis integrals from                    65  buffers.
  processed                465505  ao basis integrals from                   114  buffers.
  processed                864155  ao basis integrals from                   211  buffers.
      29          -224.352072207099951              0.1816491402D-11
   current occupation vector 
     6  1  4  1
     6  1  4  1

 sum over diagonal and offdiagdiagonal of C(T)*S*C for irrep                    1
   2.2959412149248237E-013  -2.6235167520569226E-013
 reorthoganalization of MOs is carried out
 sum over diagonal and offdiagdiagonal of C(T)*S*C for irrep                    1
  -7.7715611723760958E-015  -5.7965548897285304E-014

 sum over diagonal and offdiagdiagonal of C(T)*S*C for irrep                    2
   2.3092638912203256E-014  -2.3008038101846999E-014
 reorthoganalization of MOs is carried out
 sum over diagonal and offdiagdiagonal of C(T)*S*C for irrep                    2
   0.0000000000000000        2.7776676000438406E-015

 sum over diagonal and offdiagdiagonal of C(T)*S*C for irrep                    3
   2.6290081223123707E-013   5.9968970131773918E-013
 reorthoganalization of MOs is carried out
 sum over diagonal and offdiagdiagonal of C(T)*S*C for irrep                    3
   1.1102230246251565E-014   4.2707807974899852E-014

 sum over diagonal and offdiagdiagonal of C(T)*S*C for irrep                    4
   6.9499961341534799E-014   1.3974702204793213E-013
 reorthoganalization of MOs is carried out
 sum over diagonal and offdiagdiagonal of C(T)*S*C for irrep                    4
  -1.2212453270876722E-015  -7.4741975507482648E-017
  processed                264521  ao basis integrals from                    65  buffers.
  processed                465505  ao basis integrals from                   114  buffers.
  processed                864155  ao basis integrals from                   211  buffers.
      30          -224.352072207099837              0.7432526816D-12
   current occupation vector 
     6  1  4  1
     6  1  4  1
  processed                264521  ao basis integrals from                    65  buffers.
  processed                465505  ao basis integrals from                   114  buffers.
  processed                864155  ao basis integrals from                   211  buffers.
      31          -224.352072207099951              0.2543520949D-12
   current occupation vector 
     6  1  4  1
     6  1  4  1
  processed                264521  ao basis integrals from                    65  buffers.
  processed                465505  ao basis integrals from                   114  buffers.
  processed                864155  ao basis integrals from                   211  buffers.
      32          -224.352072207099894              0.1048605647D-12
   current occupation vector 
     6  1  4  1
     6  1  4  1
  processed                264521  ao basis integrals from                    65  buffers.
  processed                465505  ao basis integrals from                   114  buffers.
  processed                864155  ao basis integrals from                   211  buffers.
      33          -224.352072207099610              0.4597572323D-12
   current occupation vector 
     6  1  4  1
     6  1  4  1
  processed                264521  ao basis integrals from                    65  buffers.
  processed                465505  ao basis integrals from                   114  buffers.
  processed                864155  ao basis integrals from                   211  buffers.
      34          -224.352072207099667              0.2163824675D-12
   current occupation vector 
     6  1  4  1
     6  1  4  1

 sum over diagonal and offdiagdiagonal of C(T)*S*C for irrep                    1
   2.0849988402460440E-013  -1.9298759682417635E-013
 reorthoganalization of MOs is carried out
 sum over diagonal and offdiagdiagonal of C(T)*S*C for irrep                    1
   1.2878587085651816E-014  -5.7393911145789275E-014

 sum over diagonal and offdiagdiagonal of C(T)*S*C for irrep                    2
   1.1102230246251565E-014  -2.8389359912041941E-014
 reorthoganalization of MOs is carried out
 sum over diagonal and offdiagdiagonal of C(T)*S*C for irrep                    2
  -2.3314683517128287E-015   1.1029250747783972E-015

 sum over diagonal and offdiagdiagonal of C(T)*S*C for irrep                    3
   2.2670754162845697E-013   5.9596236991750785E-013
 reorthoganalization of MOs is carried out
 sum over diagonal and offdiagdiagonal of C(T)*S*C for irrep                    3
  -4.6629367034256575E-015   4.2669846406658528E-014

 sum over diagonal and offdiagdiagonal of C(T)*S*C for irrep                    4
   7.9491968563161208E-014   1.5152349814349464E-013
 reorthoganalization of MOs is carried out
 sum over diagonal and offdiagdiagonal of C(T)*S*C for irrep                    4
   0.0000000000000000        2.2905261671743449E-015
  processed                264521  ao basis integrals from                    65  buffers.
  processed                465505  ao basis integrals from                   114  buffers.
[...]
   -0.014062  9b -> 27b                                                 
   -0.012874  9b -> 44b                                                 
    0.012312  3a -> 11a                                                 
    0.011342  3a -> 15a                                                 
    0.011146  4a -> 15a                                                 
    0.053497  8a -> 11a                                                 
   -0.019732  8a -> 13a                                                 
    0.027236  8a -> 18a                                                 
    0.013702  8a -> 20a                                                 
    0.084026  6a -> 10a                                                 
    0.011318  6a -> 21a                                                 
    0.010413  6a -> 40a                                                 
   -0.040038  7a -> 12a                                                 
   -0.022331  7a -> 17a                                                 
   -0.028752  9a -> 19a                                                 
   -0.014062  9a -> 27a                                                 
   -0.012874  9a -> 44a                                                 
    0.011075  3b 6b -> 10b 13b                                          
   -0.024321  4b 6b -> 10b 11b                                          
   -0.010343  4b 6b -> 10b 15b                                          
   -0.013587  4b 6b -> 10b 18b                                          
    0.010878  6b 8b -> 10b 11b                                          
    0.011108  6b 8b -> 10b 26b                                          
   -0.026775  5b 9b -> 10b 11b                                          
   -0.015449  5b 9b -> 10b 15b                                          
   -0.011102  5b 9b -> 10b 18b                                          
   -0.027022  7b 9b -> 10b 11b                                          
   -0.021579  7b 9b -> 10b 18b                                          
    0.012124  4b 5b -> 11b 12b                                          
    0.010720  7b 8b -> 11b 12b                                          
   -0.013515  6b 9b -> 10b 27b                                          
    0.026500  5b 6b -> 10b 12b                                          
    0.017130  5b 6b -> 10b 16b                                          
    0.014154  5b 6b -> 10b 17b                                          
    0.010636  4b 9b -> 10b 16b                                          
    0.029550  8b 9b -> 10b 12b                                          
    0.020854  8b 9b -> 10b 17b                                          
   -0.015281  1a 1b -> 11a 11b                                          
    0.013782  4a 1b -> 11a 11b                                          
   -0.011360  3a 3b -> 11a 11b                                          
    0.013782  1a 4b -> 11a 11b                                          
   -0.027916  4a 4b -> 11a 11b                                          
   -0.011803  4a 4b -> 15a 11b                                          
   -0.014494  4a 4b -> 18a 11b                                          
   -0.011737  4a 4b -> 13a 13b                                          
   -0.011803  4a 4b -> 11a 15b                                          
   -0.014494  4a 4b -> 11a 18b                                          
   -0.013208  4a 4b -> 18a 18b                                          
   -0.013012  4a 4b -> 26a 26b                                          
   -0.015436  8a 8b -> 11a 11b                                          
   -0.019107  8a 8b -> 15a 15b                                          
   -0.015484  6a 6b -> 11a 11b                                          
   -0.011788  2a 2b -> 11a 11b                                          
   -0.019770  5a 5b -> 11a 11b                                          
   -0.011094  5a 5b -> 15a 15b                                          
   -0.010068  7a 5b -> 11a 11b                                          
   -0.010068  5a 7b -> 11a 11b                                          
   -0.027610  7a 7b -> 11a 11b                                          
   -0.018099  7a 7b -> 18a 11b                                          
   -0.018099  7a 7b -> 11a 18b                                          
   -0.021762  7a 7b -> 18a 18b                                          
   -0.026584  3a 3b -> 10a 10b                                          
   -0.013495  4a 3b -> 25a 10b                                          
   -0.013476  8a 3b -> 31a 10b                                          
   -0.013495  3a 4b -> 10a 25b                                          
   -0.013476  3a 8b -> 10a 31b                                          
   -0.031558  8a 8b -> 10a 10b                                          
   -0.083296  6a 6b -> 10a 10b                                          
   -0.011911  6a 6b -> 14a 10b                                          
   -0.024590  6a 6b -> 21a 10b                                          
   -0.011911  6a 6b -> 10a 14b                                          
   -0.012061  6a 6b -> 14a 14b                                          
   -0.024590  6a 6b -> 10a 21b                                          
   -0.011193  6a 6b -> 21a 21b                                          
   -0.011728  6a 6b -> 25a 25b                                          
   -0.015203  5a 5b -> 10a 10b                                          
   -0.013158  7a 7b -> 10a 10b                                          
   -0.282026  9a 9b -> 10a 10b                                          
    0.050997  9a 9b -> 14a 10b                                          
   -0.038217  9a 9b -> 21a 10b                                          
    0.010242  9a 9b -> 25a 10b                                          
    0.012099  9a 9b -> 40a 10b                                          
    0.050997  9a 9b -> 10a 14b                                          
   -0.012453  9a 9b -> 14a 14b                                          
    0.013380  9a 9b -> 21a 14b                                          
   -0.038217  9a 9b -> 10a 21b                                          
    0.013380  9a 9b -> 14a 21b                                          
    0.010242  9a 9b -> 10a 25b                                          
    0.012099  9a 9b -> 10a 40b                                          
   -0.012974  3a 3b -> 12a 12b                                          
   -0.025641  8a 8b -> 12a 12b                                          
   -0.015747  8a 8b -> 17a 12b                                          
   -0.015747  8a 8b -> 12a 17b                                          
   -0.015295  8a 8b -> 17a 17b                                          
   -0.012874  2a 2b -> 12a 12b                                          
   -0.010271  5a 2b -> 12a 12b                                          
   -0.010271  2a 5b -> 12a 12b                                          
   -0.027444  5a 5b -> 12a 12b                                          
   -0.017383  5a 5b -> 16a 12b                                          
   -0.012594  5a 5b -> 17a 12b                                          
   -0.017383  5a 5b -> 12a 16b                                          
   -0.015231  5a 5b -> 16a 16b                                          
   -0.011270  5a 5b -> 17a 16b                                          
   -0.012594  5a 5b -> 12a 17b                                          
   -0.011270  5a 5b -> 16a 17b                                          
   -0.017030  5a 5b -> 17a 17b                                          
   -0.015874  7a 7b -> 16a 16b                                          
   -0.012122  6a 6b -> 27a 27b                                          
   -0.015650  9a 9b -> 19a 19b                                          
   -0.020994  1a 6b -> 11a 10b                                          
   -0.012779  3a 6b -> 13a 10b                                          
    0.028173  4a 6b -> 11a 10b                                          
   -0.011294  4a 6b -> 13a 10b                                          
    0.013454  4a 6b -> 15a 10b                                          
    0.017693  4a 6b -> 18a 10b                                          
    0.012599  8a 6b -> 11a 10b                                          
   -0.011302  8a 6b -> 13a 10b                                          
    0.013453  8a 6b -> 15a 10b                                          
    0.010137  8a 6b -> 26a 10b                                          
   -0.013463  6a 1b -> 11a 10b                                          
    0.019720  2a 9b -> 11a 10b                                          
   -0.012980  2a 9b -> 13a 10b                                          
    0.028325  5a 9b -> 11a 10b                                          
    0.022147  5a 9b -> 15a 10b                                          
    0.013278  5a 9b -> 18a 10b                                          
    0.010012  5a 9b -> 20a 10b                                          
    0.038416  7a 9b -> 11a 10b                                          
   -0.010753  7a 9b -> 13a 10b                                          
   -0.010247  7a 9b -> 15a 10b                                          
    0.032819  7a 9b -> 18a 10b                                          
    0.012076  7a 9b -> 20a 10b                                          
   -0.012068  7a 9b -> 18a 14b                                          
    0.014101  9a 2b -> 11a 10b                                          
   -0.012500  9a 2b -> 29a 10b                                          
    0.011395  9a 7b -> 11a 10b                                          
    0.011240  9a 7b -> 18a 10b                                          
   -0.013463  1a 6b -> 10a 11b                                          
   -0.020994  6a 1b -> 10a 11b                                          
   -0.012779  6a 3b -> 10a 13b                                          
    0.028173  6a 4b -> 10a 11b                                          
   -0.011294  6a 4b -> 10a 13b                                          
    0.013454  6a 4b -> 10a 15b                                          
    0.017693  6a 4b -> 10a 18b                                          
    0.012599  6a 8b -> 10a 11b                                          
   -0.011302  6a 8b -> 10a 13b                                          
    0.013453  6a 8b -> 10a 15b                                          
    0.010137  6a 8b -> 10a 26b                                          
    0.014101  2a 9b -> 10a 11b                                          
   -0.012500  2a 9b -> 10a 29b                                          
    0.011395  7a 9b -> 10a 11b                                          
    0.011240  7a 9b -> 10a 18b                                          
    0.019720  9a 2b -> 10a 11b                                          
   -0.012980  9a 2b -> 10a 13b                                          
    0.028325  9a 5b -> 10a 11b                                          
    0.022147  9a 5b -> 10a 15b                                          
    0.013278  9a 5b -> 10a 18b                                          
    0.010012  9a 5b -> 10a 20b                                          
    0.038416  9a 7b -> 10a 11b                                          
   -0.010753  9a 7b -> 10a 13b                                          
   -0.010247  9a 7b -> 10a 15b                                          
    0.032819  9a 7b -> 10a 18b                                          
   -0.012068  9a 7b -> 14a 18b                                          
    0.012076  9a 7b -> 10a 20b                                          
   -0.010799  7a 9b -> 16a 19b                                          
   -0.010799  9a 7b -> 19a 16b                                          
    0.017423  4a 5b -> 11a 12b                                          
    0.013317  4a 5b -> 11a 16b                                          
    0.010251  4a 5b -> 11a 17b                                          
    0.012490  8a 5b -> 15a 17b                                          
    0.010533  4a 7b -> 18a 16b                                          
    0.010107  7a 4b -> 11a 16b                                          
    0.011474  7a 4b -> 18a 16b                                          
    0.016259  5a 8b -> 11a 12b                                          
    0.010193  5a 8b -> 15a 12b                                          
    0.012255  5a 8b -> 15a 17b                                          
    0.010523  7a 8b -> 18a 17b                                          
    0.014467  3a 5b -> 10a 27b                                          
    0.012362  3a 7b -> 10a 30b                                          
   -0.018775  6a 9b -> 10a 19b                                          
    0.011788  6a 9b -> 14a 19b                                          
   -0.016483  6a 9b -> 10a 27b                                          
   -0.018787  9a 6b -> 10a 19b                                          
    0.016259  8a 5b -> 12a 11b                                          
    0.010193  8a 5b -> 12a 15b                                          
    0.012255  8a 5b -> 17a 15b                                          
    0.010107  4a 7b -> 16a 11b                                          
    0.011474  4a 7b -> 16a 18b                                          
    0.010523  8a 7b -> 17a 18b                                          
    0.017423  5a 4b -> 12a 11b                                          
    0.013317  5a 4b -> 16a 11b                                          
    0.010251  5a 4b -> 17a 11b                                          
    0.010533  7a 4b -> 16a 18b                                          
    0.012490  5a 8b -> 17a 15b                                          
   -0.018787  6a 9b -> 19a 10b                                          
    0.014467  5a 3b -> 27a 10b                                          
    0.012362  7a 3b -> 30a 10b                                          
   -0.018775  9a 6b -> 19a 10b                                          
   -0.016483  9a 6b -> 27a 10b                                          
    0.011788  9a 6b -> 19a 14b                                          
    0.010380  8a 9b -> 15a 19b                                          
   -0.012036  3a 9b -> 10a 12b                                          
    0.011484  3a 9b -> 10a 28b                                          
   -0.010137  8a 9b -> 10a 12b                                          
   -0.018202  6a 2b -> 10a 12b                                          
   -0.032183  6a 5b -> 10a 12b                                          
   -0.021619  6a 5b -> 10a 16b                                          
   -0.019848  6a 5b -> 10a 17b                                          
   -0.012091  6a 5b -> 10a 22b                                          
   -0.012089  6a 7b -> 10a 16b                                          
    0.011770  9a 1b -> 10a 12b                                          
   -0.013191  9a 3b -> 10a 12b                                          
   -0.015550  9a 4b -> 10a 16b                                          
   -0.010592  9a 4b -> 10a 17b                                          
   -0.039687  9a 8b -> 10a 12b                                          
   -0.028969  9a 8b -> 10a 17b                                          
   -0.013624  9a 8b -> 10a 22b                                          
    0.011770  1a 9b -> 12a 10b                                          
   -0.013191  3a 9b -> 12a 10b                                          
   -0.015550  4a 9b -> 16a 10b                                          
   -0.010592  4a 9b -> 17a 10b                                          
   -0.039687  8a 9b -> 12a 10b                                          
   -0.028969  8a 9b -> 17a 10b                                          
   -0.013624  8a 9b -> 22a 10b                                          
   -0.018202  2a 6b -> 12a 10b                                          
   -0.032183  5a 6b -> 12a 10b                                          
   -0.021619  5a 6b -> 16a 10b                                          
   -0.019848  5a 6b -> 17a 10b                                          
   -0.012091  5a 6b -> 22a 10b                                          
   -0.012089  7a 6b -> 16a 10b                                          
   -0.012036  9a 3b -> 12a 10b                                          
    0.011484  9a 3b -> 28a 10b                                          
   -0.010137  9a 8b -> 12a 10b                                          
    0.010380  9a 8b -> 19a 15b                                          
    0.011075  3a 6a -> 10a 13a                                          
   -0.024321  4a 6a -> 10a 11a                                          
   -0.010343  4a 6a -> 10a 15a                                          
   -0.013587  4a 6a -> 10a 18a                                          
    0.010878  6a 8a -> 10a 11a                                          
    0.011108  6a 8a -> 10a 26a                                          
   -0.026775  5a 9a -> 10a 11a                                          
   -0.015449  5a 9a -> 10a 15a                                          
   -0.011102  5a 9a -> 10a 18a                                          
   -0.027022  7a 9a -> 10a 11a                                          
   -0.021579  7a 9a -> 10a 18a                                          
    0.012124  4a 5a -> 11a 12a                                          
    0.010720  7a 8a -> 11a 12a                                          
   -0.013515  6a 9a -> 10a 27a                                          
    0.026500  5a 6a -> 10a 12a                                          
    0.017130  5a 6a -> 10a 16a                                          
    0.014154  5a 6a -> 10a 17a                                          
    0.010636  4a 9a -> 10a 16a                                          
    0.029550  8a 9a -> 10a 12a                                          
    0.020854  8a 9a -> 10a 17a                                          
    0.010018  6a 7b 9b -> 10a 10b 11b                                   
    0.014900  9a 4b 9b -> 10a 10b 11b                                   
   -0.011422  6a 8b 9b -> 10a 10b 12b                                   
    0.011164  9a 6b 8b -> 10a 10b 12b                                   
   -0.013677  9a 5b 9b -> 10a 10b 12b                                   
    0.010018  7a 9a 6b -> 10a 11a 10b                                   
    0.014900  4a 9a 9b -> 10a 11a 10b                                   
    0.011164  6a 8a 9b -> 10a 12a 10b                                   
   -0.013677  5a 9a 9b -> 10a 12a 10b                                   
   -0.011422  8a 9a 6b -> 10a 12a 10b                                   
 
 ************************ 2019-09-06 03:58:27 *************************
                      Normal termination of mrcc.
 **********************************************************************
--executable dmrcc finished with status     0 in    23465.39 seconds (walltime).
  The final electronic energy is      -225.148606019856203 a.u. 
  This computation required                        23522.47 seconds (walltime).
--- SharcNET Job Epilogue ---
Job completed successfully.
               jobid: 1798827
               resid: 3275734
         exit status: 0
      allocated time: 23524.1
           user time: 189026
         system time: 1587.16
peak rss=20981321728; peak vsz=20992811008 (bytes)
atime=23524.1; utime=189026; stime=1587.16; exit=0
