 **********************************************************************
                          MRCC program system
 **********************************************************************
 
                              Written by
    Mihaly Kallay, Zoltan Rolik, Jozsef Csontos, Istvan Ladjanszki,
       Lorant Szegedy, Bence Ladoczki, Gyula Samu, Klara Petrov,
        Mate Farkas, Peter Nagy, David Mester, and Bence Hegely
 
        Department of Physical Chemistry and Materials Science
            Budapest University of Technology and Economics
                  Budapest P.O.Box 91, H-1521 Hungary
 
                              www.mrcc.hu

 ************************ 2017-03-02 17:17:43 *************************
 Executing minp...

 Reading input from MINP...
 
 Input file:
 
# TITLE
basis=aug-cc-pCVTZ
uncontract=on
calc=CCSDT(Q)
mem=16GB
core=corr
cctol=9
ccmaxit=999
scfmaxit=9999
scftype=ROHF
scfiguess=ao
rest=2
mult=3
geom
Si

 
 
 Checking keyword combinations...
 
 Keywords:
 
 active=none
 agrid=ld0006-ld0590
 basis=aug-cc-pcvtz
 basopt=off
 bpcompo=0.985
 bpcompv=0.98
 bpdfo=0.985
 bpocc=0.985
 bppdo=0.985
 bppdv=0.98
 bpedo=0.985
 bpedv=0.98
 calc=ccsdt(q)
 ccmaxit=999
 ccprog=mrcc
 cctol=9
 charge=0
 cialg=disk
 ciguess=off
 cmpgrp=auto
 core=corr
 corembed=off
 dboc=off
 dendec=cholesky
 dens=0
 dfalg=invsqrt
 dfbasis_cor=none
 dfbasis_scf=none
 dfintran=ovirt
 dft=off
 diag=david
 domrad=10.d0
 drpaalg=fit
 ecp=auto
 edisp=off
 embed=off
 epert=none
 eps=0.975
 excrad=0.d0
 excrad_fin=0.000000000D+00
 freq=off
 gauss=spher
 geom=zmat
 gopt=off
 ghost=none
 gtol=7
 grtol=10
 hamilton=dc
 iface=none
 intalg=auto
 itol=13
 lcorthr=loose
 lccrest=off
 lmp2dens=on
 lnoepso=3e-5
 lnoepsv=1e-6
 localcc=off
 locintrf=disk
 maxact=off
 maxex=0
 bfbasis=none
 mem=16gb
 molden=on
 mulmet=0
 mult=3
 nacto=0
 nactv=0
 naf_cor=off
 naf_scf=off
 nafalg=albe
 naftyp=
 nchol=auto
 ndeps=1e-3
 nstate=1
 nsing=0
 ntrip=0
 occ=
 optalg=
 optmaxit=50
 optetol=1e-6
 optgtol=1e-4
 optstol=1e-3
 orblocc=off
 orbloco=off
 orblocv=off
 osveps=1e-3
 ovirt=off
 ovosnorb=80.0
 ptfreq=0.0
 popul=off
 pressure=100000
 qmmm=off
 refdet=none
 rest=2
 rgrid=log3
 rohftype=semicanonical
 scspe=1.d0
 scsps=1.2d0
 scspt=0.33333333333333
 scfalg=auto
 scfdamp=off
 scfdiis=on
 scfdiis_end=9999
 scfdiis_start=1
 scfdiis_step=1
 scfdtol=13
 scfext=10
 scfiguess=ao
 scflshift=off
 scfmaxit=9999
 scftype=rohf
 scftol=9
 spairtol=1e-4
 symm=
 talg=occ
 temp=298.15
 test=off
 tprint=off
 uncontract=on
 unit=angs
 verbosity=2
 wpairtol=0.100000000E-05

 ************************ 2017-03-02 17:17:43 *************************
 Executing integ...

 Allocation of 16.0 Gbytes of memory...
 
 Number of atoms:            1
 Charge:                     0
 Number of electrons:       14
 Number of core electrons:  10
 Spin multiplicity:          3
 
                 Cartesian coordinates [bohr]      Atomic mass [AMU]  Z
   1  Si    0.00000000    0.00000000    0.00000000    27.976927      14
 
 This molecule is a spherical top.
 
 Rotational constants [cm-1]: 

 
 Point group: Dxh 
 Computational point group: D2h 
 
 Cartesian coordinates in standard orientation [bohr]
   1  Si    0.00000000    0.00000000    0.00000000
 
 Nuclear repulsion energy [au]:          0.000000000000
 
 
 Basis set information:
 
 Maximum angular momentum: f
 Maximum number of contracted Gaussians:   18
 Maximum number of primitive Gaussians:    18
 Spherical harmonic GTOs are used.
 
    1  Si aug-cc-pcvtz [ 18s 12p 5d 3f | 18s 12p 5d 3f ]
 
 Total number of basis functions:   100
 
 
 Character table for point group D2h:
 
          E  C2z C2y C2x  i  Qxy Qxz Qyz 
    Ag    1   1   1   1   1   1   1   1
    B1g   1   1  -1  -1   1   1  -1  -1
    B2g   1  -1   1  -1   1  -1   1  -1
    B3g   1  -1  -1   1   1  -1  -1   1
    Au    1   1   1   1  -1  -1  -1  -1
    B1u   1   1  -1  -1  -1  -1   1   1
    B2u   1  -1   1  -1  -1   1  -1   1
    B3u   1  -1  -1   1  -1   1   1  -1
 
 Number of basis functions per irrep:
    Ag     28
    B1g     5
    B2g     5
    B3g     5
    Au      3
    B1u    18
    B2u    18
    B3u    18
 
 
 Calculation of overlap integrals...
 CPU time [min]:     0.038                   Wall time [min]:     0.028
 Calculation of kinetic energy integrals...
 CPU time [min]:     0.075                   Wall time [min]:     0.029
 Calculation of nuclear attraction integrals...
 CPU time [min]:     0.086                   Wall time [min]:     0.029
 
 Calculation of prescreening integrals...
 CPU time [min]:     0.309                   Wall time [min]:     0.040
 
 Calculation of two-electron integrals...
   9% done.
  39% done.
 100% done.
 CPU time [min]:     1.065                   Wall time [min]:     0.088

 ************************ 2017-03-02 17:17:49 *************************
 Executing scf...

 Allocation of 16.0 Gbytes of memory...
 ======================================================================
 ITERATION STEP   1
 CPU time [min]:     0.019                   Wall time [min]:     0.013
 
 ALPHA OCC:   2   1   1   1   0   1   1   1
 BETA  OCC:   2   0   1   0   0   1   1   1
 ***HARTREE-FOCK ENERGY IN STEP   1 IS  874902.7687534177675843 [AU]
 ======================================================================
 ITERATION STEP   2
 CPU time [min]:     0.134                   Wall time [min]:     0.021
 
 ALPHA OCC:   3   0   0   0   0   2   2   1
 BETA  OCC:   3   0   0   0   0   1   1   1
 ***HARTREE-FOCK ENERGY IN STEP   2 IS     -20.4017152307667651 [AU]
 ======================================================================
 ITERATION STEP   3
 CPU time [min]:     0.200                   Wall time [min]:     0.025
 
 ALPHA OCC:   3   0   0   0   0   2   2   1
 BETA  OCC:   3   0   0   0   0   1   1   1
 ***HARTREE-FOCK ENERGY IN STEP   3 IS    -257.0222188376876034 [AU]
 ======================================================================
 ITERATION STEP   4
 CPU time [min]:     0.270                   Wall time [min]:     0.030
 
 ALPHA OCC:   3   0   0   0   0   2   2   1
 BETA  OCC:   3   0   0   0   0   1   1   1
 ***HARTREE-FOCK ENERGY IN STEP   4 IS    -258.8690175588381521 [AU]
 ======================================================================
 ITERATION STEP   5
 CPU time [min]:     0.376                   Wall time [min]:     0.036
 
 ALPHA OCC:   3   0   0   0   0   2   2   1
 BETA  OCC:   3   0   0   0   0   1   1   1
 ***HARTREE-FOCK ENERGY IN STEP   5 IS    -261.9136981853777684 [AU]
 ======================================================================
 ITERATION STEP   6
 CPU time [min]:     0.443                   Wall time [min]:     0.041
 
 ALPHA OCC:   3   0   0   0   0   2   2   1
 BETA  OCC:   3   0   0   0   0   1   1   1
 ***HARTREE-FOCK ENERGY IN STEP   6 IS    -262.6861038456605115 [AU]
 ======================================================================
 ITERATION STEP   7
 CPU time [min]:     0.511                   Wall time [min]:     0.045
 
 ALPHA OCC:   3   0   0   0   0   2   2   1
 BETA  OCC:   3   0   0   0   0   1   1   1
 ***HARTREE-FOCK ENERGY IN STEP   7 IS    -264.8848052030788836 [AU]
 ======================================================================
 ITERATION STEP   8
 CPU time [min]:     0.581                   Wall time [min]:     0.050
 
 ALPHA OCC:   3   0   0   0   0   2   2   1
 BETA  OCC:   3   0   0   0   0   1   1   1
 ***HARTREE-FOCK ENERGY IN STEP   8 IS    -265.0143181214494916 [AU]
 ======================================================================
 ITERATION STEP   9
 CPU time [min]:     0.653                   Wall time [min]:     0.054
 
 ALPHA OCC:   3   0   0   0   0   2   2   1
 BETA  OCC:   3   0   0   0   0   1   1   1
 ***HARTREE-FOCK ENERGY IN STEP   9 IS    -271.8551363142706805 [AU]
 ======================================================================
 ITERATION STEP  10
 CPU time [min]:     0.720                   Wall time [min]:     0.059
 
 ALPHA OCC:   3   0   0   0   0   2   2   1
 BETA  OCC:   3   0   0   0   0   1   1   1
 ***HARTREE-FOCK ENERGY IN STEP  10 IS    -275.1435165294636249 [AU]
 ======================================================================
 ITERATION STEP  11
 CPU time [min]:     0.782                   Wall time [min]:     0.063
 
 ALPHA OCC:   3   0   0   0   0   2   1   2
 BETA  OCC:   3   0   0   0   0   1   1   1
 ***HARTREE-FOCK ENERGY IN STEP  11 IS    -278.9066444546555772 [AU]
 ======================================================================
 ITERATION STEP  12
 CPU time [min]:     0.848                   Wall time [min]:     0.067
 
 ALPHA OCC:   3   1   0   1   0   1   1   1
 BETA  OCC:   2   1   0   0   0   1   1   1
 ***HARTREE-FOCK ENERGY IN STEP  12 IS    -287.3423018044670698 [AU]
 ======================================================================
 ITERATION STEP  13
 CPU time [min]:     0.953                   Wall time [min]:     0.074
 
 ALPHA OCC:   3   0   1   1   0   1   1   1
 BETA  OCC:   2   0   1   0   0   1   1   1
 ***HARTREE-FOCK ENERGY IN STEP  13 IS    -195.6398034303526856 [AU]
 ======================================================================
 ITERATION STEP  14
 CPU time [min]:     1.015                   Wall time [min]:     0.078
 
 ALPHA OCC:   3   0   0   0   0   2   1   2
 BETA  OCC:   3   0   0   0   0   1   1   1
 ***HARTREE-FOCK ENERGY IN STEP  14 IS     -15.7691033133150231 [AU]
 ======================================================================
 ITERATION STEP  15
 CPU time [min]:     1.081                   Wall time [min]:     0.082
 
 ALPHA OCC:   5   0   0   0   0   1   1   1
 BETA  OCC:   3   0   0   0   0   1   1   1
 ***HARTREE-FOCK ENERGY IN STEP  15 IS    -283.6241779187217844 [AU]
 ======================================================================
 ITERATION STEP  16
 CPU time [min]:     1.142                   Wall time [min]:     0.086
 
 ALPHA OCC:   3   0   0   0   0   2   2   1
 BETA  OCC:   3   0   0   0   0   1   1   1
 ***HARTREE-FOCK ENERGY IN STEP  16 IS    -231.3703892877631176 [AU]
 ======================================================================
 ITERATION STEP  17
 CPU time [min]:     1.227                   Wall time [min]:     0.092
 
 ALPHA OCC:   3   0   0   0   0   2   2   1
 BETA  OCC:   3   0   0   0   0   1   1   1
 ***HARTREE-FOCK ENERGY IN STEP  17 IS    -285.0376842953525056 [AU]
 ======================================================================
 ITERATION STEP  18
 CPU time [min]:     1.320                   Wall time [min]:     0.098
 
 ALPHA OCC:   3   0   0   0   0   2   2   1
 BETA  OCC:   3   0   0   0   0   1   1   1
 ***HARTREE-FOCK ENERGY IN STEP  18 IS    -288.1854020426269471 [AU]
 ======================================================================
 ITERATION STEP  19
 CPU time [min]:     1.422                   Wall time [min]:     0.105
 
 ALPHA OCC:   3   0   0   0   0   2   2   1
 BETA  OCC:   3   0   0   0   0   1   1   1
 ***HARTREE-FOCK ENERGY IN STEP  19 IS    -288.6223402949781871 [AU]
 ======================================================================
 ITERATION STEP  20
 CPU time [min]:     1.484                   Wall time [min]:     0.109
 
 ALPHA OCC:   3   0   0   0   0   2   2   1
 BETA  OCC:   3   0   0   0   0   1   1   1
 ***HARTREE-FOCK ENERGY IN STEP  20 IS    -288.8298593409264754 [AU]
 ======================================================================
 ITERATION STEP  21
 CPU time [min]:     1.551                   Wall time [min]:     0.113
 
 ALPHA OCC:   3   0   0   0   0   2   2   1
 BETA  OCC:   3   0   0   0   0   1   1   1
 ***HARTREE-FOCK ENERGY IN STEP  21 IS    -288.8520464334933990 [AU]
 ======================================================================
 ITERATION STEP  22
 CPU time [min]:     1.617                   Wall time [min]:     0.117
 
 ALPHA OCC:   3   0   0   0   0   2   2   1
 BETA  OCC:   3   0   0   0   0   1   1   1
 ***HARTREE-FOCK ENERGY IN STEP  22 IS    -288.8525004569443126 [AU]
 ======================================================================
 ITERATION STEP  23
 CPU time [min]:     1.693                   Wall time [min]:     0.122
 
 ALPHA OCC:   3   0   0   0   0   2   2   1
 BETA  OCC:   3   0   0   0   0   1   1   1
 ***HARTREE-FOCK ENERGY IN STEP  23 IS    -288.8525024848162843 [AU]
 ======================================================================
 ITERATION STEP  24
 CPU time [min]:     1.755                   Wall time [min]:     0.126
 
 ALPHA OCC:   3   0   0   0   0   2   2   1
 BETA  OCC:   3   0   0   0   0   1   1   1
 ***HARTREE-FOCK ENERGY IN STEP  24 IS    -288.8525027959366867 [AU]
 ======================================================================
 ITERATION STEP  25
 CPU time [min]:     1.816                   Wall time [min]:     0.130
 
 ALPHA OCC:   3   0   0   0   0   2   2   1
 BETA  OCC:   3   0   0   0   0   1   1   1
 ***HARTREE-FOCK ENERGY IN STEP  25 IS    -288.8525027978426465 [AU]
 ======================================================================
 ITERATION STEP  26
 CPU time [min]:     1.887                   Wall time [min]:     0.135
 
 ALPHA OCC:   3   0   0   0   0   2   2   1
 BETA  OCC:   3   0   0   0   0   1   1   1
 ***HARTREE-FOCK ENERGY IN STEP  26 IS    -288.8525027978467961 [AU]
 ======================================================================
 ITERATION STEP  27
 CPU time [min]:     1.949                   Wall time [min]:     0.139
 
 ALPHA OCC:   3   0   0   0   0   2   2   1
 BETA  OCC:   3   0   0   0   0   1   1   1
 ***HARTREE-FOCK ENERGY IN STEP  27 IS    -288.8525027978482740 [AU]
 ======================================================================
 ITERATION STEP  28
 CPU time [min]:     2.011                   Wall time [min]:     0.143
 
 ALPHA OCC:   3   0   0   0   0   2   2   1
 BETA  OCC:   3   0   0   0   0   1   1   1
 ***HARTREE-FOCK ENERGY IN STEP  28 IS    -288.8525027978477624 [AU]
 ======================================================================
 
 SUCCESS...
 THE SCF ITERATION HAS CONVERGED!
 
                   Ag  B1g B2g B3g Au  B1u B2u B3u 
 FINAL ALPHA OCC:   3   0   0   0   0   2   2   1
 FINAL BETA  OCC:   3   0   0   0   0   1   1   1
 
 ***FINAL HARTREE-FOCK ENERGY:   -288.8525027978477624 [AU]
 ***SEMICANONICAL ROHF ENERGY:   -288.8525027978471940 [AU]
 
 RETURNING FROM SCF ALGORITHM
 ======================================================================

 ************************ 2017-03-02 17:18:00 *************************
 Executing ovirt...

 ovirt, the routine of orbital optimization and integral transformation 
Thu Mar  2 17:18:00 EST 2017
 Allocated memory:                   16384  Mb
 UHF calculation! 
 integral transformation: AOs --- MOs (alpha-alpha)
 # of basis functions, # of int. blocks   100     1
100 % 
 second part
100 %
 integral transformation is completed! 
 integral transformation: AOs ------ MOs (beta-beta)
 # of basis functions, # of int. blocks   100     1
100 % 
 second part
100 %
 integral transformation is completed! 
 integral transformation: AOs ----- MOs (alpha-beta)
 size                  80000                     1
# of basis functions, # of int. blocks   100     1
 integral transformation
======================================== 
Thu Mar  2 17:25:54 EST 2017
  ovirt terminated normally 

 ************************ 2017-03-02 17:25:57 *************************
 Executing goldstone...

 Generation of CC equations in terms of H and T...
 Generation of antisymmetrized Goldstone diagrams...
 Number of diagrams in T^1 equations:    15
 Number of diagrams in T^2 equations:    38
 Number of diagrams in T^3 equations:    50
 Number of diagrams in T^4 equations:     5
 Translation of diagrams to factorized equations...
 Optimizing intermediate calculation...
 Number of floating-point operations per iteration step:   6.3311E+12
 Probable CPU time per iteration step (hours):     63.31
 Required memory (Mbytes):   46086.8
 Number of intermediates:                                  81
 Number of intermediates to be stored:                     31
 Length of intermediate file (Mbytes):     303.2

 ************************ 2017-03-02 17:26:01 *************************
 Executing xmrcc...

 **********************************************************************
 CC(3)(4) calculation 
 
 
 Allocation of8192.0 Mbytes of memory...
 Number of spinorbitals:                   200
 Number of alpha electrons:                        8
 Number of beta electrons:                         6
 Spin multiplicity:                     2
 z-component of spin:  1.0
 Spatial symmetry:                      4
 Convergence criterion:  1.0E-09
 Construction of occupation graphs...
 Number of                     0 -fold excitations:                      1
 Number of                     1 -fold excitations:                    282
 Number of                     2 -fold excitations:                  85008
 Number of                     3 -fold excitations:               15849364
 Total number of configurations:               15934655
 Calculation of coupling coefficients...
 Length of intermediate file (Mbytes):     233.2
 
 ======================================================================
 
 Spin case  1   Alpha:  0   Beta:  4
 Number of excitations:                5660790
 Spin case  2   Alpha:  1   Beta:  3
 Number of excitations:              246643888
 Spin case  3   Alpha:  2   Beta:  2
 Number of excitations:              964172031
 Spin case  4   Alpha:  3   Beta:  1
 Number of excitations:              496066396
 Spin case  5   Alpha:  4   Beta:  0
 Number of excitations:               24372390
 Number of                     4 -fold excitations:             1736915495
 
 Memory requirements /Mbyte/: 
               Minimal        Optimal
 Real*8:       4328.6606      4328.6606
 Integer:        69.7510
 Total:        4398.4116      4398.4116
 

 ************************ 2017-03-02 17:26:40 *************************
 Executing goldstone...

 Generation of CC equations in terms of H and T...
 Generation of antisymmetrized Goldstone diagrams...
 Number of diagrams in T^1 equations:    15
 Number of diagrams in T^2 equations:    34
 Number of diagrams in T^3 equations:     2
 Translation of diagrams to factorized equations...
 Optimizing intermediate calculation...
 Number of floating-point operations per iteration step:   1.2392E+10
 Probable CPU time per iteration step (hours):      0.12
 Required memory (Mbytes):    9894.8
 Number of intermediates:                                  49
 Number of intermediates to be stored:                     20
 Length of intermediate file (Mbytes):     191.5

 ************************ 2017-03-02 17:26:42 *************************
 Executing xmrcc...

 **********************************************************************
 CC(2)(3) calculation 
 
 
 Allocation of8192.0 Mbytes of memory...
 Number of spinorbitals:                   200
 Number of alpha electrons:                        8
 Number of beta electrons:                         6
 Spin multiplicity:                     2
 z-component of spin:  1.0
 Spatial symmetry:                      4
 Convergence criterion:  1.0E-09
 Construction of occupation graphs...
 Number of                     0 -fold excitations:                      1
 Number of                     1 -fold excitations:                    282
 Number of                     2 -fold excitations:                  85008
 Total number of configurations:                  85291
 Calculation of coupling coefficients...
 Length of intermediate file (Mbytes):     153.2
 
 ======================================================================
 
 Spin case  1   Alpha:  0   Beta:  3
 Number of excitations:                 335476
 Spin case  2   Alpha:  1   Beta:  2
 Number of excitations:                6185598
 Spin case  3   Alpha:  2   Beta:  1
 Number of excitations:                8446676
 Spin case  4   Alpha:  3   Beta:  0
 Number of excitations:                 881614
 Number of                     3 -fold excitations:               15849364
 
 Memory requirements /Mbyte/: 
               Minimal        Optimal
 Real*8:        290.0439       971.3869
 Integer:         5.1617
 Total:         295.2056       976.5486
 

 ************************ 2017-03-02 17:26:44 *************************
 Executing mrcc...

 **********************************************************************
 CCSD(T) calculation                                                    
 
 
 OpenMP parallel version is running.
 Number of CPUs:  32
 Allocation of  971.4 Mbytes of memory...
 Number of spinorbitals: 200
 Number of alpha electrons:  8
 Number of beta  electrons:  6
 Spin multiplicity: 2
 z-component of spin:  1.0
 Spatial symmetry: 4
 Convergence criterion:  1.0E-09
 Construction of occupation graphs...
 Number of 0-fold excitations: 1
 Number of 1-fold excitations: 282
 Number of 2-fold excitations: 85008
 Total number of determinants: 85291
 Calculation of coupling coefficients...
 Initial cluster amplitudes are generated.
 Length of intermediate file (Mbytes):     153.2
 Reading integral list from unit 55...
 Sorting integrals...
 Sorting integrals...
 Sorting integrals...
 Sorting integrals...
 Energy of reference determinant [au]:    -288.852502797847
 Calculation of MP denominators...
 
 Starting CC iteration...
 ======================================================================
 Norm of residual vector:     5.85870429
 CPU time [min]:     7.265                   Wall time [min]:     1.785
 
 Iteration  1  CC energy:  -289.26159549  Energy decrease:   0.40909269
 ======================================================================
 Norm of residual vector:     0.21199116
 CPU time [min]:    13.640                   Wall time [min]:     2.557
 
 Iteration  2  CC energy:  -289.27596522  Energy decrease:   0.01436973
 ======================================================================
 Norm of residual vector:     0.03736891
 CPU time [min]:    19.721                   Wall time [min]:     3.336
 
 Iteration  3  CC energy:  -289.27978755  Energy decrease:   0.00382233
 ======================================================================
 Norm of residual vector:     0.00953167
 CPU time [min]:    25.511                   Wall time [min]:     4.049
 
 Iteration  4  CC energy:  -289.27976760  Energy decrease:   0.00001994
 ======================================================================
 Norm of residual vector:     0.00276292
 CPU time [min]:    33.034                   Wall time [min]:     4.867
 
 Iteration  5  CC energy:  -289.27987262  Energy decrease:   0.00010502
 ======================================================================
 Norm of residual vector:     0.00064728
 CPU time [min]:    40.395                   Wall time [min]:     5.765
 
 Iteration  6  CC energy:  -289.27986896  Energy decrease:   0.00000366
 ======================================================================
 Norm of residual vector:     0.00015066
 CPU time [min]:    46.852                   Wall time [min]:     6.664
 
 Iteration  7  CC energy:  -289.27986776  Energy decrease:   0.00000121
 ======================================================================
 Norm of residual vector:     0.00004307
 CPU time [min]:    53.745                   Wall time [min]:     7.525
 
 Iteration  8  CC energy:  -289.27986914  Energy decrease:   0.00000138
 ======================================================================
 Norm of residual vector:     0.00001032
 CPU time [min]:    60.631                   Wall time [min]:     8.380
 
 Iteration  9  CC energy:  -289.27986874  Energy decrease:   0.00000040
 ======================================================================
 Norm of residual vector:     0.00000257
 CPU time [min]:    66.877                   Wall time [min]:     9.247
 
 Iteration 10  CC energy:  -289.27986876  Energy decrease:   0.00000002
 ======================================================================
 Norm of residual vector:     0.00000064
 CPU time [min]:    74.134                   Wall time [min]:    10.133
 
 Iteration 11  CC energy:  -289.27986877  Energy decrease:   0.00000001
 ======================================================================
 Norm of residual vector:     0.00000017
 CPU time [min]:    81.316                   Wall time [min]:    11.058
 
 Iteration 12  CC energy:  -289.27986877  Energy decrease:   4.2231E-09
 ======================================================================
 Norm of residual vector:     0.00000004
 CPU time [min]:    89.074                   Wall time [min]:    12.059
 
 Iteration 13  CC energy:  -289.27986877  Energy decrease:   5.2108E-10
 ======================================================================
 Norm of residual vector:     0.00000001
 CPU time [min]:    96.207                   Wall time [min]:    13.066
 
 Iteration 14  CC energy:  -289.27986877  Energy decrease:   1.0209E-10
 ======================================================================
 Norm of residual vector:     2.4595E-09
 CPU time [min]:   103.472                   Wall time [min]:    13.998
 
 Iteration 15  CC energy:  -289.27986877  Energy decrease:   6.1561E-11
 ======================================================================
 Norm of residual vector:     5.6323E-10
 CPU time [min]:   110.686                   Wall time [min]:    14.870
 
 Iteration 16  CC energy:  -289.27986877  Energy decrease:   1.1482E-11
 ======================================================================
 
 Iteration has converged in 16 steps.
 
 Final results:
 Total CCSD energy [au]:            -289.279868767017
 
 Perturbative corrections are calculated...
 ======================================================================
 Spin case  1   Alpha:  0   Beta:  3
 Number of excitations:        335476
 CPU time [min]:   111.721                   Wall time [min]:    14.944
 ======================================================================
 Spin case  2   Alpha:  1   Beta:  2
 Number of excitations:        6185598
 CPU time [min]:   115.549                   Wall time [min]:    15.116
 ======================================================================
 Spin case  3   Alpha:  2   Beta:  1
 Number of excitations:        8446676
 CPU time [min]:   119.626                   Wall time [min]:    15.279
 ======================================================================
 Spin case  4   Alpha:  3   Beta:  0
 Number of excitations:        881614
 CPU time [min]:   120.401                   Wall time [min]:    15.305
 ======================================================================
 Number of 3-fold excitations: 15849364
 
 
 CPU time [min]:   120.434                   Wall time [min]:    15.306
 
 Total CCSD[T] energy [au]:         -289.285635231241
 Total CCSD(T) energy [au]:         -289.285596525809

 ************************ 2017-03-02 17:42:03 *************************
 Executing goldstone...

 Generation of CC equations in terms of H and T...
 Generation of antisymmetrized Goldstone diagrams...
 Number of diagrams in T^1 equations:    15
 Number of diagrams in T^2 equations:    38
 Number of diagrams in T^3 equations:    50
 Number of diagrams in T^4 equations:     5
 Translation of diagrams to factorized equations...
 Optimizing intermediate calculation...
 Number of floating-point operations per iteration step:   6.3311E+12
 Probable CPU time per iteration step (hours):     63.31
 Required memory (Mbytes):   46086.8
 Number of intermediates:                                  81
 Number of intermediates to be stored:                     31
 Length of intermediate file (Mbytes):     303.2

 ************************ 2017-03-02 17:42:06 *************************
 Executing xmrcc...

 **********************************************************************
 CC(3)(4) calculation 
 
 
 Allocation of8192.0 Mbytes of memory...
 Number of spinorbitals:                   200
 Number of alpha electrons:                        8
 Number of beta electrons:                         6
 Spin multiplicity:                     2
 z-component of spin:  1.0
 Spatial symmetry:                      4
 Convergence criterion:  1.0E-09
 Construction of occupation graphs...
 Number of                     0 -fold excitations:                      1
 Number of                     1 -fold excitations:                    282
 Number of                     2 -fold excitations:                  85008
 Number of                     3 -fold excitations:               15849364
 Total number of configurations:               15934655
 Calculation of coupling coefficients...
 Length of intermediate file (Mbytes):     233.2
 
 ======================================================================
 
 Spin case  1   Alpha:  0   Beta:  4
 Number of excitations:                5660790
 Spin case  2   Alpha:  1   Beta:  3
 Number of excitations:              246643888
 Spin case  3   Alpha:  2   Beta:  2
 Number of excitations:              964172031
 Spin case  4   Alpha:  3   Beta:  1
 Number of excitations:              496066396
 Spin case  5   Alpha:  4   Beta:  0
 Number of excitations:               24372390
 Number of                     4 -fold excitations:             1736915495
 
 Memory requirements /Mbyte/: 
               Minimal        Optimal
 Real*8:       4328.6606      4328.6606
 Integer:        69.7510
 Total:        4398.4116      4398.4116
 

 ************************ 2017-03-02 17:42:47 *************************
 Executing mrcc...

 **********************************************************************
 CCSDT(Q) calculation                                                   
 
 
 OpenMP parallel version is running.
 Number of CPUs:  32
 Allocation of 4328.7 Mbytes of memory...
 Number of spinorbitals: 200
 Number of alpha electrons:  8
 Number of beta  electrons:  6
 Spin multiplicity: 2
 z-component of spin:  1.0
 Spatial symmetry: 4
 Convergence criterion:  1.0E-09
 Construction of occupation graphs...
 Number of 0-fold excitations: 1
 Number of 1-fold excitations: 282
 Number of 2-fold excitations: 85008
 Number of 3-fold excitations: 15849364
 Total number of determinants: 15934655
 Calculation of coupling coefficients...
 Initial cluster amplitudes are read from unit 16.
 Length of intermediate file (Mbytes):     233.2
 Reading integral list from unit 55...
 Sorting integrals...
 Sorting integrals...
 Sorting integrals...
 Sorting integrals...
 Energy of reference determinant [au]:    -288.852502797847
 Calculation of MP denominators...
 
 Starting CC iteration...
 ======================================================================
 Norm of residual vector:     0.37598166
 CPU time [min]:   275.127                   Wall time [min]:    15.088
 
 Iteration  1  CC energy:  -289.27986877  Energy decrease:   8.5265E-13
 ======================================================================
 Norm of residual vector:     0.03676410
 CPU time [min]:   518.047                   Wall time [min]:    26.450
 
 Iteration  2  CC energy:  -289.28479128  Energy decrease:   0.00492251
 ======================================================================
 Norm of residual vector:     0.01469298
 CPU time [min]:   761.976                   Wall time [min]:    37.679
 
 Iteration  3  CC energy:  -289.28611848  Energy decrease:   0.00132720
 ======================================================================
 Norm of residual vector:     0.00361411
 CPU time [min]:  1004.287                   Wall time [min]:    49.128
 
 Iteration  4  CC energy:  -289.28623913  Energy decrease:   0.00012065
 ======================================================================
 Norm of residual vector:     0.00094159
 CPU time [min]:  1257.687                   Wall time [min]:    61.165
 
 Iteration  5  CC energy:  -289.28626092  Energy decrease:   0.00002179
 ======================================================================
 Norm of residual vector:     0.00037556
 CPU time [min]:  1506.800                   Wall time [min]:    72.627
 
 Iteration  6  CC energy:  -289.28627090  Energy decrease:   0.00000998
 ======================================================================
 Norm of residual vector:     0.00010970
 CPU time [min]:  1760.882                   Wall time [min]:    84.333
 
 Iteration  7  CC energy:  -289.28627284  Energy decrease:   0.00000194
 ======================================================================
 Norm of residual vector:     0.00003861
 CPU time [min]:  2017.095                   Wall time [min]:    96.037
 
 Iteration  8  CC energy:  -289.28627257  Energy decrease:   0.00000028
 ======================================================================
 Norm of residual vector:     0.00001286
 CPU time [min]:  2254.434                   Wall time [min]:   107.115
 
 Iteration  9  CC energy:  -289.28627280  Energy decrease:   0.00000023
 ======================================================================
 Norm of residual vector:     0.00000399
 CPU time [min]:  2497.497                   Wall time [min]:   118.877
 
 Iteration 10  CC energy:  -289.28627281  Energy decrease:   0.00000001
 ======================================================================
 Norm of residual vector:     0.00000149
 CPU time [min]:  2730.111                   Wall time [min]:   129.581
 
 Iteration 11  CC energy:  -289.28627279  Energy decrease:   0.00000002
 ======================================================================
 Norm of residual vector:     0.00000048
 CPU time [min]:  2954.638                   Wall time [min]:   140.065
 
 Iteration 12  CC energy:  -289.28627278  Energy decrease:   0.00000001
 ======================================================================
 Norm of residual vector:     0.00000016
 CPU time [min]:  3179.075                   Wall time [min]:   150.525
 
 Iteration 13  CC energy:  -289.28627278  Energy decrease:   1.8235E-10
 ======================================================================
 Norm of residual vector:     0.00000007
 CPU time [min]:  3398.494                   Wall time [min]:   160.919
 
 Iteration 14  CC energy:  -289.28627278  Energy decrease:   1.0189E-09
 ======================================================================
 Norm of residual vector:     0.00000002
 CPU time [min]:  3622.627                   Wall time [min]:   171.580
 
 Iteration 15  CC energy:  -289.28627278  Energy decrease:   3.7710E-10
 ======================================================================
 Norm of residual vector:     0.00000001
 CPU time [min]:  3841.070                   Wall time [min]:   182.295
 
 Iteration 16  CC energy:  -289.28627278  Energy decrease:   2.1600E-12
 ======================================================================
 Norm of residual vector:     2.1166E-09
 CPU time [min]:  4063.954                   Wall time [min]:   193.005
 
 Iteration 17  CC energy:  -289.28627278  Energy decrease:   4.1496E-11
 ======================================================================
 Norm of residual vector:     6.0531E-10
 CPU time [min]:  4284.459                   Wall time [min]:   202.868
 
 Iteration 18  CC energy:  -289.28627278  Energy decrease:   6.0822E-12
 ======================================================================
 
 Iteration has converged in 18 steps.
 
 Final results:
 Total CCSDT energy [au]:           -289.286272780200
 
 Perturbative corrections are calculated...
 ======================================================================
 Spin case  1   Alpha:  0   Beta:  4
 Number of excitations:        5660790
 CPU time [min]:  4333.910                   Wall time [min]:   205.326
 ======================================================================
 Spin case  2   Alpha:  1   Beta:  3
 Number of excitations:        246643888
 CPU time [min]:  5028.526                   Wall time [min]:   228.518
 ======================================================================
 Spin case  3   Alpha:  2   Beta:  2
 Number of excitations:        964172031
 CPU time [min]:  7103.178                   Wall time [min]:   299.673
 ======================================================================
 Spin case  4   Alpha:  3   Beta:  1
 Number of excitations:        496066396
 CPU time [min]:  8006.814                   Wall time [min]:   330.451
 ======================================================================
 Spin case  5   Alpha:  4   Beta:  0
 Number of excitations:        24372390
 CPU time [min]:  8070.676                   Wall time [min]:   332.799
 ======================================================================
 Number of 4-fold excitations: 1736915495
 
 T_2^+ contribution:              -0.000061961996
 T_3^+ contribution:              -0.000107981764
 T_1^+ * T_2^+ contribution:      -0.000000481069
 T_1^+ * <ab||ij> contribution:    0.000000248482
 T_2^+ * f_ai contribution:       -0.000001012769
 
 CPU time [min]:  8082.741                   Wall time [min]:   335.463
 
 Total CCSDT[Q] energy [au]:        -289.286334742196
 Total CCSDT(Q)/A energy [au]:      -289.286443205029
 Total CCSDT(Q)/B energy [au]:      -289.286443488247
 
 ************************ 2017-03-02 23:18:15 *************************
                      Normal termination of mrcc.
 **********************************************************************
--- SharcNET Job Epilogue ---
Job completed successfully.
               jobid: 1362261
               resid: 2852058
         exit status: 0
      allocated time: 21634
           user time: 429799
         system time: 62893.5
peak rss=11747127296; peak vsz=11747127296 (bytes)
atime=21634; utime=429799; stime=62893.5; exit=0
