 **********************************************************************
                          MRCC program system
 **********************************************************************
 
                              Written by
    Mihaly Kallay, Zoltan Rolik, Jozsef Csontos, Istvan Ladjanszki,
       Lorant Szegedy, Bence Ladoczki, Gyula Samu, Klara Petrov,
        Mate Farkas, Peter Nagy, David Mester, and Bence Hegely
 
        Department of Physical Chemistry and Materials Science
            Budapest University of Technology and Economics
                  Budapest P.O.Box 91, H-1521 Hungary
 
                              www.mrcc.hu

 ************************ 2017-03-02 17:25:42 *************************
 Executing minp...

 Reading input from MINP...
 
 Input file:
 
# TITLE
basis=aug-cc-pCVTZ-EMSL
uncontract=on
calc=CCSDT(Q)
mem=16GB
core=1
cctol=9
ccmaxit=999
scfmaxit=9999
scftype=ROHF
scfiguess=ao
rest=2
mult=3
geom
Si

 
 
 Checking keyword combinations...
 
 Keywords:
 
 active=none
 agrid=ld0006-ld0590
 basis=aug-cc-pcvtz-emsl
 basopt=off
 bpcompo=0.985
 bpcompv=0.98
 bpdfo=0.985
 bpocc=0.985
 bppdo=0.985
 bppdv=0.98
 bpedo=0.985
 bpedv=0.98
 calc=ccsdt(q)
 ccmaxit=999
 ccprog=mrcc
 cctol=9
 charge=0
 cialg=disk
 ciguess=off
 cmpgrp=auto
 core=1
 corembed=off
 dboc=off
 dendec=cholesky
 dens=0
 dfalg=invsqrt
 dfbasis_cor=none
 dfbasis_scf=none
 dfintran=ovirt
 dft=off
 diag=david
 domrad=10.d0
 drpaalg=fit
 ecp=auto
 edisp=off
 embed=off
 epert=none
 eps=0.975
 excrad=0.d0
 excrad_fin=0.000000000D+00
 freq=off
 gauss=spher
 geom=zmat
 gopt=off
 ghost=none
 gtol=7
 grtol=10
 hamilton=dc
 iface=none
 intalg=auto
 itol=13
 lcorthr=loose
 lccrest=off
 lmp2dens=on
 lnoepso=3e-5
 lnoepsv=1e-6
 localcc=off
 locintrf=disk
 maxact=off
 maxex=0
 bfbasis=none
 mem=16gb
 molden=on
 mulmet=0
 mult=3
 nacto=0
 nactv=0
 naf_cor=off
 naf_scf=off
 nafalg=albe
 naftyp=
 nchol=auto
 ndeps=1e-3
 nstate=1
 nsing=0
 ntrip=0
 occ=
 optalg=
 optmaxit=50
 optetol=1e-6
 optgtol=1e-4
 optstol=1e-3
 orblocc=off
 orbloco=off
 orblocv=off
 osveps=1e-3
 ovirt=off
 ovosnorb=80.0
 ptfreq=0.0
 popul=off
 pressure=100000
 qmmm=off
 refdet=none
 rest=2
 rgrid=log3
 rohftype=semicanonical
 scspe=1.d0
 scsps=1.2d0
 scspt=0.33333333333333
 scfalg=auto
 scfdamp=off
 scfdiis=on
 scfdiis_end=9999
 scfdiis_start=1
 scfdiis_step=1
 scfdtol=13
 scfext=10
 scfiguess=ao
 scflshift=off
 scfmaxit=9999
 scftype=rohf
 scftol=9
 spairtol=1e-4
 symm=
 talg=occ
 temp=298.15
 test=off
 tprint=off
 uncontract=on
 unit=angs
 verbosity=2
 wpairtol=0.100000000E-05

 ************************ 2017-03-02 17:25:43 *************************
 Executing integ...

 Allocation of 16.0 Gbytes of memory...
 
 Number of atoms:            1
 Charge:                     0
 Number of electrons:       14
 Number of core electrons:   2
 Spin multiplicity:          3
 
                 Cartesian coordinates [bohr]      Atomic mass [AMU]  Z
   1  Si    0.00000000    0.00000000    0.00000000    27.976927      14
 
 This molecule is a spherical top.
 
 Rotational constants [cm-1]: 

 
 Point group: Dxh 
 Computational point group: D2h 
 
 Cartesian coordinates in standard orientation [bohr]
   1  Si    0.00000000    0.00000000    0.00000000
 
 Nuclear repulsion energy [au]:          0.000000000000
 
 
 Basis set information:
 
 Maximum angular momentum: f
 Maximum number of contracted Gaussians:   18
 Maximum number of primitive Gaussians:    18
 Spherical harmonic GTOs are used.
 
    1  Si aug-cc-pcvtz-emsl [ 18s 12p 5d 3f | 18s 12p 5d 3f ]
 
 Total number of basis functions:   100
 
 
 Character table for point group D2h:
 
          E  C2z C2y C2x  i  Qxy Qxz Qyz 
    Ag    1   1   1   1   1   1   1   1
    B1g   1   1  -1  -1   1   1  -1  -1
    B2g   1  -1   1  -1   1  -1   1  -1
    B3g   1  -1  -1   1   1  -1  -1   1
    Au    1   1   1   1  -1  -1  -1  -1
    B1u   1   1  -1  -1  -1  -1   1   1
    B2u   1  -1   1  -1  -1   1  -1   1
    B3u   1  -1  -1   1  -1   1   1  -1
 
 Number of basis functions per irrep:
    Ag     28
    B1g     5
    B2g     5
    B3g     5
    Au      3
    B1u    18
    B2u    18
    B3u    18
 
 
 Calculation of overlap integrals...
 CPU time [min]:     0.027                   Wall time [min]:     0.027
 Calculation of kinetic energy integrals...
 CPU time [min]:     0.049                   Wall time [min]:     0.028
 Calculation of nuclear attraction integrals...
 CPU time [min]:     0.066                   Wall time [min]:     0.029
 
 Calculation of prescreening integrals...
 CPU time [min]:     0.255                   Wall time [min]:     0.038
 
 Calculation of two-electron integrals...
   9% done.
  39% done.
 100% done.
 CPU time [min]:     1.048                   Wall time [min]:     0.088

 ************************ 2017-03-02 17:25:49 *************************
 Executing scf...

 Allocation of 16.0 Gbytes of memory...
 ======================================================================
 ITERATION STEP   1
 CPU time [min]:     0.020                   Wall time [min]:     0.014
 
 ALPHA OCC:   2   1   1   1   0   1   1   1
 BETA  OCC:   2   0   1   0   0   1   1   1
 ***HARTREE-FOCK ENERGY IN STEP   1 IS  874902.7687534177675843 [AU]
 ======================================================================
 ITERATION STEP   2
 CPU time [min]:     0.093                   Wall time [min]:     0.019
 
 ALPHA OCC:   3   0   0   0   0   2   2   1
 BETA  OCC:   3   0   0   0   0   1   1   1
 ***HARTREE-FOCK ENERGY IN STEP   2 IS     -20.4017152307667651 [AU]
 ======================================================================
 ITERATION STEP   3
 CPU time [min]:     0.161                   Wall time [min]:     0.024
 
 ALPHA OCC:   3   0   0   0   0   2   2   1
 BETA  OCC:   3   0   0   0   0   1   1   1
 ***HARTREE-FOCK ENERGY IN STEP   3 IS    -257.0222188376876034 [AU]
 ======================================================================
 ITERATION STEP   4
 CPU time [min]:     0.238                   Wall time [min]:     0.029
 
 ALPHA OCC:   3   0   0   0   0   2   2   1
 BETA  OCC:   3   0   0   0   0   1   1   1
 ***HARTREE-FOCK ENERGY IN STEP   4 IS    -258.8690175588381521 [AU]
 ======================================================================
 ITERATION STEP   5
 CPU time [min]:     0.307                   Wall time [min]:     0.033
 
 ALPHA OCC:   3   0   0   0   0   2   2   1
 BETA  OCC:   3   0   0   0   0   1   1   1
 ***HARTREE-FOCK ENERGY IN STEP   5 IS    -261.9136981853777684 [AU]
 ======================================================================
 ITERATION STEP   6
 CPU time [min]:     0.377                   Wall time [min]:     0.038
 
 ALPHA OCC:   3   0   0   0   0   2   2   1
 BETA  OCC:   3   0   0   0   0   1   1   1
 ***HARTREE-FOCK ENERGY IN STEP   6 IS    -262.6861038456605115 [AU]
 ======================================================================
 ITERATION STEP   7
 CPU time [min]:     0.446                   Wall time [min]:     0.042
 
 ALPHA OCC:   3   0   0   0   0   2   2   1
 BETA  OCC:   3   0   0   0   0   1   1   1
 ***HARTREE-FOCK ENERGY IN STEP   7 IS    -264.8848052030788836 [AU]
 ======================================================================
 ITERATION STEP   8
 CPU time [min]:     0.521                   Wall time [min]:     0.047
 
 ALPHA OCC:   3   0   0   0   0   2   2   1
 BETA  OCC:   3   0   0   0   0   1   1   1
 ***HARTREE-FOCK ENERGY IN STEP   8 IS    -265.0143181214494916 [AU]
 ======================================================================
 ITERATION STEP   9
 CPU time [min]:     0.590                   Wall time [min]:     0.051
 
 ALPHA OCC:   3   0   0   0   0   2   2   1
 BETA  OCC:   3   0   0   0   0   1   1   1
 ***HARTREE-FOCK ENERGY IN STEP   9 IS    -271.8551363142706805 [AU]
 ======================================================================
 ITERATION STEP  10
 CPU time [min]:     0.658                   Wall time [min]:     0.056
 
 ALPHA OCC:   3   0   0   0   0   2   2   1
 BETA  OCC:   3   0   0   0   0   1   1   1
 ***HARTREE-FOCK ENERGY IN STEP  10 IS    -275.1435165294636249 [AU]
 ======================================================================
 ITERATION STEP  11
 CPU time [min]:     0.720                   Wall time [min]:     0.060
 
 ALPHA OCC:   3   0   0   0   0   2   1   2
 BETA  OCC:   3   0   0   0   0   1   1   1
 ***HARTREE-FOCK ENERGY IN STEP  11 IS    -278.9066444546555772 [AU]
 ======================================================================
 ITERATION STEP  12
 CPU time [min]:     0.787                   Wall time [min]:     0.064
 
 ALPHA OCC:   3   1   0   1   0   1   1   1
 BETA  OCC:   2   1   0   0   0   1   1   1
 ***HARTREE-FOCK ENERGY IN STEP  12 IS    -287.3423018044670698 [AU]
 ======================================================================
 ITERATION STEP  13
 CPU time [min]:     0.855                   Wall time [min]:     0.069
 
 ALPHA OCC:   3   0   1   1   0   1   1   1
 BETA  OCC:   2   0   1   0   0   1   1   1
 ***HARTREE-FOCK ENERGY IN STEP  13 IS    -195.6398034303526856 [AU]
 ======================================================================
 ITERATION STEP  14
 CPU time [min]:     0.917                   Wall time [min]:     0.073
 
 ALPHA OCC:   3   0   0   0   0   2   1   2
 BETA  OCC:   3   0   0   0   0   1   1   1
 ***HARTREE-FOCK ENERGY IN STEP  14 IS     -15.7691033133150231 [AU]
 ======================================================================
 ITERATION STEP  15
 CPU time [min]:     0.979                   Wall time [min]:     0.077
 
 ALPHA OCC:   5   0   0   0   0   1   1   1
 BETA  OCC:   3   0   0   0   0   1   1   1
 ***HARTREE-FOCK ENERGY IN STEP  15 IS    -283.6241779187217844 [AU]
 ======================================================================
 ITERATION STEP  16
 CPU time [min]:     1.046                   Wall time [min]:     0.081
 
 ALPHA OCC:   3   0   0   0   0   2   2   1
 BETA  OCC:   3   0   0   0   0   1   1   1
 ***HARTREE-FOCK ENERGY IN STEP  16 IS    -231.3703892877631176 [AU]
 ======================================================================
 ITERATION STEP  17
 CPU time [min]:     1.108                   Wall time [min]:     0.085
 
 ALPHA OCC:   3   0   0   0   0   2   2   1
 BETA  OCC:   3   0   0   0   0   1   1   1
 ***HARTREE-FOCK ENERGY IN STEP  17 IS    -285.0376842953525056 [AU]
 ======================================================================
 ITERATION STEP  18
 CPU time [min]:     1.171                   Wall time [min]:     0.089
 
 ALPHA OCC:   3   0   0   0   0   2   2   1
 BETA  OCC:   3   0   0   0   0   1   1   1
 ***HARTREE-FOCK ENERGY IN STEP  18 IS    -288.1854020426269471 [AU]
 ======================================================================
 ITERATION STEP  19
 CPU time [min]:     1.235                   Wall time [min]:     0.093
 
 ALPHA OCC:   3   0   0   0   0   2   2   1
 BETA  OCC:   3   0   0   0   0   1   1   1
 ***HARTREE-FOCK ENERGY IN STEP  19 IS    -288.6223402949781871 [AU]
 ======================================================================
 ITERATION STEP  20
 CPU time [min]:     1.305                   Wall time [min]:     0.098
 
 ALPHA OCC:   3   0   0   0   0   2   2   1
 BETA  OCC:   3   0   0   0   0   1   1   1
 ***HARTREE-FOCK ENERGY IN STEP  20 IS    -288.8298593409264754 [AU]
 ======================================================================
 ITERATION STEP  21
 CPU time [min]:     1.370                   Wall time [min]:     0.102
 
 ALPHA OCC:   3   0   0   0   0   2   2   1
 BETA  OCC:   3   0   0   0   0   1   1   1
 ***HARTREE-FOCK ENERGY IN STEP  21 IS    -288.8520464334933990 [AU]
 ======================================================================
 ITERATION STEP  22
 CPU time [min]:     1.433                   Wall time [min]:     0.106
 
 ALPHA OCC:   3   0   0   0   0   2   2   1
 BETA  OCC:   3   0   0   0   0   1   1   1
 ***HARTREE-FOCK ENERGY IN STEP  22 IS    -288.8525004569443126 [AU]
 ======================================================================
 ITERATION STEP  23
 CPU time [min]:     1.495                   Wall time [min]:     0.110
 
 ALPHA OCC:   3   0   0   0   0   2   2   1
 BETA  OCC:   3   0   0   0   0   1   1   1
 ***HARTREE-FOCK ENERGY IN STEP  23 IS    -288.8525024848162843 [AU]
 ======================================================================
 ITERATION STEP  24
 CPU time [min]:     1.557                   Wall time [min]:     0.114
 
 ALPHA OCC:   3   0   0   0   0   2   2   1
 BETA  OCC:   3   0   0   0   0   1   1   1
 ***HARTREE-FOCK ENERGY IN STEP  24 IS    -288.8525027959366867 [AU]
 ======================================================================
 ITERATION STEP  25
 CPU time [min]:     1.624                   Wall time [min]:     0.118
 
 ALPHA OCC:   3   0   0   0   0   2   2   1
 BETA  OCC:   3   0   0   0   0   1   1   1
 ***HARTREE-FOCK ENERGY IN STEP  25 IS    -288.8525027978426465 [AU]
 ======================================================================
 ITERATION STEP  26
 CPU time [min]:     1.707                   Wall time [min]:     0.124
 
 ALPHA OCC:   3   0   0   0   0   2   2   1
 BETA  OCC:   3   0   0   0   0   1   1   1
 ***HARTREE-FOCK ENERGY IN STEP  26 IS    -288.8525027978467961 [AU]
 ======================================================================
 ITERATION STEP  27
 CPU time [min]:     1.770                   Wall time [min]:     0.128
 
 ALPHA OCC:   3   0   0   0   0   2   2   1
 BETA  OCC:   3   0   0   0   0   1   1   1
 ***HARTREE-FOCK ENERGY IN STEP  27 IS    -288.8525027978482740 [AU]
 ======================================================================
 ITERATION STEP  28
 CPU time [min]:     1.837                   Wall time [min]:     0.132
 
 ALPHA OCC:   3   0   0   0   0   2   2   1
 BETA  OCC:   3   0   0   0   0   1   1   1
 ***HARTREE-FOCK ENERGY IN STEP  28 IS    -288.8525027978477624 [AU]
 ======================================================================
 
 SUCCESS...
 THE SCF ITERATION HAS CONVERGED!
 
                   Ag  B1g B2g B3g Au  B1u B2u B3u 
 FINAL ALPHA OCC:   3   0   0   0   0   2   2   1
 FINAL BETA  OCC:   3   0   0   0   0   1   1   1
 
 ***FINAL HARTREE-FOCK ENERGY:   -288.8525027978477624 [AU]
 ***SEMICANONICAL ROHF ENERGY:   -288.8525027978471940 [AU]
 
 RETURNING FROM SCF ALGORITHM
 ======================================================================

 ************************ 2017-03-02 17:26:00 *************************
 Executing ovirt...

 ovirt, the routine of orbital optimization and integral transformation 
Thu Mar  2 17:26:00 EST 2017
 Allocated memory:                   16384  Mb
 UHF calculation! 
 integral transformation: AOs --- MOs (alpha-alpha)
 # of basis functions, # of int. blocks   100     1
100 % 
 second part
100 %
 integral transformation is completed! 
 integral transformation: AOs ------ MOs (beta-beta)
 # of basis functions, # of int. blocks   100     1
100 % 
 second part
100 %
 integral transformation is completed! 
 integral transformation: AOs ----- MOs (alpha-beta)
 size                  80000                     1
# of basis functions, # of int. blocks   100     1
 integral transformation
======================================== 
Thu Mar  2 17:34:22 EST 2017
  ovirt terminated normally 

 ************************ 2017-03-02 17:34:22 *************************
 Executing goldstone...

 Generation of CC equations in terms of H and T...
 Generation of antisymmetrized Goldstone diagrams...
 Number of diagrams in T^1 equations:    15
 Number of diagrams in T^2 equations:    38
 Number of diagrams in T^3 equations:    50
 Number of diagrams in T^4 equations:     5
 Translation of diagrams to factorized equations...
 Optimizing intermediate calculation...
 Number of floating-point operations per iteration step:   3.1958E+12
 Probable CPU time per iteration step (hours):     31.96
 Required memory (Mbytes):   22790.2
 Number of intermediates:                                  81
 Number of intermediates to be stored:                     31
 Length of intermediate file (Mbytes):     249.0

 ************************ 2017-03-02 17:34:26 *************************
 Executing xmrcc...

 **********************************************************************
 CC(3)(4) calculation 
 
 
 Allocation of8192.0 Mbytes of memory...
 Number of spinorbitals:                   198
 Number of alpha electrons:                        7
 Number of beta electrons:                         5
 Spin multiplicity:                     2
 z-component of spin:  1.0
 Spatial symmetry:                      4
 Convergence criterion:  1.0E-09
 Construction of occupation graphs...
 Number of                     0 -fold excitations:                      1
 Number of                     1 -fold excitations:                    232
 Number of                     2 -fold excitations:                  60088
 Number of                     3 -fold excitations:                9508231
 Total number of configurations:                9568552
 Calculation of coupling coefficients...
 Length of intermediate file (Mbytes):     193.4
 
 ======================================================================
 
 Spin case  1   Alpha:  0   Beta:  4
 Number of excitations:                1872090
 Spin case  2   Alpha:  1   Beta:  3
 Number of excitations:              107455704
 Spin case  3   Alpha:  2   Beta:  2
 Number of excitations:              480995598
 Spin case  4   Alpha:  3   Beta:  1
 Number of excitations:              257844346
 Spin case  5   Alpha:  4   Beta:  0
 Number of excitations:               12173806
 Number of                     4 -fold excitations:              860341544
 
 Memory requirements /Mbyte/: 
               Minimal        Optimal
 Real*8:       2711.4054      2711.4054
 Integer:        69.7164
 Total:        2781.1218      2781.1218
 

 ************************ 2017-03-02 17:35:13 *************************
 Executing goldstone...

 Generation of CC equations in terms of H and T...
 Generation of antisymmetrized Goldstone diagrams...
 Number of diagrams in T^1 equations:    15
 Number of diagrams in T^2 equations:    34
 Number of diagrams in T^3 equations:     2
 Translation of diagrams to factorized equations...
 Optimizing intermediate calculation...
 Number of floating-point operations per iteration step:   7.5787E+09
 Probable CPU time per iteration step (hours):      0.08
 Required memory (Mbytes):    9864.7
 Number of intermediates:                                  49
 Number of intermediates to be stored:                     20
 Length of intermediate file (Mbytes):     183.3

 ************************ 2017-03-02 17:35:15 *************************
 Executing xmrcc...

 **********************************************************************
 CC(2)(3) calculation 
 
 
 Allocation of8192.0 Mbytes of memory...
 Number of spinorbitals:                   198
 Number of alpha electrons:                        7
 Number of beta electrons:                         5
 Spin multiplicity:                     2
 z-component of spin:  1.0
 Spatial symmetry:                      4
 Convergence criterion:  1.0E-09
 Construction of occupation graphs...
 Number of                     0 -fold excitations:                      1
 Number of                     1 -fold excitations:                    232
 Number of                     2 -fold excitations:                  60088
 Total number of configurations:                  60321
 Calculation of coupling coefficients...
 Length of intermediate file (Mbytes):     146.1
 
 ======================================================================
 
 Spin case  1   Alpha:  0   Beta:  3
 Number of excitations:                 164064
 Spin case  2   Alpha:  1   Beta:  2
 Number of excitations:                3566546
 Spin case  3   Alpha:  2   Beta:  1
 Number of excitations:                5231720
 Spin case  4   Alpha:  3   Beta:  0
 Number of excitations:                 545901
 Number of                     3 -fold excitations:                9508231
 
 Memory requirements /Mbyte/: 
               Minimal        Optimal
 Real*8:        261.7575       913.9188
 Integer:         5.1492
 Total:         266.9068       919.0680
 

 ************************ 2017-03-02 17:35:17 *************************
 Executing mrcc...

 **********************************************************************
 CCSD(T) calculation                                                    
 
 
 OpenMP parallel version is running.
 Number of CPUs:  32
 Allocation of  913.9 Mbytes of memory...
 Number of spinorbitals: 198
 Number of alpha electrons:  7
 Number of beta  electrons:  5
 Spin multiplicity: 2
 z-component of spin:  1.0
 Spatial symmetry: 4
 Convergence criterion:  1.0E-09
 Construction of occupation graphs...
 Number of 0-fold excitations: 1
 Number of 1-fold excitations: 232
 Number of 2-fold excitations: 60088
 Total number of determinants: 60321
 Calculation of coupling coefficients...
 Initial cluster amplitudes are generated.
 Length of intermediate file (Mbytes):     146.1
 Reading integral list from unit 55...
 Sorting integrals...
 Sorting integrals...
 Sorting integrals...
 Sorting integrals...
 Energy of reference determinant [au]:    -288.852502797847
 Calculation of MP denominators...
 
 Starting CC iteration...
 ======================================================================
 Norm of residual vector:     3.11826472
 CPU time [min]:     7.773                   Wall time [min]:     1.844
 
 Iteration  1  CC energy:  -289.20292782  Energy decrease:   0.35042503
 ======================================================================
 Norm of residual vector:     0.17574891
 CPU time [min]:    13.513                   Wall time [min]:     2.705
 
 Iteration  2  CC energy:  -289.21708229  Energy decrease:   0.01415446
 ======================================================================
 Norm of residual vector:     0.03316443
 CPU time [min]:    19.367                   Wall time [min]:     3.681
 
 Iteration  3  CC energy:  -289.22082863  Energy decrease:   0.00374634
 ======================================================================
 Norm of residual vector:     0.00888243
 CPU time [min]:    25.162                   Wall time [min]:     4.528
 
 Iteration  4  CC energy:  -289.22084861  Energy decrease:   0.00001998
 ======================================================================
 Norm of residual vector:     0.00245417
 CPU time [min]:    31.274                   Wall time [min]:     5.443
 
 Iteration  5  CC energy:  -289.22094479  Energy decrease:   0.00009618
 ======================================================================
 Norm of residual vector:     0.00056741
 CPU time [min]:    37.214                   Wall time [min]:     6.343
 
 Iteration  6  CC energy:  -289.22093997  Energy decrease:   0.00000482
 ======================================================================
 Norm of residual vector:     0.00014001
 CPU time [min]:    43.167                   Wall time [min]:     7.244
 
 Iteration  7  CC energy:  -289.22093986  Energy decrease:   0.00000010
 ======================================================================
 Norm of residual vector:     0.00003842
 CPU time [min]:    49.101                   Wall time [min]:     8.197
 
 Iteration  8  CC energy:  -289.22094086  Energy decrease:   0.00000100
 ======================================================================
 Norm of residual vector:     0.00000907
 CPU time [min]:    54.623                   Wall time [min]:     9.131
 
 Iteration  9  CC energy:  -289.22094051  Energy decrease:   0.00000035
 ======================================================================
 Norm of residual vector:     0.00000236
 CPU time [min]:    60.722                   Wall time [min]:    10.088
 
 Iteration 10  CC energy:  -289.22094054  Energy decrease:   0.00000003
 ======================================================================
 Norm of residual vector:     0.00000056
 CPU time [min]:    66.738                   Wall time [min]:    11.056
 
 Iteration 11  CC energy:  -289.22094055  Energy decrease:   0.00000001
 ======================================================================
 Norm of residual vector:     0.00000015
 CPU time [min]:    72.736                   Wall time [min]:    11.962
 
 Iteration 12  CC energy:  -289.22094054  Energy decrease:   3.6779E-09
 ======================================================================
 Norm of residual vector:     0.00000004
 CPU time [min]:    79.009                   Wall time [min]:    12.875
 
 Iteration 13  CC energy:  -289.22094054  Energy decrease:   6.8314E-10
 ======================================================================
 Norm of residual vector:     0.00000001
 CPU time [min]:    85.058                   Wall time [min]:    13.772
 
 Iteration 14  CC energy:  -289.22094054  Energy decrease:   3.6493E-11
 ======================================================================
 Norm of residual vector:     2.2958E-09
 CPU time [min]:    91.250                   Wall time [min]:    14.781
 
 Iteration 15  CC energy:  -289.22094054  Energy decrease:   5.4740E-11
 ======================================================================
 Norm of residual vector:     5.4336E-10
 CPU time [min]:    97.089                   Wall time [min]:    15.680
 
 Iteration 16  CC energy:  -289.22094054  Energy decrease:   1.2449E-11
 ======================================================================
 
 Iteration has converged in 16 steps.
 
 Final results:
 Total CCSD energy [au]:            -289.220940543237
 
 Perturbative corrections are calculated...
 ======================================================================
 Spin case  1   Alpha:  0   Beta:  3
 Number of excitations:        164064
 CPU time [min]:    97.942                   Wall time [min]:    15.769
 ======================================================================
 Spin case  2   Alpha:  1   Beta:  2
 Number of excitations:        3566546
 CPU time [min]:   101.034                   Wall time [min]:    15.911
 ======================================================================
 Spin case  3   Alpha:  2   Beta:  1
 Number of excitations:        5231720
 CPU time [min]:   104.316                   Wall time [min]:    16.049
 ======================================================================
 Spin case  4   Alpha:  3   Beta:  0
 Number of excitations:        545901
 CPU time [min]:   104.901                   Wall time [min]:    16.068
 ======================================================================
 Number of 3-fold excitations: 9508231
 
 
 CPU time [min]:   104.927                   Wall time [min]:    16.069
 
 Total CCSD[T] energy [au]:         -289.226579816532
 Total CCSD(T) energy [au]:         -289.226541154706

 ************************ 2017-03-02 17:51:22 *************************
 Executing goldstone...

 Generation of CC equations in terms of H and T...
 Generation of antisymmetrized Goldstone diagrams...
 Number of diagrams in T^1 equations:    15
 Number of diagrams in T^2 equations:    38
 Number of diagrams in T^3 equations:    50
 Number of diagrams in T^4 equations:     5
 Translation of diagrams to factorized equations...
 Optimizing intermediate calculation...
 Number of floating-point operations per iteration step:   3.1958E+12
 Probable CPU time per iteration step (hours):     31.96
 Required memory (Mbytes):   22790.2
 Number of intermediates:                                  81
 Number of intermediates to be stored:                     31
 Length of intermediate file (Mbytes):     249.0

 ************************ 2017-03-02 17:51:25 *************************
 Executing xmrcc...

 **********************************************************************
 CC(3)(4) calculation 
 
 
 Allocation of8192.0 Mbytes of memory...
 Number of spinorbitals:                   198
 Number of alpha electrons:                        7
 Number of beta electrons:                         5
 Spin multiplicity:                     2
 z-component of spin:  1.0
 Spatial symmetry:                      4
 Convergence criterion:  1.0E-09
 Construction of occupation graphs...
 Number of                     0 -fold excitations:                      1
 Number of                     1 -fold excitations:                    232
 Number of                     2 -fold excitations:                  60088
 Number of                     3 -fold excitations:                9508231
 Total number of configurations:                9568552
 Calculation of coupling coefficients...
 Length of intermediate file (Mbytes):     193.4
 
 ======================================================================
 
 Spin case  1   Alpha:  0   Beta:  4
 Number of excitations:                1872090
 Spin case  2   Alpha:  1   Beta:  3
 Number of excitations:              107455704
 Spin case  3   Alpha:  2   Beta:  2
 Number of excitations:              480995598
 Spin case  4   Alpha:  3   Beta:  1
 Number of excitations:              257844346
 Spin case  5   Alpha:  4   Beta:  0
 Number of excitations:               12173806
 Number of                     4 -fold excitations:              860341544
 
 Memory requirements /Mbyte/: 
               Minimal        Optimal
 Real*8:       2711.4054      2711.4054
 Integer:        69.7164
 Total:        2781.1218      2781.1218
 

 ************************ 2017-03-02 17:52:16 *************************
 Executing mrcc...

 **********************************************************************
 CCSDT(Q) calculation                                                   
 
 
 OpenMP parallel version is running.
 Number of CPUs:  32
 Allocation of 2711.4 Mbytes of memory...
 Number of spinorbitals: 198
 Number of alpha electrons:  7
 Number of beta  electrons:  5
 Spin multiplicity: 2
 z-component of spin:  1.0
 Spatial symmetry: 4
 Convergence criterion:  1.0E-09
 Construction of occupation graphs...
 Number of 0-fold excitations: 1
 Number of 1-fold excitations: 232
 Number of 2-fold excitations: 60088
 Number of 3-fold excitations: 9508231
 Total number of determinants: 9568552
 Calculation of coupling coefficients...
 Initial cluster amplitudes are read from unit 16.
 Length of intermediate file (Mbytes):     193.4
 Reading integral list from unit 55...
 Sorting integrals...
 Sorting integrals...
 Sorting integrals...
 Sorting integrals...
 Energy of reference determinant [au]:    -288.852502797847
 Calculation of MP denominators...
 
 Starting CC iteration...
 ======================================================================
 Norm of residual vector:     0.33283429
 CPU time [min]:   171.092                   Wall time [min]:     9.863
 
 Iteration  1  CC energy:  -289.22094054  Energy decrease:   7.9581E-13
 ======================================================================
 Norm of residual vector:     0.03584925
 CPU time [min]:   325.908                   Wall time [min]:    17.171
 
 Iteration  2  CC energy:  -289.22575821  Energy decrease:   0.00481767
 ======================================================================
 Norm of residual vector:     0.01379159
 CPU time [min]:   485.400                   Wall time [min]:    24.304
 
 Iteration  3  CC energy:  -289.22706607  Energy decrease:   0.00130785
 ======================================================================
 Norm of residual vector:     0.00337104
 CPU time [min]:   652.137                   Wall time [min]:    31.726
 
 Iteration  4  CC energy:  -289.22718788  Energy decrease:   0.00012182
 ======================================================================
 Norm of residual vector:     0.00087211
 CPU time [min]:   816.783                   Wall time [min]:    39.157
 
 Iteration  5  CC energy:  -289.22720854  Energy decrease:   0.00002065
 ======================================================================
 Norm of residual vector:     0.00034998
 CPU time [min]:   983.040                   Wall time [min]:    46.826
 
 Iteration  6  CC energy:  -289.22721828  Energy decrease:   0.00000974
 ======================================================================
 Norm of residual vector:     0.00010251
 CPU time [min]:  1160.133                   Wall time [min]:    54.687
 
 Iteration  7  CC energy:  -289.22722025  Energy decrease:   0.00000197
 ======================================================================
 Norm of residual vector:     0.00003598
 CPU time [min]:  1329.362                   Wall time [min]:    62.314
 
 Iteration  8  CC energy:  -289.22721997  Energy decrease:   0.00000028
 ======================================================================
 Norm of residual vector:     0.00001185
 CPU time [min]:  1492.681                   Wall time [min]:    69.529
 
 Iteration  9  CC energy:  -289.22722020  Energy decrease:   0.00000023
 ======================================================================
 Norm of residual vector:     0.00000375
 CPU time [min]:  1663.278                   Wall time [min]:    77.168
 
 Iteration 10  CC energy:  -289.22722021  Energy decrease:   0.00000001
 ======================================================================
 Norm of residual vector:     0.00000139
 CPU time [min]:  1832.188                   Wall time [min]:    84.765
 
 Iteration 11  CC energy:  -289.22722019  Energy decrease:   0.00000002
 ======================================================================
 Norm of residual vector:     0.00000045
 CPU time [min]:  1997.429                   Wall time [min]:    92.039
 
 Iteration 12  CC energy:  -289.22722019  Energy decrease:   0.00000001
 ======================================================================
 Norm of residual vector:     0.00000015
 CPU time [min]:  2171.299                   Wall time [min]:    99.800
 
 Iteration 13  CC energy:  -289.22722019  Energy decrease:   1.8281E-10
 ======================================================================
 Norm of residual vector:     0.00000006
 CPU time [min]:  2327.524                   Wall time [min]:   107.112
 
 Iteration 14  CC energy:  -289.22722019  Energy decrease:   9.2666E-10
 ======================================================================
 Norm of residual vector:     0.00000002
 CPU time [min]:  2478.908                   Wall time [min]:   114.509
 
 Iteration 15  CC energy:  -289.22722019  Energy decrease:   3.3054E-10
 ======================================================================
 Norm of residual vector:     0.00000001
 CPU time [min]:  2632.544                   Wall time [min]:   121.340
 
 Iteration 16  CC energy:  -289.22722019  Energy decrease:   7.5602E-12
 ======================================================================
 Norm of residual vector:     1.9923E-09
 CPU time [min]:  2781.101                   Wall time [min]:   128.068
 
 Iteration 17  CC energy:  -289.22722019  Energy decrease:   3.8597E-11
 ======================================================================
 Norm of residual vector:     5.6961E-10
 CPU time [min]:  2917.559                   Wall time [min]:   134.098
 
 Iteration 18  CC energy:  -289.22722019  Energy decrease:   5.2296E-12
 ======================================================================
 
 Iteration has converged in 18 steps.
 
 Final results:
 Total CCSDT energy [au]:           -289.227220186385
 
 Perturbative corrections are calculated...
 ======================================================================
 Spin case  1   Alpha:  0   Beta:  4
 Number of excitations:        1872090
 CPU time [min]:  2949.173                   Wall time [min]:   135.724
 ======================================================================
 Spin case  2   Alpha:  1   Beta:  3
 Number of excitations:        107455704
 CPU time [min]:  3372.710                   Wall time [min]:   150.226
 ======================================================================
 Spin case  3   Alpha:  2   Beta:  2
 Number of excitations:        480995598
 CPU time [min]:  4678.812                   Wall time [min]:   195.367
 ======================================================================
 Spin case  4   Alpha:  3   Beta:  1
 Number of excitations:        257844346
 CPU time [min]:  5270.102                   Wall time [min]:   215.224
 ======================================================================
 Spin case  5   Alpha:  4   Beta:  0
 Number of excitations:        12173806
 CPU time [min]:  5317.375                   Wall time [min]:   217.004
 ======================================================================
 Number of 4-fold excitations: 860341544
 
 T_2^+ contribution:              -0.000058716810
 T_3^+ contribution:              -0.000105834886
 T_1^+ * T_2^+ contribution:      -0.000000428189
 T_1^+ * <ab||ij> contribution:    0.000000258270
 T_2^+ * f_ai contribution:       -0.000001000902
 
 CPU time [min]:  5323.583                   Wall time [min]:   217.897
 
 Total CCSDT[Q] energy [au]:        -289.227278903195
 Total CCSDT(Q)/A energy [au]:      -289.227385166270
 Total CCSDT(Q)/B energy [au]:      -289.227385480713
 
 ************************ 2017-03-02 21:30:10 *************************
                      Normal termination of mrcc.
 **********************************************************************
--- SharcNET Job Epilogue ---
Job completed successfully.
               jobid: 1362264
               resid: 2852060
         exit status: 0
      allocated time: 14669.1
           user time: 301193
         system time: 25011.4
peak rss=8410083328; peak vsz=8410083328 (bytes)
atime=14669.1; utime=301193; stime=25011.4; exit=0
