 --invoking executable--
/home/nike/cfour_v2.00beta/bin/xjoda


   *************************************************************************
         <<<     CCCCCC     CCCCCC   |||     CCCCCC     CCCCCC   >>>
       <<<      CCC        CCC       |||    CCC        CCC         >>>
      <<<      CCC        CCC        |||   CCC        CCC            >>>
    <<<        CCC        CCC        |||   CCC        CCC              >>>
      <<<      CCC        CCC        |||   CCC        CCC            >>>
       <<<      CCC        CCC       |||    CCC        CCC         >>>
         <<<     CCCCCC     CCCCCC   |||     CCCCCC     CCCCCC   >>>
   *************************************************************************

     ****************************************************************
     * CFOUR Coupled-Cluster techniques for Computational Chemistry *
     ****************************************************************
 

   Department of Chemistry                Institut fuer Physikalische Chemie
   University of Texas at Austin          Universitaet Mainz
   Austin, TX  78712, USA                 D-55099 Mainz, Germany
 
                       Version 2.00beta
 
                     wob111                                            
                     Wed Apr  4 21:02:03 EDT 2018                      
                     integer*8 version is running
 
********************************************************************************
*                          Input from ZMAT file                                *
********************************************************************************
TITLE                                                                           
C                                                                               
                                                                                
*ACES2(CALC=CC(n)                                                               
EXCITATION=3                                                                    
INPUT_MRCC=ON                                                                   
CC_PROG=MRCC                                                                    
DBOC=1                                                                          
XFORM_TOL=18                                                                    
SAVE_INTS=ON                                                                    
SCF_EXPORDER=6                                                                  
SCF_EXPSTART=5                                                                  
#SCF_DAMPING=1000                                                               
SCF_EXTRAPOLATION=ON                                                            
SCF_CONV=10                                                                     
SCF_MAXCYC=9999                                                                 
CC_CONV=10                                                                      
CC_MAXCYC=999                                                                   
T3_EXTRAPOL=ON                                                                  
REFERENCE=UHF                                                                   
CHARGE=+0                                                                       
MULT=3                                                                          
ABCDTYPE=STANDARD                                                               
OCCUPATION=2-1-1-0-0-0-0-0/2-0-0-0-0-0-0-0                                      
MEM=32                                                                          
MEM_UNIT=GB                                                                     
BASIS=SPECIAL)                                                                  
                                                                                
C:aCVDZ-EMSL                                                                    
                                                                                
********************************************************************************
  @GTFLGS-W, Keyword #SCF_DAMPING not known and is ignored.
    -------------------------------------------------------------------
                    CFOUR Control Parameters 
    -------------------------------------------------------------------
        External           Internal           Value            Units
          Name               Name
    -------------------------------------------------------------------
       ABCDTYPE             IABCDT         STANDARD     [  0]   ***   
       ANHARMONIC           IANHAR         OFF          [  0]   ***   
       ANH_ALGORIT          IANALG         STANDARD     [  0]   ***   
       ANH_DERIVAT          IANDER         SECOND       [  1]   ***   
       ANH_STEPSIZ          ICUBST             50000          x 10-6  
       ANH_SYMMETR          IANHSM         ABELIAN      [  0]   ***   
       AO_LADDERS           IAOLAD         SINGLEPASS   [  1]   ***   
       BASIS                IBASIS         SPECIAL      [  0]   ***   
       BREIT                IBREIT         OFF          [  0]   ***   
       BRUCK_CONV           IBRTOL          10D-  4             ***   
       BRUECKNER            IBRKNR             OFF      [  0]   ***   
       BUFFERSIZE           IBUFFS            600               ***   
       CACHE_RECS           ICHREC             10               ***   
       CALCLEVEL            ICLLVL           CC(n)      [ 49]   ***   
       CCORBOPT             ICCORB             OFF      [  0] x 0.01  
       CC_CONV              ICCCNV          10D- 10             ***   
       CC_EXPORDER          ICCEOR              5               ***   
       CC_EXTRAPOL          ICCEXT             DIIS     [  1]   ***   
       CC_MAXCYC            ICCCYC            999              cycles 
       CC_PROGRAM           ICCPRO         MRCC         [  2]   ***   
       CHARGE               ICHRGE              0               ***   
       CHOLESKY             ICHOLE         OFF          [  0]   ***   
       CIS_CONV             ICISTL              5               ***   
       COMM_SIZE            IPSIZE            ***               ***   
       CONSTANT             ICONST         OLD          [  1]   ***   
       CONTINUUM            ICONTU         NONE         [  0]   ***   
       CONTRACTION          ICNTYP          GENERAL     [  1]   ***   
       COORDINATES          ICOORD         INTERNAL     [  0]   ***   
       CPHF_CONVER          ICPHFT          10D- 16             ***   
       CPHF_MAXCYC          ICPHFC             64              cycles 
       CUBIC                ICUBIC         OFF          [  0]   ***   
       CURVILINEAR          ICURVY            OFF       [  0]   ***   
       DBOC                 IDBOC          ON           [  1]   ***   
       DCT                  IDCT           OFF          [  0]   ***   
       DERIV_LEV            IDRLVL            SECOND    [  2]   ***   
       DIAG_MRCC            IEOMST          10D-  0             ***   
       DIFF_TYPE            IDIFTY         RELAXED      [  0]   ***   
       DIRECT               IDIRCT         OFF          [  0]   ***   
       DROPMO               IDRPMO      NONE         
       ECP                  IECP           OFF          [  0]   ***   
       EIGENVECTOR          IVEC                1               ***   
       EL_ANHARM            IELANH         OFF          [  0]   ***   
       EOMFOLLOW            IEOMSR         ENERGY       [  0]   ***   
       EOM_MRCC             IMRCCE         NEW          [  1]   ***   
       EOM_NONIT            EOMNON         OFF          [  0]   ***   
       EOM_NSING            IEOMSI          10D-  0             ***   
       EOM_NSTATES          IMRCCD         DAVIDSON     [  0]   ***   
       EOM_NTRIP            IEOMTR          10D-  0             ***   
       EOM_ORDER            IEXORD         ENERGY       [  0]   ***   
       ESTATE_CONV          IEXTOL          10D-  5             ***   
       ESTATE_DIAG          IEXDIG         ITERATIVE    [  0]   ***   
       ESTATE_LOCK          IESLOC         ON           [  1]   ***   
       ESTATE_MAXC          IEXMXC             20               ***   
       ESTATE_PROP          IEXPRP         OFF          [  0]   ***   
       EVAL_HESS            IRECAL              0            # of cyc.
       EXCITATION           IEXCIT              3               ***   
       EXCITE               IEXCIT         NONE         [  0]   ***   
       FCGRADNEW            IFCGNW         OFF          [  0]   ***   
       FC_FIELD             IFINFC              0             x 10-6  
       FD_CALTYPE           IFDCAL         GRADONLY     [  0]   ***   
       FD_PROJECT           IFDPRJ         OFF          [  1]   ***   
       FD_STEPSIZE          IDISFD              0            10-4 bohr
       FD_USEGROUP          IFDGRP         FULL         [  0]   ***   
       FILE_RECSIZ          IFLREC              4096           words  
       FINITE_PERT          IFIPER              0             x 10-6  
       FIXGEOM              IFIXGM         OFF          [  0]   ***   
       FOCK                 IFOCK          AO           [  1]   ***   
       FREQ_ALGORI          IVIALG         STANDARD     [  0]   ***   
       FROZEN_CORE          IFROCO         OFF          [  0]   ***   
       FROZEN_VIRT          IFROVI         OFF          [  0]   ***   
       GAMMA_ABCD           IGABCD         STORE        [  0]   ***   
       GAMMA_ABCI           IGABCI         STORE        [  0]   ***   
       GENBAS_1             IGNBS1              0               ***   
       GENBAS_2             IGNBS2              0               ***   
       GENBAS_3             IGNBS3              0               ***   
       GENBAS_4             IGNBS4              0               ***   
       GEO_CONV             ICONTL              5              H/bohr 
       GEO_MAXCYC           IOPTCY             50               ***   
       GEO_MAXSTEP          IMXSTP            300            millibohr
       GEO_METHOD           INR            SINGLE_POINT [  5]   ***   
       GIAO                 IGIAO          OFF          [  1]   ***   
       GIMIC                IGIMIC         OFF          [  0]   ***   
       GRID                 IGRID          OFF          [  0]   ***   
       GRID_ALGO            IGALGO         SERIAL       [  0]   ***   
       GUESS                IGUESS            MOREAD    [  0]   ***   
       HBAR                 IHBAR              OFF      [  0]   ***   
       HESS_TYPE            IHESTP         SCF          [  0]   ***   
       HF2_FILE             IHF2Fl         USE          [  1]   ***   
       HFSTABILITY          ISTABL         OFF          [  0]   ***   
       INCORE               INCORE             OFF      [  0]   ***   
       INPUT_MRCC           IMRCC          ON           [  1]   ***   
       INTEGRALS            INTTYP             VMOL     [  1]   ***   
       JODA_PRINT           IJPRNT              0               ***   
       LINDEP_TOL           ILINDP              8               ***   
       LINEQ_CONV           IZTACN          10D-  7           cycles  
       LINEQ_EXPOR          ILMAXD              5               ***   
       LINEQ_MAXCY          ILMAXC             50               ***   
       LINEQ_TYPE           ILTYPE         DIIS         [  1]   ***   
       LOCK_ORBOCC          ILOCOC             OFF      [  0]   ***   
       MEMORY_SIZE          IMEMSZ         *********           words  
       MEM_UNIT             IMEMU          GB           [  3]   ***   
       MRCC                 IMRCCC         OFF          [  0]   ***   
       MULTIPLICTY          IMULTP              3               ***   
       NEGEVAL              IDIE             ABORT      [  0]   ***   
       NEWNORM              INEWNO         OFF          [  0]   ***   
       NON-HF               INONHF             OFF      [  0]   ***   
       NTOP_TAMP            ITOPT2             15               ***   
       NUC_MODEL            INUCMO         POINT        [  0]   ***   
       OCCUPATION           IOCCU  A   2,  1,  1,  0,  0,  0,  0,  0,
                                   B   2,  0,  0,  0,  0,  0,  0,  0,
       OPEN-SHELL           IOPEN          SPIN-ORBITAL [  0]   ***   
       ORBITALS             IORBTP           STANDARD   [  0]   ***   
       PARALLEL             IPARAL         ON           [  1]   ***   
       PARA_INT             IPINTS         ON           [  1]   ***   
       PARA_PRINT           IPPRIN              0               ***   
       PERT_ORB             IPTORB         STANDARD     [  0]   ***   
       POINTS               IGRDFD              0               ***   
       PRINT                IPRNT               0               ***   
       PROPS                IPROPS             OFF      [  0]   ***   
       PROP_INTEGR          IINTYP         INTERNAL     [  0]   ***   
       PSI                  IPSI           OFF          [  0]   ***   
       QUARTIC              IQUART         OFF          [  0]   ***   
       RAMAN_INT            IRAMIN         OFF          [  0]   ***   
       RAMAN_ORB            IRAMRE         UNRELAXED    [  0]   ***   
       RDO                  IRDOFM              ON      [  1]   ***   
       REFERENCE            IREFNC             UHF      [  1]   ***   
       RELATIVIST           IRELAT         OFF          [  0]   ***   
       RELAX_DENS           IRDENS              ON      [  1]   ***   
       RESET_FLAGS          IRESET             OFF      [  0]   ***   
       RESTART_CC           ICCRES         OFF          [  0]   ***   
       ROT_EVEC             ROTVEC              0               ***   
       SAVE_INTS            ISVINT              ON      [  1]   ***   
       SCALE_ON             ISTCRT              0               ***   
       SCF_CONV             ISCFCV          10D- 10             ***   
       SCF_DAMPING          IDAMP               0             x 10-3  
       SCF_EXPORDE          IRPPOR              6               ***   
       SCF_EXPSTAR          IRPPLS              5               ***   
       SCF_EXTRAPO          IRPP                ON      [  1]   ***   
       SCF_MAXCYC           ISCFCY            ***              cycles 
       SCF_NOSTOP           ISCFST         OFF          [  0]   ***   
       SCF_PRINT            ISCFPR              0               ***   
       SD_FIELD             IFINSD              0             x 10-6  
       SEQUENCE             ISEQUE         OFF          [  0]   ***   
       SOPERT               IPERSO         OFF          [  0]   ***   
       SPHERICAL            IDFGHI             ON       [  1]   ***   
       SPINORBIT            ISOCAL         OFF          [  0]   ***   
       SPINROTATIO          ISRCON         OFF          [  0]   ***   
       SPIN_FLIP            ISPFLP         OFF          [  0]   ***   
       SPIN_ORBIT           ISPORB         OFF          [  0]   ***   
       SPIN_SCAL            ISCSMP         OFF          [  0]   ***   
       SUBGROUP             ISUBGP         DEFAULT      [  0]   ***   
       SUBGRPAXIS           ISBXYZ         X            [  0]   ***   
       SYMMETRY             ISYM             ON         [  0]   ***   
       SYM_CHECK            ISYMCK         OVERRIDE     [  1]   ***   
       T3_EXTRAPOL          IT3EXT         ON           [  1]   ***   
       TAMP_SUM             IEVERY              5               ***   
       TESTSUITE            ITESTS         OFF          [  0]   ***   
       THERMOCH             ITHERM         OFF          [  0]   ***   
       TOL_CHOLESK          ITOLCH          10D-  4             ***   
       TRANGRAD             IRESRM         OFF          [  0]   ***   
       TRANS_INV            ITRAIN         IGNORE       [  1]   ***   
       TREAT_PERT           ITREAT         SIMULTANEOUS [  0]   ***   
       UIJ_THRESHO          IUIJTH              1               ***   
       UNITS                IUNITS         ANGSTROM     [  0]   ***   
       UNOS                 IUNOS          OFF          [  0]   ***   
       UPDATE_HESS          IHUPDT         ON           [  1]   ***   
       VIBPHASE             ISETPH         STANDARD     [  0]   ***   
       VIBRATION            IVIB             ANALYTIC   [  1]   ***   
       VIB_ALGORIT          IGEALG         STANDARD     [  0]   ***   
       VNATORB              IVNORB         OFF          [  0]   ***   
       VTRAN                IVTRAN         FULL/PARTIAL [  0]   ***   
       XFIELD               IXEFLD              0             x 10-6  
       XFORM_TOL            IXFTOL          10D- 18             ***   
       YFIELD               IYEFLD              0             x 10-6  
       ZFIELD               IZEFLD              0             x 10-6  
    -------------------------------------------------------------------
   1 entries found in Z-matrix 
   Job Title : TITLE                                                                           
  1  C          6    12.00000
 factor:   60.1997200000000     
   Rotational constants (in cm-1): 

   Rotational constants (in MHz): 

********************************************************************************
   The full molecular point group is I h .
   The largest Abelian subgroup of the full molecular point group is D2h .
   The computational point group is D2h .
********************************************************************************
  @GTFLGS-W, Keyword #SCF_DAMPING not known and is ignored.
  There are   27 basis functions.
  @CHECKOUT-I, Total execution time (CPU/WALL):        0.23/       1.23 seconds.
--executable xjoda finished with status     0 in        1.28 seconds (walltime).
 --invoking executable--
/home/nike/cfour_v2.00beta/bin/xvmol
 Serial version of molecule started
********************************************************************************
                    Input from MOL file
********************************************************************************
INTGRL        1    0    1    0    0    0    0    0    0                         
         *** CFOUR Program System (Release V0.1) ***                            
TITLE                                                                           
    1    3 X  Y   Z   0.10E-08              0    0                              
   9999.00      3.00                                                            
          6.00000000    1    3    1    1    1                                   
C #1   0.000000000000000   0.000000000000000   0.000000000000000                
   11    5                                                                      
   6665.00000000000       6.920000000000000E-004 -1.460000000000000E-004        
  0.000000000000000E+000  0.000000000000000E+000  0.000000000000000E+000        
   1000.00000000000       5.329000000000000E-003 -1.154000000000000E-003        
  0.000000000000000E+000  0.000000000000000E+000  0.000000000000000E+000        
   228.000000000000       2.707700000000000E-002 -5.725000000000000E-003        
  0.000000000000000E+000  0.000000000000000E+000  0.000000000000000E+000        
   64.7100000000000       0.101718000000000      -2.331200000000000E-002        
  0.000000000000000E+000  0.000000000000000E+000  0.000000000000000E+000        
   21.0600000000000       0.274740000000000      -6.395500000000000E-002        
  0.000000000000000E+000  0.000000000000000E+000  0.000000000000000E+000        
   7.49500000000000       0.448564000000000      -0.149981000000000             
  0.000000000000000E+000  0.000000000000000E+000  0.000000000000000E+000        
   2.79700000000000       0.285074000000000      -0.127262000000000             
  0.000000000000000E+000  0.000000000000000E+000  0.000000000000000E+000        
  0.521500000000000       1.520400000000000E-002  0.544529000000000             
  0.000000000000000E+000  0.000000000000000E+000  0.000000000000000E+000        
  0.159600000000000      -3.191000000000000E-003  0.580496000000000             
   1.00000000000000       0.000000000000000E+000  0.000000000000000E+000        
   4.53000000000000       0.000000000000000E+000  0.000000000000000E+000        
  0.000000000000000E+000   1.00000000000000       0.000000000000000E+000        
  4.690000000000000E-002  0.000000000000000E+000  0.000000000000000E+000        
  0.000000000000000E+000  0.000000000000000E+000   1.00000000000000             
    6    4                                                                      
   9.43900000000000       3.810900000000000E-002  0.000000000000000E+000        
  0.000000000000000E+000  0.000000000000000E+000                                
   2.00200000000000       0.209480000000000       0.000000000000000E+000        
  0.000000000000000E+000  0.000000000000000E+000                                
  0.545600000000000       0.508557000000000       0.000000000000000E+000        
  0.000000000000000E+000  0.000000000000000E+000                                
  0.151700000000000       0.468842000000000        1.00000000000000             
  0.000000000000000E+000  0.000000000000000E+000                                
   14.5570000000000       0.000000000000000E+000  0.000000000000000E+000        
   1.00000000000000       0.000000000000000E+000                                
  4.041000000000000E-002  0.000000000000000E+000  0.000000000000000E+000        
  0.000000000000000E+000   1.00000000000000                                     
    2    2                                                                      
  0.550000000000000        1.00000000000000       0.000000000000000E+000        
  0.151000000000000       0.000000000000000E+000   1.00000000000000             
FINISH                                                                          
 
********************************************************************************
 One- and two-electron integrals over symmetry-adapted AOs are calculated.

  Spherical harmonics are used.
  
  Integrals less than  0.10E-13 are neglected.

  Nuclear repulsion energy :    0.0000000000 a.u.
  required memory for a1 array                5029908  words 
  required memory for a2 array                2103164  words 
 @GETMEM-I,  Allocated      69 MB of main memory.
  @MOLECU-I, One electron integrals (CPU/WALL):        0.02/       0.02 seconds.
  @TWOEL-I,        634 integrals of symmetry type  I I I I
  @TWOEL-I,       2993 integrals of symmetry type  I J I J
  @TWOEL-I,       2170 integrals of symmetry type  I I J J
  @TWOEL-I,       3304 integrals of symmetry type  I J K L
  @TWOEL-I, Total number of 2-e integrals       9101.
  @MOLECU-I, Two electron integrals (CPU/WALL):        0.01/       0.08 seconds.
  @CHECKOUT-I, Total execution time (CPU/WALL):        0.04/       0.14 seconds.
--executable xvmol finished with status     0 in        0.38 seconds (walltime).
 --invoking executable--
/home/nike/cfour_v2.00beta/bin/xvmol2ja
 @GETMEM-I,  Allocated   30517 MB of main memory.
  @CHECKOUT-I, Total execution time (CPU/WALL):        0.00/       0.01 seconds.
--executable xvmol2ja finished with status     0 in        0.05 seconds (walltime).
 --invoking executable--
/home/nike/cfour_v2.00beta/bin/xvscf
  There are   27 functions in the AO basis.

  There are 8 irreducible representations.

       Irrep        # of functions
         1                  9
         2                  4
         3                  4
         4                  2
         5                  4
         6                  2
         7                  2
         8                  0


  Parameters for SCF calculation: 
        SCF reference function:  UHF  
  Maximum number of iterations: 9999
     Full symmetry point group: I h 
     Computational point group: D2h 
        Initial density matrix: MOREAD                 
     SCF convergence tolerance: 10**(-10)
  DIIS convergence acceleration:  ON
          Latest start for DIIS:   5
                     DIIS order:   6

     Alpha population by irrep:   2    1    1    0    0    0    0    0
      Beta population by irrep:   2    0    0    0    0    0    0    0


  Memory information:      70036 words required.
  Fock matrices are constructed from AO integral file.
 @GETMEM-I,  Allocated       0 MB of main memory.
  Initialization and symmetry analysis required      0.003 seconds.

 total no. of electrons in initial guess :  0.000000000000000E+000
 total no. of electrons in initial guess :  0.000000000000000E+000
  --------------------------------------------------------------------
  Iteration         Total Energy            Largest Density Difference
  --------------------------------------------------------------------
       0             0.000000000000000              0.0000000000D+00
   current occupation vector 
     2  1  1  0  0  0  0  0
     2  0  0  0  0  0  0  0
       1           -36.250500420425162              0.5502705771D+01
   current occupation vector 
     2  1  1  0  0  0  0  0
     2  0  0  0  0  0  0  0
       2           -37.675051936371581              0.4789756501D+01
   current occupation vector 
     2  1  1  0  0  0  0  0
     2  0  0  0  0  0  0  0
       3           -37.686690331938777              0.1125577518D+00
   current occupation vector 
     2  1  1  0  0  0  0  0
     2  0  0  0  0  0  0  0
       4           -37.687708350361035              0.8287093096D-01
   current occupation vector 
     2  1  1  0  0  0  0  0
     2  0  0  0  0  0  0  0
       5           -37.687811908422212              0.2890420282D-01
   current occupation vector 
     2  1  1  0  0  0  0  0
     2  0  0  0  0  0  0  0
       6           -37.687818387437730              0.8646109283D-02
   current occupation vector 
     2  1  1  0  0  0  0  0
     2  0  0  0  0  0  0  0
       7           -37.687818971992314              0.4013788808D-02
   current occupation vector 
     2  1  1  0  0  0  0  0
     2  0  0  0  0  0  0  0
       8           -37.687818983066350              0.3989455383D-03
   current occupation vector 
     2  1  1  0  0  0  0  0
     2  0  0  0  0  0  0  0
       9           -37.687818983324398              0.7263807339D-04
   current occupation vector 
     2  1  1  0  0  0  0  0
     2  0  0  0  0  0  0  0
      10           -37.687818983325023              0.2443029590D-05
   current occupation vector 
     2  1  1  0  0  0  0  0
     2  0  0  0  0  0  0  0
      11           -37.687818983325137              0.2771219531D-06
   current occupation vector 
     2  1  1  0  0  0  0  0
     2  0  0  0  0  0  0  0
      12           -37.687818983325229              0.6032497224D-07
   current occupation vector 
     2  1  1  0  0  0  0  0
     2  0  0  0  0  0  0  0
      13           -37.687818983325251              0.1968506802D-08
   current occupation vector 
     2  1  1  0  0  0  0  0
     2  0  0  0  0  0  0  0
      14           -37.687818983325165              0.5519016355D-09
   current occupation vector 
     2  1  1  0  0  0  0  0
     2  0  0  0  0  0  0  0

  SCF has converged.

 Density matrix saved to file den.dat
 total alpha spin electron number:   4.00000000000000     
 total  beta spin electron number:   2.00000000000000     
     E(SCF)=       -37.687818983325080              0.2978416125D-10

  Eigenvector printing suppressed.


       The average multiplicity is    3.0065017
  The expectation value of S**2 is    2.0097631

 @PUTMOS-I, Writing converged MOs to NEWMOS. 
 @PUTMOS-I, Symmetry   1 Full Blocks  2 Partial Blocksize   1
 @PUTMOS-I, Symmetry   2 Full Blocks  1 Partial Blocksize   0
 @PUTMOS-I, Symmetry   3 Full Blocks  1 Partial Blocksize   0
 @PUTMOS-I, Symmetry   4 Full Blocks  0 Partial Blocksize   2
 @PUTMOS-I, Symmetry   5 Full Blocks  1 Partial Blocksize   0
 @PUTMOS-I, Symmetry   6 Full Blocks  0 Partial Blocksize   2
 @PUTMOS-I, Symmetry   7 Full Blocks  0 Partial Blocksize   2
 @PUTMOS-I, Symmetry   8 Full Blocks  0 Partial Blocksize   0


 
  ORBITAL EIGENVALUES (ALPHA)  (1H = 27.2113838 eV)

       MO #        E(hartree)               E(eV)           FULLSYM    COMPSYM
       ----   --------------------   --------------------   -------   ---------
    1     1         -11.3506664355        -308.8673409855      Ag        Ag (1)
    2     2          -0.8304822192         -22.5985704224      Ag        Ag (1)
    3    10          -0.4382720590         -11.9259892147       u       B2u (2)
    4    14          -0.4382720590         -11.9259892147       u       B3u (3)
  +++++++++++++++++++++++++++++++++++++++++++++++++++++++++++++++++++++++++++++
    5    20           0.0173185666           0.4712621631      Au       B1u (5)
    6     3           0.1088683815           2.9624593141      Ag        Ag (1)
    7    15           0.1149807390           3.1287850205       u       B3u (3)
    8    11           0.1149807390           3.1287850205       u       B2u (2)
    9    21           0.1478848631           4.0241517697      Au       B1u (5)
   10    18           0.4378413760          11.9142697344       g       B1g (4)
   11     4           0.4378413760          11.9142697344       g        Ag (1)
   12    24           0.4424634502          12.0400427683       g       B3g (6)
   13    26           0.4424634502          12.0400427683       g       B2g (7)
   14     5           0.4448066845          12.1038054181      Ag        Ag (1)
   15    12           0.7445952434          20.2614669596       u       B2u (2)
   16    16           0.7445952434          20.2614669596       u       B3u (3)
   17    22           0.8136028269          22.1392587987      Au       B1u (5)
   18     6           0.8949002547          24.3514743103      Ag        Ag (1)
   19    19           1.6183142778          44.0365709531       g       B1g (4)
   20     7           1.6183142778          44.0365709531       g        Ag (1)
   21    25           1.6364067838          44.5288930783       g       B3g (6)
   22    27           1.6364067838          44.5288930783       g       B2g (7)
   23     8           1.6438673215          44.7319046326      Ag        Ag (1)
   24     9          19.3111158617         525.4821856963      Ag        Ag (1)
   25    13          22.4824163549         611.7776606260       u       B2u (2)
   26    17          22.4824163549         611.7776606260       u       B3u (3)
   27    23          22.4896124719         611.9734769263      Au       B1u (5)


 
  ORBITAL EIGENVALUES ( BETA)  (1H = 27.2113838 eV)

       MO #        E(hartree)               E(eV)           FULLSYM    COMPSYM
       ----   --------------------   --------------------   -------   ---------
    1     1         -11.3050252964        -307.6253824296      Ag        Ag (1)
    2     2          -0.5862513266         -15.9527098620      Ag        Ag (1)
  +++++++++++++++++++++++++++++++++++++++++++++++++++++++++++++++++++++++++++++
    3    20           0.0397211537           1.0808675589      Au       B1u (5)
    4    10           0.0681656599           1.8548819360       u       B2u (2)
    5    14           0.0681656599           1.8548819360       u       B3u (3)
    6     3           0.1237364680           3.3670405226      Ag        Ag (1)
    7    21           0.1679363019           4.5697791669      Au       B1u (5)
    8    15           0.2087187448           5.6795258757       u       B3u (3)
    9    11           0.2087187448           5.6795258757       u       B2u (2)
   10     4           0.4616279968          12.5615366022      Ag        Ag (1)
   11    24           0.4675024348          12.7213881899       g       B3g (6)
   12    26           0.4675024348          12.7213881899       g       B2g (7)
   13     5           0.4860286414          13.2255119072       g        Ag (1)
   14    18           0.4860286414          13.2255119072       g       B1g (4)
   15    22           0.8430593594          22.9408118126      Au       B1u (5)
   16    12           0.8920739340          24.2745662139       u       B2u (2)
   17    16           0.8920739340          24.2745662139       u       B3u (3)
   18     6           0.9629519084          26.2032539785      Ag        Ag (1)
   19     7           1.7008187569          46.2816320026      Ag        Ag (1)
   20    25           1.7146607936          46.6582929753       g       B3g (6)
   21    27           1.7146607936          46.6582929753       g       B2g (7)
   22    19           1.7604004008          47.9029309828       g       B1g (4)
   23     8           1.7604004008          47.9029309828       g        Ag (1)
   24     9          19.3462034537         526.4369676315      Ag        Ag (1)
   25    23          22.4991486032         612.2329682552      Au       B1u (5)
   26    13          22.5247256652         612.9289555074       u       B2u (2)
   27    17          22.5247256652         612.9289555074       u       B3u (3)


  VSCF finished.

  @CHECKOUT-I, Total execution time (CPU/WALL):        0.04/       0.38 seconds.
--executable xvscf finished with status     0 in        0.41 seconds (walltime).
 --invoking executable--
/home/nike/cfour_v2.00beta/bin/xvtran
 @GETMEM-I,  Allocated   30517 MB of main memory.
  Full UHF integral transformation
  Transformation of IIII integrals :
  2 passes through the AO integral file were required.
         634 AO integrals were read.
        1218 MO integrals (Spin case AAAA) were written to HF2AA.
        1218 MO integrals (Spin case BBBB) were written to HF2BB.
        2352 MO integrals (Spin case AABB) were written to HF2AB.
  Transformation of IIJJ integrals :
  2 passes through the AO integral file were required.
        2170 AO integrals were read.
        2352 MO integrals (Spin case AAAA) were written to HF2AA.
        2352 MO integrals (Spin case BBBB) were written to HF2BB.
        4704 MO integrals (Spin case AABB) were written to HF2AB.
  Transformation of IJIJ integrals :
  2 passes through the AO integral file were required.
        2993 AO integrals were read.
        3273 MO integrals (Spin case AAAA) were written to HF2AA.
        3273 MO integrals (Spin case BBBB) were written to HF2BB.
        6252 MO integrals (Spin case AABB) were written to HF2AB.
  Transformation of IJKL integrals :
  2 passes through the AO integral file were required.
        3304 AO integrals were read.
        3384 MO integrals (Spin case AAAA) were written to HF2AA.
        3384 MO integrals (Spin case BBBB) were written to HF2BB.
        6768 MO integrals (Spin case AABB) were written to HF2AB.
  Summary of active molecular orbitals: 
------------------------------------------------------------------------
                         * Spin case alpha *
 
  Index      Eigenvalue    Symmetry    Index      Eigenvalue    Symmetry
------------------------------------------------------------------------
     1       -11.3506664        1        15         0.1149807        3
     2        -0.8304822        1        16         0.7445952        3
     3        -0.4382721        2        17        22.4824164        3
     4        -0.4382721        3        18         0.4378414        4
     5         0.1088684        1        19         1.6183143        4
     6         0.4378414        1        20         0.0173186        5
     7         0.4448067        1        21         0.1478849        5
     8         0.8949003        1        22         0.8136028        5
     9         1.6183143        1        23        22.4896125        5
    10         1.6438673        1        24         0.4424635        6
    11        19.3111159        1        25         1.6364068        6
    12         0.1149807        2        26         0.4424635        7
    13         0.7445952        2        27         1.6364068        7
    14        22.4824164        2
------------------------------------------------------------------------
------------------------------------------------------------------------
                         * Spin case beta *
 
  Index      Eigenvalue    Symmetry    Index      Eigenvalue    Symmetry
------------------------------------------------------------------------
     1       -11.3050253        1        15         0.2087187        3
     2        -0.5862513        1        16         0.8920739        3
     3         0.1237365        1        17        22.5247257        3
     4         0.4616280        1        18         0.4860286        4
     5         0.4860286        1        19         1.7604004        4
     6         0.9629519        1        20         0.0397212        5
     7         1.7008188        1        21         0.1679363        5
     8         1.7604004        1        22         0.8430594        5
     9        19.3462035        1        23        22.4991486        5
    10         0.0681657        2        24         0.4675024        6
    11         0.2087187        2        25         1.7146608        6
    12         0.8920739        2        26         0.4675024        7
    13        22.5247257        2        27         1.7146608        7
    14         0.0681657        3
------------------------------------------------------------------------
  @CHECKOUT-I, Total execution time (CPU/WALL):        0.04/       2.00 seconds.
--executable xvtran finished with status     0 in        2.03 seconds (walltime).
 --invoking executable--
/home/nike/cfour_v2.00beta/bin/xintprc
 @GETMEM-I,  Allocated   30517 MB of main memory.
  @GMOIAA-I, Processing MO integrals for spin case AA.
  @GMOIAA-I, Generation of integral list completed.
                      TYPE                NUMBER
                      ----               --------
                      PPPP                  5368
                      PPPH                  3540
                      PPHH                   665
                      PHPH                   462
                      PHHH                   170
                      HHHH                    22

                     TOTAL                 10227
  @GMOIAA-I, Processing MO integrals for spin case BB.
  @GMOIAA-I, Generation of integral list completed.
                      TYPE                NUMBER
                      ----               --------
                      PPPP                  7333
                      PPPH                  2402
                      PPHH                   243
                      PHPH                   201
                      PHHH                    42
                      HHHH                     6

                     TOTAL                 10227
  @GMOIAB-I, Processing MO integrals for spin case AB.
                      TYPE                NUMBER
                      ----               --------
                      PPPP                 12231
                      PPPH1H                4168
                      PPPH2H                2054
                      PPHH                   720
                      PHPH1P                 177
                      PHPH2P                 545
                      PHHH1P                  60
                      PHHH2P                 106
                      HHHH                    15

                     TOTAL                 20076

  @FORMT2-I, Second-order MP correlation energies:
            ------------------------------------------------
            E(SCF)                  =    -37.687818983325 a.u.
            E2(AA)                  =     -0.011290322894 a.u.
            E2(BB)                  =     -0.000423485985 a.u.
            E2(AB)                  =     -0.077617809294 a.u.
            E2(TOT)                 =     -0.089331618173 a.u.
            Total MP2 energy        =    -37.777150601498 a.u.
            ------------------------------------------------
            ----------------------------------------------
                     Projected spin multiplicities: 
            ----------------------------------------------
             <0|S^2|0>                  =    2.0097630718.
             <0|S^2 T2|0>               =   -0.0038993958.
             Projected <0|S^2 exp(T)|0> =    2.0058636759.
             Approximate spin mult.     =    3.0039065737.
            ----------------------------------------------
   Largest T2 amplitudes for spin case AA:
   i   j   a   b             i   j   a   b             i   j   a   b
-----------------------------------------------------------------------------
[  4   3  16  13]-0.02739 [  4   3  19   9]-0.01758 [  4   3  18   6]-0.01678
[  3   2  13   8]-0.01598 [  4   2  16   8]-0.01598 [  4   3  15  13]-0.01375
[  4   3  16  12]-0.01375 [  4   3  18   9] 0.01229 [  4   3  19   6] 0.01229
[  4   2  26  20] 0.01018 [  3   2  24  20] 0.01018 [  3   2  25  20]-0.00981
[  4   2  27  20]-0.00981 [  4   3  15  12]-0.00950 [  4   3  27  25]-0.00884
-----------------------------------------------------------------------------
   Norm of T2AA vector (      203 symmetry allowed elements):  0.0629869410.
-----------------------------------------------------------------------------
   Largest T2 amplitudes for spin case BB:
   i   j   a   b             i   j   a   b             i   j   a   b
-----------------------------------------------------------------------------
[  2   1  13  12] 0.00139 [  2   1  17  16] 0.00139 [  2   1  23  22] 0.00138
[  2   1  13  11] 0.00111 [  2   1  17  15] 0.00111 [  2   1  23  21] 0.00102
[  2   1  23  20] 0.00091 [  2   1  16  15]-0.00079 [  2   1  12  11]-0.00079
[  2   1  22  21]-0.00071 [  2   1  22  20]-0.00069 [  2   1  17  14] 0.00064
[  2   1  13  10] 0.00064 [  2   1  16  14]-0.00050 [  2   1  12  10]-0.00050
-----------------------------------------------------------------------------
   Norm of T2BB vector (       42 symmetry allowed elements):  0.0037234774.
-----------------------------------------------------------------------------
   Largest T2 amplitudes for spin case AB:
       _       _                 _       _                 _       _
   i   j   a   b             i   j   a   b             i   j   a   b
-----------------------------------------------------------------------------
[  2   2  20  20] 0.03993 [  2   2  20  21] 0.03698 [  3   2  13   6] 0.02753
[  4   2  16   6] 0.02753 [  2   2  21  20] 0.02732 [  2   2  21  21] 0.02644
[  2   2   8   6] 0.02122 [  3   2   9  11] 0.02028 [  4   2  19  11] 0.02028
[  4   2   9  15]-0.02028 [  3   2  19  15] 0.02028 [  4   2  26  20]-0.01929
[  3   2  24  20]-0.01929 [  4   2  27  21] 0.01861 [  3   2  25  21] 0.01861
-----------------------------------------------------------------------------
   Norm of T2AB vector (      720 symmetry allowed elements):  0.1422208188.
-----------------------------------------------------------------------------
  @CHECKOUT-I, Total execution time (CPU/WALL):        0.04/       2.68 seconds.
--executable xintprc finished with status     0 in        3.93 seconds (walltime).
 --invoking executable--
/home/nike/cfour_v2.00beta/bin/xint
 @GETMEM-I,  Allocated   30517 MB of main memory.
  itot is                      0
 using new mrcc fort.57
 fort.56
     3     0     0     0     1     4     0     4     0     0     0     1     1     0     0    10     0     0           0.00000     1 30518     0     0
ex.lev,nsing,ntrip, rest,CC/CI, dens,conver, symm, diag,  CS ,spatial,  HF ,ndoub,nacto,nactv, tol ,maxex, sacc, freq, dboc, mem
  @CHECKOUT-I, Total execution time (CPU/WALL):        0.14/       2.53 seconds.
--executable xint finished with status     0 in        3.44 seconds (walltime).
 --invoking executable--
/home/nike/MRCC/dmrcc
 **********************************************************************
                          MRCC program system
 **********************************************************************
 
                              Written by
    Mihaly Kallay, Zoltan Rolik, Jozsef Csontos, Istvan Ladjanszki,
       Lorant Szegedy, Bence Ladoczki, Gyula Samu, Klara Petrov,
        Mate Farkas, Peter Nagy, David Mester, and Bence Hegely
 
        Department of Physical Chemistry and Materials Science
            Budapest University of Technology and Economics
                  Budapest P.O.Box 91, H-1521 Hungary
 
                              www.mrcc.hu

 ************************ 2018-04-04 21:02:14 *************************
 Executing goldstone...

 Generation of CC equations in terms of H and T...
 Generation of antisymmetrized Goldstone diagrams...
 Number of diagrams in T^1 equations:    15
 Number of diagrams in T^2 equations:    37
 Number of diagrams in T^3 equations:    47
 Translation of diagrams to factorized equations...
 Optimizing intermediate calculation...
 Optimizing right-hand EOMCC calculation...
 Optimizing left-hand EOMCC calculation...
 Optimizing density-matrix calculation...
 Optimizing perturbed lambda equations...
 Optimizing perturbed density calculation...
 Number of floating-point operations per iteration step:   2.8382E+07
 Probable CPU time per iteration step (hours):      0.00
 Required memory (Mbytes):      44.6
 Number of intermediates:                                 613
 Number of intermediates to be stored:                    182
 Length of intermediate file (Mbytes):       4.4

 ************************ 2018-04-04 21:02:30 *************************
 Executing xmrcc...

 **********************************************************************
 CC(                     3 ) calculation 
 
 
 Allocation of 100.0 Mbytes of memory...
 Number of spinorbitals:                    54
 Number of alpha electrons:                        4
 Number of beta electrons:                         2
 Spin multiplicity:                     2
 z-component of spin:  1.0
 Spatial symmetry:                      4
 Convergence criterion:  1.0E-10
 Construction of occupation graphs...
 Number of                     0 -fold excitations:                      1
 Number of                     1 -fold excitations:                     34
 Number of                     2 -fold excitations:                    965
 Number of                     3 -fold excitations:                  14208
 Total number of configurations:                  15208
 Calculation of coupling coefficients...
 Length of intermediate file (Mbytes):       3.9
 
 ======================================================================
 
 ======================================================================
 
 
 
 Memory requirements /Mbyte/: 
               Minimal        Optimal
 Real*8:         10.8463        14.3534
 Integer:         7.7775
 Total:          18.6238        22.1309
 

 ************************ 2018-04-04 21:02:31 *************************
 Executing mrcc...

 **********************************************************************
 CCSDT analytic second derivative calculation                           
 
 
 OpenMP parallel version is running.
 Number of CPUs:  32
 Allocation of   14.4 Mbytes of memory...
 Number of spinorbitals:  54
 Number of alpha electrons:  4
 Number of beta  electrons:  2
 Spin multiplicity: 2
 z-component of spin:  1.0
 Spatial symmetry: 4
 Convergence criterion:  1.0E-10
 Construction of occupation graphs...
 Number of 0-fold excitations: 1
 Number of 1-fold excitations: 34
 Number of 2-fold excitations: 965
 Number of 3-fold excitations: 14208
 Total number of determinants: 15208
 Calculation of coupling coefficients...
 Initial cluster amplitudes are generated.
 Length of intermediate file (Mbytes):       3.9
 Reading integral list from unit 55...
 Sorting integrals...
 Sorting integrals...
 Sorting integrals...
 Sorting integrals...
 Energy of reference determinant [au]:     -37.687818983325
 Calculation of diagonal elements of Hamiltonian...
 Calculation of MP denominators...
 
 Starting CC iteration...
 ======================================================================
 Norm of residual vector:     1.47215178
 CPU time [min]:     0.921                   Wall time [min]:     0.043
 
 Iteration  1  CC energy:   -37.77715060  Energy decrease:   0.08933162
 ======================================================================
 Norm of residual vector:     0.15788140
 CPU time [min]:     1.358                   Wall time [min]:     0.058
 
 Iteration  2  CC energy:   -37.79838582  Energy decrease:   0.02123522
 ======================================================================
 Norm of residual vector:     0.04351634
 CPU time [min]:     1.911                   Wall time [min]:     0.077
 
 Iteration  3  CC energy:   -37.80229455  Energy decrease:   0.00390873
 ======================================================================
 Norm of residual vector:     0.01112909
 CPU time [min]:     2.269                   Wall time [min]:     0.089
 
 Iteration  4  CC energy:   -37.80286230  Energy decrease:   0.00056775
 ======================================================================
 Norm of residual vector:     0.00407001
 CPU time [min]:     2.634                   Wall time [min]:     0.101
 
 Iteration  5  CC energy:   -37.80293839  Energy decrease:   0.00007609
 ======================================================================
 Norm of residual vector:     0.00103806
 CPU time [min]:     3.054                   Wall time [min]:     0.114
 
 Iteration  6  CC energy:   -37.80292538  Energy decrease:   0.00001301
 ======================================================================
 Norm of residual vector:     0.00035324
 CPU time [min]:     3.320                   Wall time [min]:     0.123
 
 Iteration  7  CC energy:   -37.80292736  Energy decrease:   0.00000198
 ======================================================================
 Norm of residual vector:     0.00012658
 CPU time [min]:     3.554                   Wall time [min]:     0.130
 
 Iteration  8  CC energy:   -37.80293041  Energy decrease:   0.00000305
 ======================================================================
 Norm of residual vector:     0.00004310
 CPU time [min]:     3.793                   Wall time [min]:     0.137
 
 Iteration  9  CC energy:   -37.80292992  Energy decrease:   0.00000048
 ======================================================================
 Norm of residual vector:     0.00001427
 CPU time [min]:     4.032                   Wall time [min]:     0.145
 
 Iteration 10  CC energy:   -37.80292983  Energy decrease:   0.00000010
 ======================================================================
 Norm of residual vector:     0.00000399
 CPU time [min]:     4.271                   Wall time [min]:     0.152
 
 Iteration 11  CC energy:   -37.80292986  Energy decrease:   0.00000004
 ======================================================================
 Norm of residual vector:     0.00000114
 CPU time [min]:     4.582                   Wall time [min]:     0.162
 
 Iteration 12  CC energy:   -37.80292985  Energy decrease:   0.00000002
 ======================================================================
 Norm of residual vector:     0.00000033
 CPU time [min]:     4.832                   Wall time [min]:     0.170
 
 Iteration 13  CC energy:   -37.80292985  Energy decrease:   8.8524E-10
 ======================================================================
 Norm of residual vector:     0.00000009
 CPU time [min]:     5.146                   Wall time [min]:     0.180
 
 Iteration 14  CC energy:   -37.80292985  Energy decrease:   1.4678E-09
 ======================================================================
 Norm of residual vector:     0.00000003
 CPU time [min]:     5.386                   Wall time [min]:     0.187
 
 Iteration 15  CC energy:   -37.80292985  Energy decrease:   4.6413E-10
 ======================================================================
 Norm of residual vector:     0.00000001
 CPU time [min]:     6.663                   Wall time [min]:     0.313
 
 Iteration 16  CC energy:   -37.80292985  Energy decrease:   5.2509E-11
 ======================================================================
 Norm of residual vector:     3.2654E-09
 CPU time [min]:     7.039                   Wall time [min]:     0.325
 
 Iteration 17  CC energy:   -37.80292985  Energy decrease:   5.0733E-11
 ======================================================================
 Norm of residual vector:     1.0682E-09
 CPU time [min]:     7.659                   Wall time [min]:     0.345
 
 Iteration 18  CC energy:   -37.80292985  Energy decrease:   2.1991E-11
 ======================================================================
 Norm of residual vector:     3.1578E-10
 CPU time [min]:     8.099                   Wall time [min]:     0.359
 
 Iteration 19  CC energy:   -37.80292985  Energy decrease:   5.4428E-12
 ======================================================================
 Norm of residual vector:     8.2090E-11
 CPU time [min]:     8.323                   Wall time [min]:     0.366
 
 Iteration 20  CC energy:   -37.80292985  Energy decrease:   4.4054E-13
 ======================================================================
 
 Iteration has converged in 20 steps.
 
 Final results:
 Total CCSDT energy [au]:            -37.802929846186
 Total MP2 energy [au]:              -37.777150601498
 
 
 
 Starting left-hand LR-CC iteration for root                      1 ...
 ======================================================================
 Norm of residual vector:     1.47215307
 CPU time [min]:     8.926                   Wall time [min]:     0.385
 
 Iteration  1  CI energy:   -37.80292985  Energy decrease:   0.0000E+00
 ======================================================================
 Norm of residual vector:     0.13069962
 CPU time [min]:     9.589                   Wall time [min]:     0.413
 
 Iteration  2  CI energy:   -37.80292985  Energy decrease:   0.0000E+00
 ======================================================================
 Norm of residual vector:     0.03786266
 CPU time [min]:    10.363                   Wall time [min]:     0.438
 
 Iteration  3  CI energy:   -37.80292985  Energy decrease:   0.0000E+00
 ======================================================================
 Norm of residual vector:     0.01078324
 CPU time [min]:    11.021                   Wall time [min]:     0.463
 
 Iteration  4  CI energy:   -37.80292985  Energy decrease:   0.0000E+00
 ======================================================================
 Norm of residual vector:     0.00367925
 CPU time [min]:    12.494                   Wall time [min]:     0.554
 
 Iteration  5  CI energy:   -37.80292985  Energy decrease:   0.0000E+00
 ======================================================================
 Norm of residual vector:     0.00075420
 CPU time [min]:    13.575                   Wall time [min]:     0.604
 
 Iteration  6  CI energy:   -37.80292985  Energy decrease:   0.0000E+00
 ======================================================================
 Norm of residual vector:     0.00021025
 CPU time [min]:    14.173                   Wall time [min]:     0.622
 
 Iteration  7  CI energy:   -37.80292985  Energy decrease:   0.0000E+00
 ======================================================================
 Norm of residual vector:     0.00008133
 CPU time [min]:    14.834                   Wall time [min]:     0.643
 
 Iteration  8  CI energy:   -37.80292985  Energy decrease:   0.0000E+00
 ======================================================================
 Norm of residual vector:     0.00002743
 CPU time [min]:    15.539                   Wall time [min]:     0.671
 
 Iteration  9  CI energy:   -37.80292985  Energy decrease:   0.0000E+00
 ======================================================================
 Norm of residual vector:     0.00000828
 CPU time [min]:    16.093                   Wall time [min]:     0.688
 
 Iteration 10  CI energy:   -37.80292985  Energy decrease:   0.0000E+00
 ======================================================================
 Norm of residual vector:     0.00000216
 CPU time [min]:    16.614                   Wall time [min]:     0.705
 
 Iteration 11  CI energy:   -37.80292985  Energy decrease:   0.0000E+00
 ======================================================================
 Norm of residual vector:     0.00000051
 CPU time [min]:    17.443                   Wall time [min]:     0.740
 
 Iteration 12  CI energy:   -37.80292985  Energy decrease:   0.0000E+00
 ======================================================================
 Norm of residual vector:     0.00000014
 CPU time [min]:    19.140                   Wall time [min]:     0.819
 
 Iteration 13  CI energy:   -37.80292985  Energy decrease:   0.0000E+00
 ======================================================================
 Norm of residual vector:     0.00000003
 CPU time [min]:    19.801                   Wall time [min]:     0.840
 
 Iteration 14  CI energy:   -37.80292985  Energy decrease:   0.0000E+00
 ======================================================================
 Norm of residual vector:     0.00000001
 CPU time [min]:    20.617                   Wall time [min]:     0.873
 
 Iteration 15  CI energy:   -37.80292985  Energy decrease:   0.0000E+00
 ======================================================================
 Norm of residual vector:     3.0507E-09
 CPU time [min]:    21.465                   Wall time [min]:     0.900
 
 Iteration 16  CI energy:   -37.80292985  Energy decrease:   0.0000E+00
 ======================================================================
 Norm of residual vector:     9.0939E-10
 CPU time [min]:    23.460                   Wall time [min]:     0.984
 
 Iteration 17  CI energy:   -37.80292985  Energy decrease:   0.0000E+00
 ======================================================================
 Norm of residual vector:     2.5657E-10
 CPU time [min]:    25.375                   Wall time [min]:     1.047
 
 Iteration 18  CI energy:   -37.80292985  Energy decrease:   0.0000E+00
 ======================================================================
 Norm of residual vector:     6.5377E-11
 CPU time [min]:    25.941                   Wall time [min]:     1.065
 
 Iteration 19  CI energy:   -37.80292985  Energy decrease:   0.0000E+00
 ======================================================================
 
 Iteration has converged in 19 steps.
 
 Final results:
 Total CCSDT energy [au]:            -37.802929846186
 
 
 
 Calculating reduced density-matrix for root 1...
 
 Total energy from RDM [au]:         -37.802929846186
 
 ************************ 2018-04-04 21:05:06 *************************
                      Normal termination of mrcc.
 **********************************************************************
--executable dmrcc finished with status     0 in      171.84 seconds (walltime).
 --invoking executable--
/home/nike/cfour_v2.00beta/bin/xdens
 @GETMEM-I,  Allocated   30517 MB of main memory.
  Unrelaxed density for DBOC is calculated
  sort for dboc
  ----------------------------------------------------------------------
                 Natural orbital occupation numbers
  ----------------------------------------------------------------------
                            Alpha spin
  ----------------------------------------------------------------------
  0.99936  0.98267  0.98267  0.97421  0.02233  0.00623  0.00623  0.00591
  0.00591  0.00473  0.00348  0.00348  0.00149  0.00023  0.00015  0.00014
  0.00014  0.00011  0.00011  0.00009  0.00008  0.00008  0.00006  0.00006
  0.00004  0.00001  0.00000
  Trace of density matrix :   4.0000000000.
  ----------------------------------------------------------------------
                            Beta spin
  ----------------------------------------------------------------------
  0.99936  0.95193  0.02453  0.00717  0.00717  0.00482  0.00131  0.00131
  0.00036  0.00036  0.00033  0.00033  0.00022  0.00019  0.00018  0.00011
  0.00011  0.00010  0.00003  0.00002  0.00002  0.00002  0.00002  0.00000
  0.00000  0.00000  0.00000
  Trace of density matrix :   2.0000000000.
  ----------------------------------------------------------------------
  Density calculation successfully completed.
  @CHECKOUT-I, Total execution time (CPU/WALL):        0.26/       1.57 seconds.
--executable xdens finished with status     0 in        2.06 seconds (walltime).
 --invoking executable--
/home/nike/cfour_v2.00beta/bin/xvdint
 @GETMEM-I,  Allocated   30517 MB of main memory.
 One- and two-electron integral derivatives are calculated
 for UHF-CC/MBPT hessians and dipole derivatives.
 Spherical gaussians are used.
  Integrals for DBOC will be evaluated
 
   First contribution to E(DBOC):        0.00000 cm-1
   Second contribution to E(DBOC):     -378.82831 cm-1
  Evaluation of 1e integral derivatives required    0.07 seconds.
  Evaluation of 2el integral derivatives
  Evaluation of 2e integral derivatives required    0.00 seconds.
  @CHECKOUT-I, Total execution time (CPU/WALL):        0.06/       0.92 seconds.
--executable xvdint finished with status     0 in        1.53 seconds (walltime).
 --invoking executable--
/home/nike/cfour_v2.00beta/bin/xcphf
 @GETMEM-I,  Allocated   30517 MB of main memory.
 Coupled-perturbed HF (CPHF) equations 
 are solved for UHF-CC/MBPT hessian and dipole derivatives.
  irreducible representation Nr.                      1
  # geometric perturbations                      0
 number of lists relativistic                     0
  irreducible representation Nr.                      2
  # geometric perturbations                      1
 number of lists relativistic                     2
  irreducible representation Nr.                      3
  # geometric perturbations                      1
 number of lists relativistic                     2
  irreducible representation Nr.                      4
  # geometric perturbations                      0
 number of lists relativistic                     0
  irreducible representation Nr.                      5
  # geometric perturbations                      1
 number of lists relativistic                     2
  irreducible representation Nr.                      6
  # geometric perturbations                      0
 number of lists relativistic                     0
  irreducible representation Nr.                      7
  # geometric perturbations                      0
 number of lists relativistic                     0
  irreducible representation Nr.                      8
  # geometric perturbations                      0
 number of lists relativistic                     0
  efields on                     2
  efields on                     2
  efields on                     2
 There are 2 perturbations within irrep 2.
  Warning form lineq2 : the initial vector is zero.
 CPHF converged after  15 iterations.
 Calculation of total derivative of f
  range of perturbations from   0 to   2
 There are 2 perturbations within irrep 3.
  Warning form lineq2 : the initial vector is zero.
 CPHF converged after  15 iterations.
 Calculation of total derivative of f
  range of perturbations from   0 to   2
 There are 2 perturbations within irrep 5.
  Warning form lineq2 : the initial vector is zero.
 CPHF converged after  13 iterations.
 Calculation of total derivative of f
  range of perturbations from   0 to   2

                     SCF static dipole polarizability
                     --------------------------------

                         Ex          Ey          Ez

            Ex      12.125335    0.000000    0.000000
            Ey       0.000000   12.125335    0.000000
            Ez       0.000000    0.000000   10.533835



                  SCF static dipole hyperpolarizability
                  -------------------------------------

                         Ex          Ey          Ez

            xx       0.000000    0.000000    0.000000
            xy       0.000000    0.000000    0.000000
            xz       0.000000    0.000000    0.000000
            yy       0.000000    0.000000    0.000000
            yz       0.000000    0.000000    0.000000
            zz       0.000000    0.000000    0.000000



                   Diagonal Born-Oppenheimer Correction
                   ------------------------------------

  HF-SCF 1-el contribution to DBOC is   :         0.000000 cm-1
  Correlated 1-el contribtion to DBOC is:         0.000000 cm-1
  HF-SCF 2-el contribution to DBOC is   :       -13.902036 cm-1
  Correlated 2-el contribtion to DBOC is:         8.246601 cm-1
 
  @CHECKOUT-I, Total execution time (CPU/WALL):        0.02/       0.63 seconds.
--executable xcphf finished with status     0 in        1.27 seconds (walltime).
 --invoking executable--
/home/nike/cfour_v2.00beta/bin/xsdcc
 @GETMEM-I,  Allocated   30517 MB of main memory.
 External CC code used, step:                      1
  soterm F
 CPHF coefficients for occ-occ block: U^x(i,j) = -1/2 S^x(i,j)
 CPHF coefficients for vrt-vrt block: U^x(a,b) = -1/2 S^x(a,b)
 Transformation of derivative integrals from AO to MO basis:
 UHF transformation
 Transformation of DIIIJ integral derivatives.
 3 passes through the AO integral derivative file were needed.
         0 AO integral derivatives were read from file DIIIJ.
 Transformation of first index required    0.0 seconds.
 Transformation of remaining indices required    0.0 seconds.
     14282 MO integral derivatives were written to file DERINT.
 3 passes through the AO integral derivative file were needed.
         0 AO integral derivatives were read from file DIIIJ.
 Transformation of first index required    0.0 seconds.
 Transformation of remaining indices required    0.0 seconds.
      2604 MO integral derivatives were written to file DERINT.
 Transformation of DIIJK integral derivatives.
 2 passes through the AO integral derivative file were needed.
         0 AO integral derivatives were read from file DIIJK.
 Transformation of first index required    0.0 seconds.
 Transformation of remaining indices required    0.0 seconds.
     17451 MO integral derivatives were written to file DERINT.
 2 passes through the AO integral derivative file were needed.
         0 AO integral derivatives were read from file DIIJK.
 Transformation of first index required    0.0 seconds.
 Transformation of remaining indices required    0.0 seconds.
      6240 MO integral derivatives were written to file DERINT.
 Transformation of DIJIK integral derivatives.
 2 passes through the AO integral derivative file were needed.
         0 AO integral derivatives were read from file DIJIK.
 Transformation of first index required    0.0 seconds.
 Transformation of remaining indices required    0.0 seconds.
     26599 MO integral derivatives were written to file DERINT.
 2 passes through the AO integral derivative file were needed.
         0 AO integral derivatives were read from file DIJIK.
 Transformation of first index required    0.0 seconds.
 Transformation of remaining indices required    0.0 seconds.
      3540 MO integral derivatives were written to file DERINT.
 Transformation of DIJKL integral derivatives.
 1 pass through the AO integral derivative file was needed.
         0 AO integral derivatives were read from file DIJKL.
 Transformation of first index required    0.0 seconds.
 Transformation of remaining indices required    0.0 seconds.
     13952 MO integral derivatives were written to file DERINT.
 1 pass through the AO integral derivative file was needed.
         0 AO integral derivatives were read from file DIJKL.
 Transformation of first index required    0.0 seconds.
 Transformation of remaining indices required    0.0 seconds.
      4992 MO integral derivatives were written to file DERINT.
        MO basis integral derivatives are being calculated
             (Symmetry block 2, perturbation   1)
 ABSPERT                      2                     1                     1
                     0 XW
 Perturbed integrals stored on unit 55 for use within external CC programs.
  list                   311                     2                     1
                     2
  list                   311                     2                     2
                     1
  list                   311                     2                     2
                     1
  list                   311                     2                     1
                     2
  list                   311                     0                     0
                     0
  list                   311                     0                     0
                     0
  list                   311                     0                     0
                     0
  list                   311                     0                     0
                     0
  list                   307                    40                    20
                     2
  list                   307                    15                    15
                     1
  list                   307                    15                    15
                     1
  list                   307                    20                    10
                     2
  list                   307                     0                    12
                     0
  list                   307                     0                     8
                     0
  list                   307                     0                     8
                     0
  list                   307                     0                     4
                     0
  list                   314                    35                     1
                    35
  list                   314                    72                     2
                    36
  list                   314                    54                     2
                    27
  list                   314                    35                     1
                    35
  list                   314                     0                     0
                    30
  list                   314                     0                     0
                    40
  list                   314                     0                     0
                    20
  list                   314                     0                     0
                    30
  list                   327                   700                    20
                    35
  list                   327                   540                    15
                    36
  list                   327                   405                    15
                    27
  list                   327                   350                    10
                    35
  list                   327                   360                    12
                    30
  list                   327                   320                     8
                    40
  list                   327                   160                     8
                    20
  list                   327                   120                     4
                    30
  list                   331                  1260                    36
                    35
  list                   331                  1260                    35
                    36
  list                   331                   945                    35
                    27
  list                   331                   945                    27
                    35
  list                   331                  1200                    40
                    30
  list                   331                  1200                    30
                    40
  list                   331                   600                    30
                    20
  list                   331                   600                    20
                    30
  list                   312                     0                     1
                     0
  list                   312                     0                     0
                     1
  list                   312                     0                     0
                     0
  list                   312                     0                     0
                     0
  list                   312                     0                     0
                     0
  list                   312                     0                     0
                     0
  list                   312                     0                     0
                     0
  list                   312                     0                     0
                     0
  list                   308                     0                    14
                     0
  list                   308                     8                     8
                     1
  list                   308                     0                     8
                     0
  list                   308                     0                     4
                     0
  list                   308                     0                     8
                     0
  list                   308                     0                     4
                     0
  list                   308                     0                     4
                     0
  list                   308                     0                     0
                     0
  list                   315                    44                     1
                    44
  list                   315                     0                     0
                    42
  list                   315                     0                     0
                    34
  list                   315                     0                     0
                    44
  list                   315                     0                     0
                    34
  list                   315                     0                     0
                    44
  list                   315                     0                     0
                    24
  list                   315                     0                     0
                    34
  list                   328                   616                    14
                    44
  list                   328                   336                     8
                    42
  list                   328                   272                     8
                    34
  list                   328                   176                     4
                    44
  list                   328                   272                     8
                    34
  list                   328                   176                     4
                    44
  list                   328                    96                     4
                    24
  list                   328                     0                     0
                    34
  list                   332                  1848                    42
                    44
  list                   332                  1848                    44
                    42
  list                   332                  1496                    44
                    34
  list                   332                  1496                    34
                    44
  list                   332                  1496                    44
                    34
  list                   332                  1496                    34
                    44
  list                   332                   816                    34
                    24
  list                   332                   816                    24
                    34
  @CHECKOUT-I, Total execution time (CPU/WALL):        0.15/       1.82 seconds.
--executable xsdcc finished with status     0 in        6.14 seconds (walltime).
 --invoking executable--
/home/nike/MRCC/dmrcc
 **********************************************************************
                          MRCC program system
 **********************************************************************
 
                              Written by
    Mihaly Kallay, Zoltan Rolik, Jozsef Csontos, Istvan Ladjanszki,
       Lorant Szegedy, Bence Ladoczki, Gyula Samu, Klara Petrov,
        Mate Farkas, Peter Nagy, David Mester, and Bence Hegely
 
        Department of Physical Chemistry and Materials Science
            Budapest University of Technology and Economics
                  Budapest P.O.Box 91, H-1521 Hungary
 
                              www.mrcc.hu

 ************************ 2018-04-04 21:05:18 *************************
 Executing goldstone...

 Generation of CC equations in terms of H and T...
 Generation of antisymmetrized Goldstone diagrams...
 Number of diagrams in T^1 equations:    15
 Number of diagrams in T^2 equations:    37
 Number of diagrams in T^3 equations:    47
 Translation of diagrams to factorized equations...
 Optimizing intermediate calculation...
 Optimizing right-hand EOMCC calculation...
 Optimizing left-hand EOMCC calculation...
 Optimizing density-matrix calculation...
 Optimizing perturbed lambda equations...
 Optimizing perturbed density calculation...
 Number of floating-point operations per iteration step:   2.8382E+07
 Probable CPU time per iteration step (hours):      0.00
 Required memory (Mbytes):      44.6
 Number of intermediates:                                 613
 Number of intermediates to be stored:                    182
 Length of intermediate file (Mbytes):       4.4

 ************************ 2018-04-04 21:06:21 *************************
 Executing xmrcc...

 **********************************************************************
 CC(                     3 ) calculation 
 
 
 Allocation of 100.0 Mbytes of memory...
 Number of spinorbitals:                    54
 Number of alpha electrons:                        4
 Number of beta electrons:                         2
 Spin multiplicity:                     2
 z-component of spin:  1.0
 Spatial symmetry:                      4
 Convergence criterion:  1.0E-10
 Symmetry of perturbation:                      2
 Construction of occupation graphs...
 Number of perturbed amplitudes: 
 Number of                     0 -fold excitations:                      0
 Number of                     1 -fold excitations:                     23
 Number of                     2 -fold excitations:                    878
 Number of                     3 -fold excitations:                  14079
 Total number of configurations:                  14980
 Number of ground state excitations: 
 Number of                     0 -fold excitations:                      1
 Number of                     1 -fold excitations:                     34
 Number of                     2 -fold excitations:                    965
 Number of                     3 -fold excitations:                  14208
 Total number of configurations:                  15208
 Calculation of coupling coefficients...
 Length of intermediate file (Mbytes):       6.6
 
 Calculation of the <K|exp(-T) dH/dx exp(T)|0> term...
 
 Calculation of the <0|(1+L) exp(-T) dH/dx exp(T)|K> term...
 
 ======================================================================
 
 Calculation of the <0|(1+L)[exp(-T) H exp(T), dT/dx]|K> term...
 
 Calculation of the <0|(1+L)[exp(-T){p+q-}exp(T), dT/dx]|0> term...
 
 ======================================================================
 
 
 
 Memory requirements /Mbyte/: 
               Minimal        Optimal
 Real*8:         10.4437        13.9508
 Integer:         7.7779
 Total:          18.2216        21.7287
 

 ************************ 2018-04-04 21:06:24 *************************
 Executing mrcc...

 **********************************************************************
 CCSDT analytic second derivative calculation                           
 
 
 OpenMP parallel version is running.
 Number of CPUs:  32
 Allocation of   14.0 Mbytes of memory...
[...]
                    44
                     8                     4                     8
  list                   428                     0                     0
                    34
 G(Ab,Ic)
  G(Ab,Ic) a,b,c,i
                     1                     5                     8
  list                   429                  1848                    22
                    84
                     2                     6                     8
  list                   429                  1088                    17
                    64
                     3                     7                     8
  list                   429                  1088                    17
                    64
                     4                     8                     8
  list                   429                   528                    12
                    44
                     5                     1                     8
  list                   429                  1212                    12
                   101
                     6                     2                     8
  list                   429                   632                     8
                    79
                     7                     3                     8
  list                   429                   632                     8
                    79
                     8                     4                     8
  list                   429                   240                     4
                    60
 G(Ab,Ci)
  G(Ab,Ci) a,b,c,i
                     1                     5                     8
  list                   430                  1176                    14
                    84
                     2                     6                     8
  list                   430                   384                     6
                    64
                     3                     7                     8
  list                   430                   384                     6
                    64
                     4                     8                     8
  list                   430                   176                     4
                    44
                     5                     1                     8
  list                   430                   808                     8
                   101
                     6                     2                     8
  list                   430                   316                     4
                    79
                     7                     3                     8
  list                   430                   316                     4
                    79
                     8                     4                     8
  list                   430                     0                     0
                    60
 G(AB,CD)
  G(AB,CD) a,b,c,d
                     1                     5                     8
  list                   431                  1440                    36
                    40
                     2                     6                     8
  list                   431                  1050                    35
                    30
                     3                     7                     8
  list                   431                  1050                    35
                    30
                     4                     8                     8
  list                   431                   540                    27
                    20
                     5                     1                     8
  list                   431                  1440                    40
                    36
                     6                     2                     8
  list                   431                  1050                    30
                    35
                     7                     3                     8
  list                   431                  1050                    30
                    35
                     8                     4                     8
  list                   431                   540                    20
                    27
 G(ab,cd)
  G(ab,cd) a,b,c,d
                     1                     5                     8
  list                   432                  1848                    42
                    44
                     2                     6                     8
  list                   432                  1496                    44
                    34
                     3                     7                     8
  list                   432                  1496                    44
                    34
                     4                     8                     8
  list                   432                   816                    34
                    24
                     5                     1                     8
  list                   432                  1848                    44
                    42
                     6                     2                     8
  list                   432                  1496                    34
                    44
                     7                     3                     8
  list                   432                  1496                    34
                    44
                     8                     4                     8
  list                   432                   816                    24
                    34
 G(Ab,Cd)
  G(Ab,Cd) a,b,c,d
                     1                     5                     8
  list                   433                  8484                   101
                    84
                     2                     6                     8
  list                   433                  5056                    79
                    64
                     3                     7                     8
  list                   433                  5056                    79
                    64
                     4                     8                     8
  list                   433                  2640                    60
                    44
                     5                     1                     8
  list                   433                  8484                    84
                   101
                     6                     2                     8
  list                   433                  5056                    64
                    79
                     7                     3                     8
  list                   433                  5056                    64
                    79
                     8                     4                     8
  list                   433                  2640                    44
                    60
 D(I,J)  
 D(i,j)  
 PITERM.tmp does not exsit!
 skip reading
 Calculation of the contributions of <pq||rs> to dI(i,j)/dx
 required   0.0 seconds.
 Calculation of the contributions of <pq||rs> to dI(a,b)/dx
 required   0.0 seconds.
 Calculation of the contributions of <pq||rs> to dI(i,a)/dx
 required   0.0 seconds.
 First-order Z-vector equations are solved for 1 perturbation.
  Warning form lineq2 : the initial vector is zero.
 Convergence reached after   1 iterations.
        U*G(pq,rs) contribution is being calculated
             (Symmetry block 5, perturbation   1)

 CI/CC contribution to force constants 

        0.0000000000        0.0000000000        0.0000000000
        0.0000000000        0.0000000000        0.0000000000
        0.0000000000        0.0000000000        0.0000000000

 CI/CC contribution to dipole derivatives 

        0.0000000000        0.0000000000        0.0000000000
        0.0000000000        0.0000000000        0.0000000000
        0.0000000000        0.0000000000        0.0000000000
  @CHECKOUT-I, Total execution time (CPU/WALL):        0.04/       0.07 seconds.
--executable xsdcc finished with status     0 in        0.14 seconds (walltime).
 --invoking executable--
/home/nike/cfour_v2.00beta/bin/xanti
 @GETMEM-I,  Allocated   30517 MB of main memory.
  @CHECKOUT-I, Total execution time (CPU/WALL):        0.02/       0.04 seconds.
--executable xanti finished with status     0 in        0.14 seconds (walltime).
 --invoking executable--
/home/nike/cfour_v2.00beta/bin/xbcktrn
 @GETMEM-I,  Allocated   30517 MB of main memory.
  @CHECKOUT-I, Total execution time (CPU/WALL):        0.01/       0.02 seconds.
--executable xbcktrn finished with status     0 in        0.70 seconds (walltime).
 --invoking executable--
/home/nike/cfour_v2.00beta/bin/xvdint
 @GETMEM-I,  Allocated   30517 MB of main memory.
 One- and two-electron integral derivatives are calculated
 for UHF-CC/MBPT hessians and dipole derivatives.
 Spherical gaussians are used.
  Evaluation of 2el integral derivatives

                      Two-electron integral gradient
                      ------------------------------



 C #1       0.0000000000            0.0000000000            0.0000000000


  Evaluation of 2e integral derivatives required    0.08 seconds.
  contribution to Hessian
        0.0000000000        0.0000000000        0.0000000000
  @CHECKOUT-I, Total execution time (CPU/WALL):        0.07/       0.42 seconds.
--executable xvdint finished with status     0 in        0.44 seconds (walltime).
 --invoking executable--
/home/nike/cfour_v2.00beta/bin/xanti
 @GETMEM-I,  Allocated   30517 MB of main memory.
  antisym F
  antisym2 F
  antisym F
  antisym2 F
  @CHECKOUT-I, Total execution time (CPU/WALL):        0.03/       0.19 seconds.
--executable xanti finished with status     0 in        0.29 seconds (walltime).
 --invoking executable--
/home/nike/cfour_v2.00beta/bin/xbcktrn
 @GETMEM-I,  Allocated   30517 MB of main memory.
  @CHECKOUT-I, Total execution time (CPU/WALL):        0.01/       0.02 seconds.
--executable xbcktrn finished with status     0 in        0.05 seconds (walltime).
 --invoking executable--
/home/nike/cfour_v2.00beta/bin/xvdint
 @GETMEM-I,  Allocated   30517 MB of main memory.
 One- and two-electron integral derivatives are calculated
 for UHF-CC/MBPT hessians and dipole derivatives.
 Spherical gaussians are used.

                     Kinetic energy integral gradient
                     --------------------------------



 C #1       0.0000000000            0.0000000000            0.0000000000



                   Nuclear attraction integral gradient
                   ------------------------------------



 C #1       0.0000000000            0.0000000000            0.0000000000



                      Reorthonormalization gradient
                      -----------------------------



 C #1       0.0000000000            0.0000000000            0.0000000000



                     Kinetic energy integral Hessian
                     -------------------------------


           Symmetry 2

           C #1 x

 C #1 x    0.000000


           Symmetry 3

           C #1 y

 C #1 y    0.000000


           Symmetry 5

           C #1 z

 C #1 z    0.000000




           C #1 x      C #1 y      C #1 z




                   Nuclear attraction integral Hessian
                   -----------------------------------


           Symmetry 2

           C #1 x

 C #1 x    0.000000


           Symmetry 3

           C #1 y

 C #1 y    0.000000


           Symmetry 5

           C #1 z

 C #1 z    0.000000




           C #1 x      C #1 y      C #1 z




                Highest order reorthonormalization Hessian
                ------------------------------------------


           Symmetry 2

           C #1 x

 C #1 x    0.000000


           Symmetry 3

           C #1 y

 C #1 y    0.000000


           Symmetry 5

           C #1 z

 C #1 z    0.000000




           C #1 x      C #1 y      C #1 z




                Electronic contributions to dipole moment
                -----------------------------------------

                     All components zero by symmetry

  Conversion factor used: 1 a.u. =   2.54174691 Debye 



   Electronic contributions to static part of dipole moment derivatives
   --------------------------------------------------------------------


                     Total dipole moment derivatives
                     -------------------------------


           Symmetry 2
                              Ex

               C #1 x    -6.00000000

           Symmetry 3
                              Ey

               C #1 y    -6.00000000

           Symmetry 5
                              Ez

               C #1 z    -6.00000000



                       Ex          Ey          Ez

      C #1    x   -6.000000    0.000000    0.000000
      C #1    y    0.000000   -6.000000    0.000000
      C #1    z    0.000000    0.000000   -6.000000

  Evaluation of 1e integral derivatives required    0.07 seconds.
  Evaluation of 2el integral derivatives

                      Two-electron integral gradient
                      ------------------------------



 C #1       0.0000000000            0.0000000000            0.0000000000


  Evaluation of 2e integral derivatives required    0.02 seconds.

                            Molecular gradient
                            ------------------



 C #1       0.0000000000            0.0000000000            0.0000000000


  Molecular gradient norm 0.000E+00

                            Molecular hessian
                            -----------------


           Symmetry 2

           C #1 x

 C #1 x    0.000000


           Symmetry 3

           C #1 y

 C #1 y    0.000000


           Symmetry 5

           C #1 z

 C #1 z    0.000000




           C #1 x      C #1 y      C #1 z




                           Total dipole moment
                           -------------------

                     All components zero by symmetry

  Conversion factor used: 1 a.u. =   2.54174691 Debye 



                     Total dipole moment derivatives
                     -------------------------------


           Symmetry 2
                              Ex

               C #1 x     0.00000000

           Symmetry 3
                              Ey

               C #1 y     0.00000000

           Symmetry 5
                              Ez

               C #1 z     0.00000000



                       Ex          Ey          Ez

      C #1    x    0.000000    0.000000    0.000000
      C #1    y    0.000000    0.000000    0.000000
      C #1    z    0.000000    0.000000    0.000000

  @CHECKOUT-I, Total execution time (CPU/WALL):        0.08/       0.38 seconds.
--executable xvdint finished with status     0 in        0.40 seconds (walltime).
 --invoking executable--
/home/nike/cfour_v2.00beta/bin/xjoda
  @GTFLGS-W, Keyword #SCF_DAMPING not known and is ignored.
  @GTFLGS-I, Hessian will be transformed to curvilinear coordinates.
  @GTFLGS-W, Keyword #SCF_DAMPING not known and is ignored.
  @GTFLGS-I, Hessian will be transformed to curvilinear coordinates.
  igrd and ihes are                      0                     0
  fetching hessian                      9
  iavhes is                      0
  masses used (in AMU) in vibrational analysis: 
  12.000000000
                     Normal Coordinate Analysis
  ----------------------------------------------------------------
    Irreducible         Harmonic       Infrared        Type 
   Representation       Frequency      Intensity 
  ----------------------------------------------------------------
                       (cm-1)         (km/mol)
  ----------------------------------------------------------------
      ----                 0.0000         0.0000      TRANSLATION
      ----                 0.0000         0.0000      TRANSLATION
      ----                 0.0000         0.0000      TRANSLATION
  ----------------------------------------------------------------
 
 
                                   Normal Coordinates 




 C    
            Gradient vector in normal coordinate representation
         ----------------------------------------------------------
   i    W(I)     dE/dQ(i)     dE/dq      dE/dq     [dE/dQ(i)]/w(i)
                              (cm-1)      (eV)        (relative)
         ----------------------------------------------------------
         ----------------------------------------------------------
 
                      Normal modes in internal coordinates 
---------------------------------------------------------------------------
              0.000         0.000         0.000
---------------------------------------------------------------------------
           0.000000      0.000000      0.000000
---------------------------------------------------------------------------
 
  ----------------------------------------------------------------
                    Dipole Moment Function
                   (Normal Coordinate Basis)
  ----------------------------------------------------------------
    Mode     Symmetry    d(Mu(x))/dQ   d(Mu(y))/dQ   d(Mu(z))/dQ
  ----------------------------------------------------------------
  ----------------------------------------------------------------
---------------------------------------------------------------------------
------------------------------------------------------------
        Parameter                (MHz)                 (CM-1)
------------------------------------------------------------
 
           R6                0.000000E+00           0.000000E+00
           R5                0.000000E+00           0.000000E+00
           SI                            -.100000E+01
 
  A-reduced centrifugal distortion parameters (Ir representation) 
 
           DJ                0.000000E+00           0.000000E+00
           DK                0.000000E+00           0.000000E+00
           DJK               0.000000E+00           0.000000E+00
           DELJ              0.000000E+00           0.000000E+00
           DELK              0.000000E+00           0.000000E+00
           DELJK             0.000000E+00           0.000000E+00
           delJ              0.000000E+00           0.000000E+00
           delK              0.000000E+00           0.000000E+00
 
  S-reduced centrifugal distortion parameters (Ir representation) 
 
           DJ                0.000000E+00           0.000000E+00
           DK                0.000000E+00           0.000000E+00
           DJK               0.000000E+00           0.000000E+00
           D1                0.000000E+00           0.000000E+00
           D2                0.000000E+00           0.000000E+00
------------------------------------------------------------
  null vector returned from NORMAL
  null vector returned from NORMAL
  null vector returned from NORMAL
   Vibrational frequencies after rotational projection  of 
   Cartesian force constants: 
            1               0.0000 
            2               0.0000 
            3               0.0000 
  Zero-point energy:    0.0000 kcal/mol =    0.0000 kJ/mol =       0.000 cm-1 
 
 
  The total diagonal Born-Oppenheimer correction (DBOC) is:      0.0017003007 a.u.
  The total diagonal Born-Oppenheimer correction (DBOC) is:        373.172877 cm-1
  The total diagonal Born-Oppenheimer correction (DBOC) is:             4.464 kJ/mole
  readis is  F
 
  @CHECKOUT-I, Total execution time (CPU/WALL):        0.01/       0.10 seconds.
--executable xjoda finished with status     0 in        0.14 seconds (walltime).
  The final electronic energy is       -37.802929846185691 a.u. 
  This computation required                          539.90 seconds (walltime).
--- SharcNET Job Epilogue ---
Job completed successfully.
               jobid: 1540969
               resid: 3020101
         exit status: 0
      allocated time: 541.012
           user time: 3396.59
         system time: 845.26
peak rss=203608064; peak vsz=203608064 (bytes)
atime=541.012; utime=3396.59; stime=845.26; exit=0
