 --invoking executable--
/home/nike/cfour_v2.00beta/cfour_v2.00beta/bin/xjoda


   *************************************************************************
         <<<     CCCCCC     CCCCCC   |||     CCCCCC     CCCCCC   >>>
       <<<      CCC        CCC       |||    CCC        CCC         >>>
      <<<      CCC        CCC        |||   CCC        CCC            >>>
    <<<        CCC        CCC        |||   CCC        CCC              >>>
      <<<      CCC        CCC        |||   CCC        CCC            >>>
       <<<      CCC        CCC       |||    CCC        CCC         >>>
         <<<     CCCCCC     CCCCCC   |||     CCCCCC     CCCCCC   >>>
   *************************************************************************

     ****************************************************************
     * CFOUR Coupled-Cluster techniques for Computational Chemistry *
     ****************************************************************
 

   Department of Chemistry                Institut fuer Physikalische Chemie
   University of Texas at Austin          Universitaet Mainz
   Austin, TX  78712, USA                 D-55099 Mainz, Germany
 
                       Version 2.00beta
 
                     blg8331.int.ets1.calculquebec.ca                  
                     Sa 7. Mär 18:32:08 EST 2020                      
                     integer*8 version is running
 
********************************************************************************
*                          Input from ZMAT file                                *
********************************************************************************
TITLE                                                                           
Mg                                                                              
Cl 1 R1                                                                         
X 1 D 2 A90                                                                     
Cl 1 R2 3 A90 2 D180                                                            
                                                                                
R1=4.11960295168                                                                
R2=4.11960295168                                                                
D=1                                                                             
A90=90                                                                          
D180=180                                                                        
A=180.0                                                                         
                                                                                
*ACES2(CALC=CCSD(T)                                                             
UNITS=BOHR                                                                      
#GEOM=2.180*10/5.29177210903_fromCCCBDBwhcihReferencesGurvich1989               
#COORD=CARTESIAN                                                                
COORD=INTERNAL                                                                  
PRINT=4                                                                         
JODA_PRINT=4                                                                    
INPUT_MRCC=OFF                                                                  
#CC_PROG=MRCC                                                                   
#FROZEN_CORE=ON                                                                 
DROPMO=1>12                                                                     
CONTRACTION=GENERAL                                                             
#CONTRACTION=SEGMENTED                                                          
RELATIVISTIC=OFF                                                                
#EXCITE=EOMEE                                                                   
#ESTATE_CONV=5                                                                  
#ESTATE_SYM=2/2/2/2/2/2/2/2                                                     
XFORM_TOL=18                                                                    
SAVE_INTS=ON                                                                    
SCF_EXPORDER=6                                                                  
SCF_EXPSTART=5                                                                  
#SCF_DAMPING=1000                                                               
SCF_EXTRAPOLATION=ON                                                            
SCF_CONV=13                                                                     
SCF_MAXCYC=99999                                                                
CC_CONV=9                                                                       
CC_MAXCYC=999                                                                   
T3_EXTRAPOL=ON                                                                  
REFERENCE=RHF                                                                   
CHARGE=+0                                                                       
MULT=1                                                                          
ABCDTYPE=STANDARD                                                               
#OCCUPATION=5-2-2-0-4-1-1-0                                                     
#OCCUPATION=3-2-2-0-1-0-0-0/3-1-1-0-1-0-0-0                                     
MEM=2                                                                           
MEM_UNIT=GB                                                                     
BASIS=SPECIAL)                                                                  
                                                                                
MG:def2-TZVPP                                                                   
CL:def2-TZVPP                                                                   
CL:def2-TZVPP                                                                   
                                                                                
********************************************************************************
  @GTFLGS-W, Keyword #GEOM not known and is ignored.
  @GTFLGS-W, Keyword #COORD not known and is ignored.
  @GTFLGS-W, Keyword #CC_PROG not known and is ignored.
  @GTFLGS-W, Keyword #FROZEN_CORE not known and is ignored.
  @GTFLGS-W, Keyword #CONTRACTION not known and is ignored.
  @GTFLGS-W, Keyword #EXCITE not known and is ignored.
  @GTFLGS-W, Keyword #ESTATE_CONV not known and is ignored.
  @GTFLGS-W, Keyword #ESTATE_SYM not known and is ignored.
  @GTFLGS-W, Keyword #SCF_DAMPING not known and is ignored.
  @GTFLGS-W, Keyword #OCCUPATION not known and is ignored.
  @GTFLGS-W, Keyword #OCCUPATION not known and is ignored.
    -------------------------------------------------------------------
                    CFOUR Control Parameters 
    -------------------------------------------------------------------
        External           Internal           Value            Units
          Name               Name
    -------------------------------------------------------------------
       ABCDTYPE             IABCDT         STANDARD     [  0]   ***   
       ANHARMONIC           IANHAR         OFF          [  0]   ***   
       ANH_ALGORIT          IANALG         STANDARD     [  0]   ***   
       ANH_DERIVAT          IANDER         SECOND       [  1]   ***   
       ANH_STEPSIZ          ICUBST             50000          x 10-6  
       ANH_SYMMETR          IANHSM         ABELIAN      [  0]   ***   
       AO_LADDERS           IAOLAD         SINGLEPASS   [  1]   ***   
       BASIS                IBASIS         SPECIAL      [  0]   ***   
       BREIT                IBREIT         OFF          [  0]   ***   
       BRUCK_CONV           IBRTOL          10D-  4             ***   
       BRUECKNER            IBRKNR             OFF      [  0]   ***   
       BUFFERSIZE           IBUFFS            600               ***   
       CACHE_RECS           ICHREC             10               ***   
       CALCLEVEL            ICLLVL           CCSD(T)    [ 22]   ***   
       CCORBOPT             ICCORB             OFF      [  0] x 0.01  
       CC_CONV              ICCCNV          10D-  9             ***   
       CC_EXPORDER          ICCEOR              5               ***   
       CC_EXTRAPOL          ICCEXT             DIIS     [  1]   ***   
       CC_MAXCYC            ICCCYC            999              cycles 
       CC_PROGRAM           ICCPRO         VCC          [  0]   ***   
       CHARGE               ICHRGE              0               ***   
       CHOLESKY             ICHOLE         OFF          [  0]   ***   
       CIS_CONV             ICISTL              5               ***   
       COMM_SIZE            IPSIZE            ***               ***   
       CONSTANT             ICONST         OLD          [  1]   ***   
       CONTINUUM            ICONTU         NONE         [  0]   ***   
       CONTRACTION          ICNTYP          GENERAL     [  1]   ***   
       COORDINATES          ICOORD         INTERNAL     [  0]   ***   
       CPHF_CONVER          ICPHFT          10D- 16             ***   
       CPHF_MAXCYC          ICPHFC             64              cycles 
       CUBIC                ICUBIC         OFF          [  0]   ***   
       CURVILINEAR          ICURVY            OFF       [  0]   ***   
       DBOC                 IDBOC          OFF          [  0]   ***   
       DCT                  IDCT           OFF          [  0]   ***   
       DERIV_LEV            IDRLVL            ZERO      [  0]   ***   
       DIAG_MRCC            IEOMST          10D-  0             ***   
       DIFF_TYPE            IDIFTY         RELAXED      [  0]   ***   
       DIRECT               IDIRCT         OFF          [  0]   ***   
       DROPMO               IDRPMO   1,  2,  3,  4,  5,  6,  7,  8,
                                     9, 10, 11, 12,
       ECP                  IECP           OFF          [  0]   ***   
       EIGENVECTOR          IVEC                1               ***   
       EL_ANHARM            IELANH         OFF          [  0]   ***   
       EOMFOLLOW            IEOMSR         ENERGY       [  0]   ***   
       EOM_MRCC             IMRCCE         NEW          [  1]   ***   
       EOM_NONIT            EOMNON         OFF          [  0]   ***   
       EOM_NSING            IEOMSI          10D-  0             ***   
       EOM_NSTATES          IMRCCD         DAVIDSON     [  0]   ***   
       EOM_NTRIP            IEOMTR          10D-  0             ***   
       EOM_ORDER            IEXORD         ENERGY       [  0]   ***   
       ESTATE_CONV          IEXTOL          10D-  5             ***   
       ESTATE_DIAG          IEXDIG         ITERATIVE    [  0]   ***   
       ESTATE_LOCK          IESLOC         ON           [  1]   ***   
       ESTATE_MAXC          IEXMXC             20               ***   
       ESTATE_PROP          IEXPRP         OFF          [  0]   ***   
       EVAL_HESS            IRECAL              0            # of cyc.
       EXCITATION           IEXCIT              0               ***   
       EXCITE               IEXCIT         NONE         [  0]   ***   
       FCGRADNEW            IFCGNW         OFF          [  0]   ***   
       FC_FIELD             IFINFC              0             x 10-6  
       FD_CALTYPE           IFDCAL         GRADONLY     [  0]   ***   
       FD_PROJECT           IFDPRJ         OFF          [  1]   ***   
       FD_STEPSIZE          IDISFD              0            10-4 bohr
       FD_USEGROUP          IFDGRP         FULL         [  0]   ***   
       FILE_RECSIZ          IFLREC              4096           words  
       FINITE_PERT          IFIPER              0             x 10-6  
       FIXGEOM              IFIXGM         OFF          [  0]   ***   
       FOCK                 IFOCK          AO           [  1]   ***   
       FREQ_ALGORI          IVIALG         STANDARD     [  0]   ***   
       FROZEN_CORE          IFROCO         OFF          [  0]   ***   
       FROZEN_VIRT          IFROVI         OFF          [  0]   ***   
       GAMMA_ABCD           IGABCD         STORE        [  0]   ***   
       GAMMA_ABCI           IGABCI         STORE        [  0]   ***   
       GENBAS_1             IGNBS1              0               ***   
       GENBAS_2             IGNBS2              0               ***   
       GENBAS_3             IGNBS3              0               ***   
       GENBAS_4             IGNBS4              0               ***   
       GEO_CONV             ICONTL              5              H/bohr 
       GEO_MAXCYC           IOPTCY             50               ***   
       GEO_MAXSTEP          IMXSTP            300            millibohr
       GEO_METHOD           INR            SINGLE_POINT [  5]   ***   
       GIAO                 IGIAO          OFF          [  1]   ***   
       GIMIC                IGIMIC         OFF          [  0]   ***   
       GRID                 IGRID          OFF          [  0]   ***   
       GRID_ALGO            IGALGO         SERIAL       [  0]   ***   
       GUESS                IGUESS            MOREAD    [  0]   ***   
       HBAR                 IHBAR              OFF      [  0]   ***   
       HESS_TYPE            IHESTP         SCF          [  0]   ***   
       HF2_FILE             IHF2Fl         USE          [  1]   ***   
       HFSTABILITY          ISTABL         OFF          [  0]   ***   
       INCORE               INCORE             OFF      [  0]   ***   
       INPUT_MRCC           IMRCC          OFF          [  0]   ***   
       INTEGRALS            INTTYP             VMOL     [  1]   ***   
       JODA_PRINT           IJPRNT              4               ***   
       LINDEP_TOL           ILINDP              8               ***   
       LINEQ_CONV           IZTACN          10D-  7           cycles  
       LINEQ_EXPOR          ILMAXD              5               ***   
       LINEQ_MAXCY          ILMAXC             50               ***   
       LINEQ_TYPE           ILTYPE         DIIS         [  1]   ***   
       LOCK_ORBOCC          ILOCOC             OFF      [  0]   ***   
       MEMORY_SIZE          IMEMSZ         250000000           words  
       MEM_UNIT             IMEMU          GB           [  3]   ***   
       MRCC                 IMRCCC         OFF          [  0]   ***   
       MULTIPLICTY          IMULTP              1               ***   
       NEGEVAL              IDIE             ABORT      [  0]   ***   
       NEWNORM              INEWNO         OFF          [  0]   ***   
       NON-HF               INONHF             OFF      [  0]   ***   
       NTOP_TAMP            ITOPT2             15               ***   
       NUC_MODEL            INUCMO         POINT        [  0]   ***   
       OCCUPATION           IOCCU   ESTIMATED BY SCF 
       OPEN-SHELL           IOPEN          SPIN-ORBITAL [  0]   ***   
       ORBITALS             IORBTP           STANDARD   [  0]   ***   
       PARALLEL             IPARAL         ON           [  1]   ***   
       PARA_INT             IPINTS         ON           [  1]   ***   
       PARA_PRINT           IPPRIN              0               ***   
       PERT_ORB             IPTORB         STANDARD     [  0]   ***   
       POINTS               IGRDFD              0               ***   
       PRINT                IPRNT               4               ***   
       PROPS                IPROPS             OFF      [  0]   ***   
       PROP_INTEGR          IINTYP         INTERNAL     [  0]   ***   
       PSI                  IPSI           OFF          [  0]   ***   
       QUARTIC              IQUART         OFF          [  0]   ***   
       RAMAN_INT            IRAMIN         OFF          [  0]   ***   
       RAMAN_ORB            IRAMRE         UNRELAXED    [  0]   ***   
       RDO                  IRDOFM             OFF      [  0]   ***   
       REFERENCE            IREFNC             RHF      [  0]   ***   
       RELATIVIST           IRELAT         OFF          [  0]   ***   
       RELAX_DENS           IRDENS             OFF      [  0]   ***   
       RESET_FLAGS          IRESET             OFF      [  0]   ***   
       RESTART_CC           ICCRES         OFF          [  0]   ***   
       ROT_EVEC             ROTVEC              0               ***   
       SAVE_INTS            ISVINT              ON      [  1]   ***   
       SCALE_ON             ISTCRT              0               ***   
       SCF_CONV             ISCFCV          10D- 13             ***   
       SCF_DAMPING          IDAMP               0             x 10-3  
       SCF_EXPORDE          IRPPOR              6               ***   
       SCF_EXPSTAR          IRPPLS              5               ***   
       SCF_EXTRAPO          IRPP                ON      [  1]   ***   
       SCF_MAXCYC           ISCFCY            ***              cycles 
       SCF_NOSTOP           ISCFST         OFF          [  0]   ***   
       SCF_PRINT            ISCFPR              0               ***   
       SD_FIELD             IFINSD              0             x 10-6  
       SEQUENCE             ISEQUE         OFF          [  0]   ***   
       SOPERT               IPERSO         OFF          [  0]   ***   
       SPHERICAL            IDFGHI             ON       [  1]   ***   
       SPINORBIT            ISOCAL         OFF          [  0]   ***   
       SPINROTATIO          ISRCON         OFF          [  0]   ***   
       SPIN_FLIP            ISPFLP         OFF          [  0]   ***   
       SPIN_ORBIT           ISPORB         OFF          [  0]   ***   
       SPIN_SCAL            ISCSMP         OFF          [  0]   ***   
       SUBGROUP             ISUBGP         DEFAULT      [  0]   ***   
       SUBGRPAXIS           ISBXYZ         X            [  0]   ***   
       SYMMETRY             ISYM             ON         [  0]   ***   
       SYM_CHECK            ISYMCK         OVERRIDE     [  1]   ***   
       T3_EXTRAPOL          IT3EXT         ON           [  1]   ***   
       TAMP_SUM             IEVERY              5               ***   
       TESTSUITE            ITESTS         OFF          [  0]   ***   
       THERMOCH             ITHERM         OFF          [  0]   ***   
       TOL_CHOLESK          ITOLCH          10D-  4             ***   
       TRANGRAD             IRESRM         OFF          [  0]   ***   
       TRANS_INV            ITRAIN         USE          [  0]   ***   
       TREAT_PERT           ITREAT         SIMULTANEOUS [  0]   ***   
       UIJ_THRESHO          IUIJTH              1               ***   
       UNITS                IUNITS         BOHR         [  1]   ***   
       UNOS                 IUNOS          OFF          [  0]   ***   
       UPDATE_HESS          IHUPDT         ON           [  1]   ***   
       VIBPHASE             ISETPH         STANDARD     [  0]   ***   
       VIBRATION            IVIB              NO        [  0]   ***   
       VIB_ALGORIT          IGEALG         STANDARD     [  0]   ***   
       VNATORB              IVNORB         OFF          [  0]   ***   
       VTRAN                IVTRAN         FULL/PARTIAL [  0]   ***   
       XFIELD               IXEFLD              0             x 10-6  
       XFORM_TOL            IXFTOL          10D- 18             ***   
       YFIELD               IYEFLD              0             x 10-6  
       ZFIELD               IZEFLD              0             x 10-6  
    -------------------------------------------------------------------
   4 entries found in Z-matrix 
   Job Title : TITLE                                                                           
 Variable names read by FETCHZ
  1           
  2           
  3           
  4 R1        
  5           
  6           
  7 D         
  8 A90       
  9           
 10 R2        
 11 A90       
 12 D180      
 Atomic symbols read by FETCHZ
  1 Mg   
  2 Cl   
  3 X    
  4 Cl   
 Connectivity matrix read by FETCHZ
  1   0
  2   0
  3   0
  4   1
  5   0
  6   0
  7   1
  8   2
  9   0
 10   1
 11   3
 12   2
   Symbol A     not found in Z-matrix.
   There are  5 unique internal coordinates.
   Of these,  0 will be optimized.
   User supplied Z-matrix: 
--------------------------------------------------------------------------------
       SYMBOL    BOND      LENGTH    ANGLE     ANGLE     DIHED     ANGLE
                  TO      (ANGST)    WRT      (DEG)      WRT      (DEG)
--------------------------------------------------------------------------------
        Mg   
        Cl         1         R1   
        X          1         D          2        A90  
        Cl         1         R2         3        A90        2        D180 
                  *Initial values for internal coordinates* 
                      Name             Value
                        R1              4.1196029517
                        D               1.0000000000
                        A90            90.0000000000
                        R2              4.1196029517
                        D180          180.0000000000
--------------------------------------------------------------------------------
  1  MG        12    23.98504
  2  CL        17    34.96885
  3  X          0     0.00000
  4  CL        17    34.96885
   23.9850423000
   34.9688527210
    0.0000000000
   34.9688527210
 After translation to center of mass coordinates 
       -0.000000000000   -0.000000000000    0.000000000000
       -0.000000000000   -0.000000000000    4.119602951680
        1.000000000000   -0.000000000000    0.000000000000
        0.000000000000    0.000000000000   -4.119602951680
  Inertia tensor (amu*bohr**2)
 1186.92178   -0.00000    0.00000
   -0.00000 1186.92178    0.00000
    0.00000    0.00000    0.00000
    Inertia tensor:
      ****************   -0.000000000000    0.000000000000
       -0.000000000000  ****************    0.000000000000
        0.000000000000    0.000000000000    0.000000000000
    Principal axis orientation for molecular system: 
        0.000000000000   -0.000000000000    0.000000000000
        0.000000000000   -0.000000000000   -4.119602951680
        0.707106781187    0.707106781187   -0.000000000000
       -0.000000000000    0.000000000000    4.119602951680
    Diagonalized inertia tensor:
      ****************    0.000000000000    0.000000000000
        0.000000000000  ****************    0.000000000000
        0.000000000000    0.000000000000    0.000000000000
    Eigenvectors of inertia tensor: 
        0.707106781187    0.707106781187    0.000000000000
       -0.707106781187    0.707106781187   -0.000000000000
        0.000000000000    0.000000000000   -1.000000000000
 factor:   60.1997200000000     
   Rotational constants (in cm-1): 
          0.0507191972             0.0507191972
   Rotational constants (in MHz): 
       1520.5234912698          1520.5234912698
  @SYMMETRY-I, Handedness of inertial frame:-1.00000
  @SYMMETRY-I, Sense of inertial frame y-axis will be changed.
  @SYMMETRY-I, The symmetry group is 2-fold degenerate.
  @SYMMETRY-I, The molecule belongs to a point group with doubly degenerate representations.
  @SYMMETRY-I, The molecule is linear.
   Principal axis orientation for molecule:
        0.000000000000    0.000000000000    0.000000000000
        0.000000000000    0.000000000000   -4.119602951680
        0.707106781187   -0.707106781187   -0.000000000000
       -0.000000000000   -0.000000000000    4.119602951680
   Reflection in plane  3 is a valid symmetry operation.
   Rotation about  3 is a valid symmetry operation 
   Reflection in plane  2 is a valid symmetry operation.
   Rotation about  2 is a valid symmetry operation 
   Reflection in plane  1 is a valid symmetry operation.
   Rotation about  1 is a valid symmetry operation 
   The molecule possesses an inversion center. 
  Symmetry bits:    7   7   1
********************************************************************************
   The full molecular point group is DXh .
   The largest Abelian subgroup of the full molecular point group is D2h .
   The computational point group is D2h .
********************************************************************************
--------------------------------------------------------------------------------
   Analysis of internal coordinates specified by Z-matrix 
--------------------------------------------------------------------------------
   *The nuclear repulsion energy is  134.114866524864254 a.u.
  *WARNING* Parameters R2    and R1    appear to be equivalent.
   *There are   2 degrees of freedom within the tot. symm. molecular subspace.
   *Z-matrix requests optimization of   0 coordinates.
   *The optimization is constrained.
   *The following   1 parameters can have non-zero 
    derivatives within the totally symmetric subspace:
             R2   [ 4]
   *The following   0 parameters are to be optimized:

   *The following coordinates must be varied in an  unconstrained optimization.
             R2   [ 4]
--------------------------------------------------------------------------------
 ----------------------------------------------------------------
 Z-matrix   Atomic            Coordinates (in bohr)
  Symbol    Number           X              Y              Z
 ----------------------------------------------------------------
     MG       12         0.00000000     0.00000000     0.00000000
     CL       17         0.00000000     0.00000000    -4.11960295
     X         0         0.70710678    -0.70710678    -0.00000000
     CL       17        -0.00000000    -0.00000000     4.11960295
 ----------------------------------------------------------------
   Interatomic distance matrix (Angstroms) 
 
                 MG            CL            X             CL   
                [ 1]        [ 2]        [ 3]        [ 4]
  MG   [ 1]     0.00000
  CL   [ 2]     2.18000     0.00000
  X    [ 3]     0.52918     2.24331     0.00000
  CL   [ 4]     2.18000     4.36000     2.24331     0.00000
  Inertia tensor (amu*bohr**2)
 1186.92178   -0.00000    0.00000
   -0.00000 1186.92178    0.00000
    0.00000    0.00000    0.00000
   Rotational constants (in cm-1): 
          0.0507191972             0.0000000000
   Rotational constants (in MHz): 
       1520.5234912698             0.0000000000
  @GTFLGS-W, Keyword #GEOM not known and is ignored.
  @GTFLGS-W, Keyword #COORD not known and is ignored.
  @GTFLGS-W, Keyword #CC_PROG not known and is ignored.
  @GTFLGS-W, Keyword #FROZEN_CORE not known and is ignored.
  @GTFLGS-W, Keyword #CONTRACTION not known and is ignored.
  @GTFLGS-W, Keyword #EXCITE not known and is ignored.
  @GTFLGS-W, Keyword #ESTATE_CONV not known and is ignored.
  @GTFLGS-W, Keyword #ESTATE_SYM not known and is ignored.
  @GTFLGS-W, Keyword #SCF_DAMPING not known and is ignored.
  @GTFLGS-W, Keyword #OCCUPATION not known and is ignored.
  @GTFLGS-W, Keyword #OCCUPATION not known and is ignored.
  There are  116 basis functions.
 @GEOPT-W, Archive file not created for single-point calculation.
  @CHECKOUT-I, Total execution time (CPU/WALL):        0.51/       1.64 seconds.
--executable xjoda finished with status     0 in        7.91 seconds (walltime).
 --invoking executable--
/home/nike/cfour_v2.00beta/cfour_v2.00beta/bin/xvmol
 Serial version of molecule started
********************************************************************************
                    Input from MOL file
********************************************************************************
INTGRL        1    0    1    0    0    0    0    0    0                         
         *** CFOUR Program System (Release V0.1) ***                            
TITLE                                                                           
    2    3 X  Y   Z   0.10E-08              0    0                              
   9999.00      3.00                                                            
         12.00000000    1    3    1    1    1                                   
MG#1   0.000000000000000   0.000000000000000   0.000000000000000                
   14    5                                                                      
   31438.3495550000       6.091231132599999E-004  0.000000000000000E+000        
  0.000000000000000E+000  0.000000000000000E+000  0.000000000000000E+000        
   4715.51533540000       4.706619646500000E-003  0.000000000000000E+000        
  0.000000000000000E+000  0.000000000000000E+000  0.000000000000000E+000        
   1073.16292470000       2.413582065700000E-002  0.000000000000000E+000        
  0.000000000000000E+000  0.000000000000000E+000  0.000000000000000E+000        
   303.572387680000       9.362895983400001E-002  0.000000000000000E+000        
  0.000000000000000E+000  0.000000000000000E+000  0.000000000000000E+000        
   98.6262510420000       0.266467420930000       0.000000000000000E+000        
  0.000000000000000E+000  0.000000000000000E+000  0.000000000000000E+000        
   34.9438084170000       0.478909299170000       0.000000000000000E+000        
  0.000000000000000E+000  0.000000000000000E+000  0.000000000000000E+000        
   12.8597851990000       0.336984902860000       0.000000000000000E+000        
  0.000000000000000E+000  0.000000000000000E+000  0.000000000000000E+000        
   64.8769130040000       0.000000000000000E+000  1.918088930700000E-002        
  0.000000000000000E+000  0.000000000000000E+000  0.000000000000000E+000        
   19.7255207770000       0.000000000000000E+000  9.091370439200000E-002        
  0.000000000000000E+000  0.000000000000000E+000  0.000000000000000E+000        
   2.89518043390000       0.000000000000000E+000 -0.395637561250000             
  0.000000000000000E+000  0.000000000000000E+000  0.000000000000000E+000        
   1.19604547100000       0.000000000000000E+000  0.000000000000000E+000        
   1.68276033730000       0.000000000000000E+000  0.000000000000000E+000        
  0.543294511560000       0.000000000000000E+000  0.000000000000000E+000        
  0.521410919540000       0.000000000000000E+000  0.000000000000000E+000        
  0.100991040920000       0.000000000000000E+000  0.000000000000000E+000        
  0.000000000000000E+000   1.00000000000000       0.000000000000000E+000        
  3.686572808500000E-002  0.000000000000000E+000  0.000000000000000E+000        
  0.000000000000000E+000  0.000000000000000E+000   1.00000000000000             
    8    4                                                                      
   179.871896120000       5.379954901800000E-003  0.000000000000000E+000        
  0.000000000000000E+000  0.000000000000000E+000                                
   42.1200693760000       3.931801409800000E-002  0.000000000000000E+000        
  0.000000000000000E+000  0.000000000000000E+000                                
   13.1205030320000       0.157401294760000       0.000000000000000E+000        
  0.000000000000000E+000  0.000000000000000E+000                                
   4.62575036090000       0.359190941280000       0.000000000000000E+000        
  0.000000000000000E+000  0.000000000000000E+000                                
   1.66952110160000       0.455333793100000       0.000000000000000E+000        
  0.000000000000000E+000  0.000000000000000E+000                                
  0.585510121050000       0.000000000000000E+000  0.219864329100000             
  0.000000000000000E+000  0.000000000000000E+000                                
  0.189147961950000       0.000000000000000E+000  0.000000000000000E+000        
   1.00000000000000       0.000000000000000E+000                                
  5.376875518700000E-002  0.000000000000000E+000  0.000000000000000E+000        
  0.000000000000000E+000   1.00000000000000                                     
    3    3                                                                      
   3.44400000000000        1.00000000000000       0.000000000000000E+000        
  0.000000000000000E+000                                                        
  0.290000000000000       0.000000000000000E+000   1.00000000000000             
  0.000000000000000E+000                                                        
  7.000000000000001E-002  0.000000000000000E+000  0.000000000000000E+000        
   1.00000000000000                                                             
         17.00000000    1    4    1    1    1    1                              
CL#2   0.000000000000000   0.000000000000000  -4.119602951680000                
   14    5                                                                      
   69507.9909450000       5.431489749700000E-004  0.000000000000000E+000        
  0.000000000000000E+000  0.000000000000000E+000  0.000000000000000E+000        
   10426.1568800000       4.199046396100000E-003  0.000000000000000E+000        
  0.000000000000000E+000  0.000000000000000E+000  0.000000000000000E+000        
   2373.23340610000       2.159214167900000E-002  0.000000000000000E+000        
  0.000000000000000E+000  0.000000000000000E+000  0.000000000000000E+000        
   671.564200710000       8.459885009400001E-002  0.000000000000000E+000        
  0.000000000000000E+000  0.000000000000000E+000  0.000000000000000E+000        
   218.419997900000       0.247572497240000       0.000000000000000E+000        
  0.000000000000000E+000  0.000000000000000E+000  0.000000000000000E+000        
   77.5722497140000       0.470169302280000       0.000000000000000E+000        
  0.000000000000000E+000  0.000000000000000E+000  0.000000000000000E+000        
   28.8888152770000       0.374363707160000       0.000000000000000E+000        
  0.000000000000000E+000  0.000000000000000E+000  0.000000000000000E+000        
   127.105271850000       0.000000000000000E+000  2.518216660300000E-002        
  0.000000000000000E+000  0.000000000000000E+000  0.000000000000000E+000        
   39.3395829610000       0.000000000000000E+000  0.107861124560000             
  0.000000000000000E+000  0.000000000000000E+000  0.000000000000000E+000        
   7.67406799890000       0.000000000000000E+000 -0.274088215740000             
  0.000000000000000E+000  0.000000000000000E+000  0.000000000000000E+000        
   3.87456276300000       0.000000000000000E+000  0.000000000000000E+000        
   1.32138750140000       0.000000000000000E+000  0.000000000000000E+000        
   1.83858325730000       0.000000000000000E+000  0.000000000000000E+000        
  0.686369553680000       0.000000000000000E+000  0.000000000000000E+000        
  0.502290575420000       0.000000000000000E+000  0.000000000000000E+000        
  0.000000000000000E+000   1.00000000000000       0.000000000000000E+000        
  0.179627234200000       0.000000000000000E+000  0.000000000000000E+000        
  0.000000000000000E+000  0.000000000000000E+000   1.00000000000000             
    9    5                                                                      
   666.504232840000       2.363266383600000E-003  0.000000000000000E+000        
  0.000000000000000E+000  0.000000000000000E+000  0.000000000000000E+000        
   157.642416900000       1.887930037400000E-002  0.000000000000000E+000        
  0.000000000000000E+000  0.000000000000000E+000  0.000000000000000E+000        
   50.2625209780000       8.720634127300000E-002  0.000000000000000E+000        
  0.000000000000000E+000  0.000000000000000E+000  0.000000000000000E+000        
   18.5360781050000       0.252856129700000       0.000000000000000E+000        
  0.000000000000000E+000  0.000000000000000E+000  0.000000000000000E+000        
   7.29405327770000       0.435071548200000       0.000000000000000E+000        
  0.000000000000000E+000  0.000000000000000E+000  0.000000000000000E+000        
   2.94332489950000       0.000000000000000E+000  0.350265131650000             
  0.000000000000000E+000  0.000000000000000E+000  0.000000000000000E+000        
   1.04049708180000       0.000000000000000E+000  0.000000000000000E+000        
   1.00000000000000       0.000000000000000E+000  0.000000000000000E+000        
  0.384564150800000       0.000000000000000E+000  0.000000000000000E+000        
  0.000000000000000E+000   1.00000000000000       0.000000000000000E+000        
  0.130696427320000       0.000000000000000E+000  0.000000000000000E+000        
  0.000000000000000E+000  0.000000000000000E+000   1.00000000000000             
    3    3                                                                      
  0.339000000000000        1.00000000000000       0.000000000000000E+000        
  0.000000000000000E+000                                                        
   4.61000000000000       0.000000000000000E+000   1.00000000000000             
  0.000000000000000E+000                                                        
   1.01100000000000       0.000000000000000E+000  0.000000000000000E+000        
   1.00000000000000                                                             
    1    1                                                                      
  0.706000000000000        1.00000000000000                                     
FINISH                                                                          
 
********************************************************************************
 One- and two-electron integrals over symmetry-adapted AOs are calculated.

  Spherical harmonics are used.
  
   2 types of atoms
   3 symmetry operations

   Reflection in the YZ-plane
   Reflection in the XZ-plane
   Reflection in the XY-plane
  
  Integrals less than  0.10E-13 are neglected.

  Atomic type number  1 :
  -----------------------

    Nuclear charge:                       12
    number of symmetry independent atoms:  1
    highest orbital type:                  d

      1 groups of CGTOs of s type
      1 groups of CGTOs of p type
      1 groups of CGTOs of d type

    nuclear coordinates (in a.u.) are :

    MG#1        0.000000000000000        0.000000000000000        0.000000000000000
  
   Basis function not normalized: 
   Center (as ordered in MOL file):   1
   Angular Momentum type          : s
   Offset within angular momentum :  1
   <chi|chi>                      :    0.9494021570
   Basis function not normalized: 
   Center (as ordered in MOL file):   1
   Angular Momentum type          : s
   Offset within angular momentum :  2
   <chi|chi>                      :    2.8320342092
   Basis function not normalized: 
   Center (as ordered in MOL file):   1
   Angular Momentum type          : s
   Offset within angular momentum :  3
   <chi|chi>                      :    0.4627677125
   Basis function not normalized: 
   Center (as ordered in MOL file):   1
   Angular Momentum type          : p
   Offset within angular momentum :  1
   <chi|chi>                      :    1.1548886480
   Basis function not normalized: 
   Center (as ordered in MOL file):   1
   Angular Momentum type          : p
   Offset within angular momentum :  2
   <chi|chi>                      :    4.5482593929
  Atomic type number  2 :
  -----------------------

    Nuclear charge:                       17
    number of symmetry independent atoms:  1
    highest orbital type:                  f

      1 groups of CGTOs of s type
      1 groups of CGTOs of p type
      1 groups of CGTOs of d type
      1 groups of CGTOs of f type

    nuclear coordinates (in a.u.) are :

    CL#2        0.000000000000000        0.000000000000000       -4.119602951680000
  
   Basis function not normalized: 
   Center (as ordered in MOL file):   2
   Angular Momentum type          : s
   Offset within angular momentum :  1
   <chi|chi>                      :    0.9473899799
   Basis function not normalized: 
   Center (as ordered in MOL file):   2
   Angular Momentum type          : s
   Offset within angular momentum :  2
   <chi|chi>                      :    4.4847960196
   Basis function not normalized: 
   Center (as ordered in MOL file):   2
   Angular Momentum type          : s
   Offset within angular momentum :  3
   <chi|chi>                      :    0.5092890735
   Basis function not normalized: 
   Center (as ordered in MOL file):   2
   Angular Momentum type          : p
   Offset within angular momentum :  1
   <chi|chi>                      :    1.4176357109
   Basis function not normalized: 
   Center (as ordered in MOL file):   2
   Angular Momentum type          : p
   Offset within angular momentum :  2
   <chi|chi>                      :    2.8549801554
   Internuclear distances (A) :

     for atom MG#1 (coordinates :   0.00000   0.00000   0.00000)

     CL#2   1     distance is  2.180

     for atom CL#2 (coordinates :   0.00000   0.00000  -4.11960)

     CL#2   5     distance is  4.360

   Group multiplication table :

         1   2   3   4   5   6   7   8
         2   1   4   3   6   5   8   7
         3   4   1   2   7   8   5   6
         4   3   2   1   8   7   6   5
         5   6   7   8   1   2   3   4
         6   5   8   7   2   1   4   3
         7   8   5   6   3   4   1   2
         8   7   6   5   4   3   2   1

   Gaussian basis information :

   atom                 exponent      coefficients

 MG#1  1    S   
+                 1   31438.349555   0.0006091   0.0000000   0.0000000   0.0000000   0.0000000
                  2    4715.515335   0.0047066   0.0000000   0.0000000   0.0000000   0.0000000
                  3    1073.162925   0.0241358   0.0000000   0.0000000   0.0000000   0.0000000
                  4     303.572388   0.0936290   0.0000000   0.0000000   0.0000000   0.0000000
                  5      98.626251   0.2664674   0.0000000   0.0000000   0.0000000   0.0000000
                  6      34.943808   0.4789093   0.0000000   0.0000000   0.0000000   0.0000000
                  7      12.859785   0.3369849   0.0000000   0.0000000   0.0000000   0.0000000
                  8      64.876913   0.0000000   0.0191809   0.0000000   0.0000000   0.0000000
                  9      19.725521   0.0000000   0.0909137   0.0000000   0.0000000   0.0000000
                 10       2.895180   0.0000000  -0.3956376   0.0000000   0.0000000   0.0000000
                 11       1.196045   0.0000000   0.0000000   1.6827603   0.0000000   0.0000000
                 12       0.543295   0.0000000   0.0000000   0.5214109   0.0000000   0.0000000
                 13       0.100991   0.0000000   0.0000000   0.0000000   1.0000000   0.0000000
                 14       0.036866   0.0000000   0.0000000   0.0000000   0.0000000   1.0000000

 MG#1  1    X   
+                15     179.871896   0.0053800   0.0000000   0.0000000   0.0000000
                 16      42.120069   0.0393180   0.0000000   0.0000000   0.0000000
                 17      13.120503   0.1574013   0.0000000   0.0000000   0.0000000
                 18       4.625750   0.3591909   0.0000000   0.0000000   0.0000000
                 19       1.669521   0.4553338   0.0000000   0.0000000   0.0000000
                 20       0.585510   0.0000000   0.2198643   0.0000000   0.0000000
                 21       0.189148   0.0000000   0.0000000   1.0000000   0.0000000
                 22       0.053769   0.0000000   0.0000000   0.0000000   1.0000000

 MG#1  1    Y   
+                23     179.871896   0.0053800   0.0000000   0.0000000   0.0000000
                 24      42.120069   0.0393180   0.0000000   0.0000000   0.0000000
                 25      13.120503   0.1574013   0.0000000   0.0000000   0.0000000
                 26       4.625750   0.3591909   0.0000000   0.0000000   0.0000000
                 27       1.669521   0.4553338   0.0000000   0.0000000   0.0000000
                 28       0.585510   0.0000000   0.2198643   0.0000000   0.0000000
                 29       0.189148   0.0000000   0.0000000   1.0000000   0.0000000
                 30       0.053769   0.0000000   0.0000000   0.0000000   1.0000000

 MG#1  1    Z   
+                31     179.871896   0.0053800   0.0000000   0.0000000   0.0000000
                 32      42.120069   0.0393180   0.0000000   0.0000000   0.0000000
                 33      13.120503   0.1574013   0.0000000   0.0000000   0.0000000
                 34       4.625750   0.3591909   0.0000000   0.0000000   0.0000000
                 35       1.669521   0.4553338   0.0000000   0.0000000   0.0000000
                 36       0.585510   0.0000000   0.2198643   0.0000000   0.0000000
                 37       0.189148   0.0000000   0.0000000   1.0000000   0.0000000
                 38       0.053769   0.0000000   0.0000000   0.0000000   1.0000000

 MG#1  1    XX  
+                39       3.444000   1.0000000   0.0000000   0.0000000
                 40       0.290000   0.0000000   1.0000000   0.0000000
                 41       0.070000   0.0000000   0.0000000   1.0000000

 MG#1  1    XY  
+                42       3.444000   1.0000000   0.0000000   0.0000000
                 43       0.290000   0.0000000   1.0000000   0.0000000
                 44       0.070000   0.0000000   0.0000000   1.0000000

 MG#1  1    XZ  
+                45       3.444000   1.0000000   0.0000000   0.0000000
                 46       0.290000   0.0000000   1.0000000   0.0000000
                 47       0.070000   0.0000000   0.0000000   1.0000000

 MG#1  1    YY  
+                48       3.444000   1.0000000   0.0000000   0.0000000
                 49       0.290000   0.0000000   1.0000000   0.0000000
                 50       0.070000   0.0000000   0.0000000   1.0000000

 MG#1  1    YZ  
+                51       3.444000   1.0000000   0.0000000   0.0000000
                 52       0.290000   0.0000000   1.0000000   0.0000000
                 53       0.070000   0.0000000   0.0000000   1.0000000

 MG#1  1    ZZ  
+                54       3.444000   1.0000000   0.0000000   0.0000000
                 55       0.290000   0.0000000   1.0000000   0.0000000
                 56       0.070000   0.0000000   0.0000000   1.0000000

 CL#2  1    S   
+                57   69507.990945   0.0005431   0.0000000   0.0000000   0.0000000   0.0000000
                 58   10426.156880   0.0041990   0.0000000   0.0000000   0.0000000   0.0000000
                 59    2373.233406   0.0215921   0.0000000   0.0000000   0.0000000   0.0000000
                 60     671.564201   0.0845989   0.0000000   0.0000000   0.0000000   0.0000000
                 61     218.419998   0.2475725   0.0000000   0.0000000   0.0000000   0.0000000
                 62      77.572250   0.4701693   0.0000000   0.0000000   0.0000000   0.0000000
                 63      28.888815   0.3743637   0.0000000   0.0000000   0.0000000   0.0000000
                 64     127.105272   0.0000000   0.0251822   0.0000000   0.0000000   0.0000000
                 65      39.339583   0.0000000   0.1078611   0.0000000   0.0000000   0.0000000
                 66       7.674068   0.0000000  -0.2740882   0.0000000   0.0000000   0.0000000
                 67       3.874563   0.0000000   0.0000000   1.3213875   0.0000000   0.0000000
                 68       1.838583   0.0000000   0.0000000   0.6863696   0.0000000   0.0000000
                 69       0.502291   0.0000000   0.0000000   0.0000000   1.0000000   0.0000000
                 70       0.179627   0.0000000   0.0000000   0.0000000   0.0000000   1.0000000

 CL#2  5    S   
+                71   69507.990945   0.0005431   0.0000000   0.0000000   0.0000000   0.0000000
                 72   10426.156880   0.0041990   0.0000000   0.0000000   0.0000000   0.0000000
                 73    2373.233406   0.0215921   0.0000000   0.0000000   0.0000000   0.0000000
                 74     671.564201   0.0845989   0.0000000   0.0000000   0.0000000   0.0000000
                 75     218.419998   0.2475725   0.0000000   0.0000000   0.0000000   0.0000000
                 76      77.572250   0.4701693   0.0000000   0.0000000   0.0000000   0.0000000
                 77      28.888815   0.3743637   0.0000000   0.0000000   0.0000000   0.0000000
                 78     127.105272   0.0000000   0.0251822   0.0000000   0.0000000   0.0000000
                 79      39.339583   0.0000000   0.1078611   0.0000000   0.0000000   0.0000000
                 80       7.674068   0.0000000  -0.2740882   0.0000000   0.0000000   0.0000000
                 81       3.874563   0.0000000   0.0000000   1.3213875   0.0000000   0.0000000
                 82       1.838583   0.0000000   0.0000000   0.6863696   0.0000000   0.0000000
                 83       0.502291   0.0000000   0.0000000   0.0000000   1.0000000   0.0000000
                 84       0.179627   0.0000000   0.0000000   0.0000000   0.0000000   1.0000000

 CL#2  1    X   
+                85     666.504233   0.0023633   0.0000000   0.0000000   0.0000000   0.0000000
                 86     157.642417   0.0188793   0.0000000   0.0000000   0.0000000   0.0000000
                 87      50.262521   0.0872063   0.0000000   0.0000000   0.0000000   0.0000000
                 88      18.536078   0.2528561   0.0000000   0.0000000   0.0000000   0.0000000
                 89       7.294053   0.4350715   0.0000000   0.0000000   0.0000000   0.0000000
                 90       2.943325   0.0000000   0.3502651   0.0000000   0.0000000   0.0000000
                 91       1.040497   0.0000000   0.0000000   1.0000000   0.0000000   0.0000000
                 92       0.384564   0.0000000   0.0000000   0.0000000   1.0000000   0.0000000
                 93       0.130696   0.0000000   0.0000000   0.0000000   0.0000000   1.0000000

 CL#2  5    X   
+                94     666.504233   0.0023633   0.0000000   0.0000000   0.0000000   0.0000000
                 95     157.642417   0.0188793   0.0000000   0.0000000   0.0000000   0.0000000
                 96      50.262521   0.0872063   0.0000000   0.0000000   0.0000000   0.0000000
                 97      18.536078   0.2528561   0.0000000   0.0000000   0.0000000   0.0000000
                 98       7.294053   0.4350715   0.0000000   0.0000000   0.0000000   0.0000000
                 99       2.943325   0.0000000   0.3502651   0.0000000   0.0000000   0.0000000
                100       1.040497   0.0000000   0.0000000   1.0000000   0.0000000   0.0000000
                101       0.384564   0.0000000   0.0000000   0.0000000   1.0000000   0.0000000
                102       0.130696   0.0000000   0.0000000   0.0000000   0.0000000   1.0000000

 CL#2  1    Y   
+               103     666.504233   0.0023633   0.0000000   0.0000000   0.0000000   0.0000000
                104     157.642417   0.0188793   0.0000000   0.0000000   0.0000000   0.0000000
                105      50.262521   0.0872063   0.0000000   0.0000000   0.0000000   0.0000000
                106      18.536078   0.2528561   0.0000000   0.0000000   0.0000000   0.0000000
                107       7.294053   0.4350715   0.0000000   0.0000000   0.0000000   0.0000000
                108       2.943325   0.0000000   0.3502651   0.0000000   0.0000000   0.0000000
                109       1.040497   0.0000000   0.0000000   1.0000000   0.0000000   0.0000000
                110       0.384564   0.0000000   0.0000000   0.0000000   1.0000000   0.0000000
                111       0.130696   0.0000000   0.0000000   0.0000000   0.0000000   1.0000000

 CL#2  5    Y   
+               112     666.504233   0.0023633   0.0000000   0.0000000   0.0000000   0.0000000
                113     157.642417   0.0188793   0.0000000   0.0000000   0.0000000   0.0000000
                114      50.262521   0.0872063   0.0000000   0.0000000   0.0000000   0.0000000
                115      18.536078   0.2528561   0.0000000   0.0000000   0.0000000   0.0000000
                116       7.294053   0.4350715   0.0000000   0.0000000   0.0000000   0.0000000
                117       2.943325   0.0000000   0.3502651   0.0000000   0.0000000   0.0000000
                118       1.040497   0.0000000   0.0000000   1.0000000   0.0000000   0.0000000
                119       0.384564   0.0000000   0.0000000   0.0000000   1.0000000   0.0000000
                120       0.130696   0.0000000   0.0000000   0.0000000   0.0000000   1.0000000

 CL#2  1    Z   
+               121     666.504233   0.0023633   0.0000000   0.0000000   0.0000000   0.0000000
                122     157.642417   0.0188793   0.0000000   0.0000000   0.0000000   0.0000000
                123      50.262521   0.0872063   0.0000000   0.0000000   0.0000000   0.0000000
                124      18.536078   0.2528561   0.0000000   0.0000000   0.0000000   0.0000000
                125       7.294053   0.4350715   0.0000000   0.0000000   0.0000000   0.0000000
                126       2.943325   0.0000000   0.3502651   0.0000000   0.0000000   0.0000000
                127       1.040497   0.0000000   0.0000000   1.0000000   0.0000000   0.0000000
                128       0.384564   0.0000000   0.0000000   0.0000000   1.0000000   0.0000000
                129       0.130696   0.0000000   0.0000000   0.0000000   0.0000000   1.0000000

 CL#2  5    Z   
+               130     666.504233   0.0023633   0.0000000   0.0000000   0.0000000   0.0000000
                131     157.642417   0.0188793   0.0000000   0.0000000   0.0000000   0.0000000
                132      50.262521   0.0872063   0.0000000   0.0000000   0.0000000   0.0000000
                133      18.536078   0.2528561   0.0000000   0.0000000   0.0000000   0.0000000
                134       7.294053   0.4350715   0.0000000   0.0000000   0.0000000   0.0000000
                135       2.943325   0.0000000   0.3502651   0.0000000   0.0000000   0.0000000
                136       1.040497   0.0000000   0.0000000   1.0000000   0.0000000   0.0000000
                137       0.384564   0.0000000   0.0000000   0.0000000   1.0000000   0.0000000
                138       0.130696   0.0000000   0.0000000   0.0000000   0.0000000   1.0000000

 CL#2  1    XX  
+               139       0.339000   1.0000000   0.0000000   0.0000000
                140       4.610000   0.0000000   1.0000000   0.0000000
                141       1.011000   0.0000000   0.0000000   1.0000000

 CL#2  5    XX  
+               142       0.339000   1.0000000   0.0000000   0.0000000
                143       4.610000   0.0000000   1.0000000   0.0000000
                144       1.011000   0.0000000   0.0000000   1.0000000

 CL#2  1    XY  
+               145       0.339000   1.0000000   0.0000000   0.0000000
                146       4.610000   0.0000000   1.0000000   0.0000000
                147       1.011000   0.0000000   0.0000000   1.0000000

 CL#2  5    XY  
+               148       0.339000   1.0000000   0.0000000   0.0000000
                149       4.610000   0.0000000   1.0000000   0.0000000
                150       1.011000   0.0000000   0.0000000   1.0000000

 CL#2  1    XZ  
+               151       0.339000   1.0000000   0.0000000   0.0000000
                152       4.610000   0.0000000   1.0000000   0.0000000
                153       1.011000   0.0000000   0.0000000   1.0000000

 CL#2  5    XZ  
+               154       0.339000   1.0000000   0.0000000   0.0000000
                155       4.610000   0.0000000   1.0000000   0.0000000
                156       1.011000   0.0000000   0.0000000   1.0000000

 CL#2  1    YY  
+               157       0.339000   1.0000000   0.0000000   0.0000000
                158       4.610000   0.0000000   1.0000000   0.0000000
                159       1.011000   0.0000000   0.0000000   1.0000000

 CL#2  5    YY  
+               160       0.339000   1.0000000   0.0000000   0.0000000
                161       4.610000   0.0000000   1.0000000   0.0000000
                162       1.011000   0.0000000   0.0000000   1.0000000

 CL#2  1    YZ  
+               163       0.339000   1.0000000   0.0000000   0.0000000
                164       4.610000   0.0000000   1.0000000   0.0000000
                165       1.011000   0.0000000   0.0000000   1.0000000

 CL#2  5    YZ  
+               166       0.339000   1.0000000   0.0000000   0.0000000
                167       4.610000   0.0000000   1.0000000   0.0000000
                168       1.011000   0.0000000   0.0000000   1.0000000

 CL#2  1    ZZ  
+               169       0.339000   1.0000000   0.0000000   0.0000000
                170       4.610000   0.0000000   1.0000000   0.0000000
                171       1.011000   0.0000000   0.0000000   1.0000000

 CL#2  5    ZZ  
+               172       0.339000   1.0000000   0.0000000   0.0000000
                173       4.610000   0.0000000   1.0000000   0.0000000
                174       1.011000   0.0000000   0.0000000   1.0000000

 CL#2  1    F300
+               175       0.706000   1.0000000

 CL#2  5    F300
+               176       0.706000   1.0000000

 CL#2  1    F210
+               177       0.706000   1.0000000

 CL#2  5    F210
+               178       0.706000   1.0000000

 CL#2  1    F201
+               179       0.706000   1.0000000

 CL#2  5    F201
+               180       0.706000   1.0000000

 CL#2  1    F120
+               181       0.706000   1.0000000

 CL#2  5    F120
+               182       0.706000   1.0000000

 CL#2  1    F111
+               183       0.706000   1.0000000

 CL#2  5    F111
+               184       0.706000   1.0000000

 CL#2  1    F102
+               185       0.706000   1.0000000

 CL#2  5    F102
+               186       0.706000   1.0000000

 CL#2  1    F030
+               187       0.706000   1.0000000

 CL#2  5    F030
+               188       0.706000   1.0000000

 CL#2  1    F021
+               189       0.706000   1.0000000

 CL#2  5    F021
+               190       0.706000   1.0000000

 CL#2  1    F012
+               191       0.706000   1.0000000

 CL#2  5    F012
+               192       0.706000   1.0000000

 CL#2  1    F003
+               193       0.706000   1.0000000

 CL#2  5    F003
+               194       0.706000   1.0000000
131116
  1  2  3  4  5  6  7  8  9 10 11********* 12 13 14 15 16 17 18 19 20 21 22
 23 24 25 26 27********* 28 29*** 30 31 32 33 34 35 36 37 38 39 40 41 42 43
*** 44 45 46 47 48 49 50 51 52 53 54 55 56 57*** 58 59 60 61 62 63 64 65 66
 67 68 69 70 71 72 73 74 75 76 77 78 79 80 81 82 83 84********* 85 86*** 87
 88 89 90 91 92 93 94 95 96 97 98 99***100101102103104105106107108109110111
112***113114115116
1

             SYMMETRY TRANSFORMATION INFO
            116 SYMMETRY ADAPTED BASIS FUNCTIONS 


          irreducible representation number 1

    1    1  MG#1     1s     1   1   1.0
    2    2  MG#1     1s     1   2   1.0
    3    3  MG#1     1s     1   3   1.0
    4    4  MG#1     1s     1   4   1.0
    5    5  MG#1     1s     1   5   1.0
    6    6  MG#1     3d2-   3  18  -1.0  27  -1.0  33   2.0
    7    7  MG#1     3d2-   3  19  -1.0  28  -1.0  34   2.0
    8    8  MG#1     3d2-   3  20  -1.0  29  -1.0  35   2.0
    9    9  MG#1     3d1+   2  18   1.0  27  -1.0
   10   10  MG#1     3d1+   2  19   1.0  28  -1.0
   11   11  MG#1     3d1+   2  20   1.0  29  -1.0
   12   12  CL#2     1s     2  36   1.0  37   1.0
   13   13  CL#2     1s     2  38   1.0  39   1.0
   14   14  CL#2     1s     2  40   1.0  41   1.0
   15   15  CL#2     1s     2  42   1.0  43   1.0
   16   16  CL#2     1s     2  44   1.0  45   1.0
   17   17  CL#2     2pz    2  66   1.0  67  -1.0
   18   18  CL#2     2pz    2  68   1.0  69  -1.0
   19   19  CL#2     2pz    2  70   1.0  71  -1.0
   20   20  CL#2     2pz    2  72   1.0  73  -1.0
   21   21  CL#2     2pz    2  74   1.0  75  -1.0
   22   22  CL#2     3d2-   6  76  -1.0  94  -1.0 106   2.0  77  -1.0  95  -1.0 107   2.0
   23   23  CL#2     3d2-   6  78  -1.0  96  -1.0 108   2.0  79  -1.0  97  -1.0 109   2.0
   24   24  CL#2     3d2-   6  80  -1.0  98  -1.0 110   2.0  81  -1.0  99  -1.0 111   2.0
   25   25  CL#2     3d1+   4  76   1.0  94  -1.0  77   1.0  95  -1.0
   26   26  CL#2     3d1+   4  78   1.0  96  -1.0  79   1.0  97  -1.0
   27   27  CL#2     3d1+   4  80   1.0  98  -1.0  81   1.0  99  -1.0
   28   28  CL#2     4f1-   6 116  -3.0 126  -3.0 130   2.0 117   3.0 127   3.0 131  -2.0
   29   29  CL#2     4f3+   4 116   1.0 126  -1.0 117  -1.0 127   1.0


          irreducible representation number 2

   30    1  MG#1     2px    1   6   1.0
   31    2  MG#1     2px    1   7   1.0
   32    3  MG#1     2px    1   8   1.0
   33    4  MG#1     2px    1   9   1.0
   34    5  CL#2     2px    2  46   1.0  47   1.0
   35    6  CL#2     2px    2  48   1.0  49   1.0
   36    7  CL#2     2px    2  50   1.0  51   1.0
   37    8  CL#2     2px    2  52   1.0  53   1.0
   38    9  CL#2     2px    2  54   1.0  55   1.0
   39   10  CL#2     3d0    2  88   1.0  89  -1.0
   40   11  CL#2     3d0    2  90   1.0  91  -1.0
   41   12  CL#2     3d0    2  92   1.0  93  -1.0
   42   13  CL#2     4f3-   6 112  -1.0 118  -1.0 122   4.0 113  -1.0 119  -1.0 123   4.0
   43   14  CL#2     4f0    4 112   1.0 118  -3.0 113   1.0 119  -3.0


          irreducible representation number 3

   44    1  MG#1     2py    1  10   1.0
   45    2  MG#1     2py    1  11   1.0
   46    3  MG#1     2py    1  12   1.0
   47    4  MG#1     2py    1  13   1.0
   48    5  CL#2     2py    2  56   1.0  57   1.0
   49    6  CL#2     2py    2  58   1.0  59   1.0
   50    7  CL#2     2py    2  60   1.0  61   1.0
   51    8  CL#2     2py    2  62   1.0  63   1.0
   52    9  CL#2     2py    2  64   1.0  65   1.0
   53   10  CL#2     3d2+   2 100   1.0 101  -1.0
   54   11  CL#2     3d2+   2 102   1.0 103  -1.0
   55   12  CL#2     3d2+   2 104   1.0 105  -1.0
   56   13  CL#2     4f2-   6 114  -1.0 124  -1.0 128   4.0 115  -1.0 125  -1.0 129   4.0
   57   14  CL#2     4f2+   4 114   3.0 124  -1.0 115   3.0 125  -1.0


          irreducible representation number 4

   58    1  MG#1     3d1-   1  21   1.0
   59    2  MG#1     3d1-   1  22   1.0
   60    3  MG#1     3d1-   1  23   1.0
   61    4  CL#2     3d1-   2  82   1.0  83   1.0
   62    5  CL#2     3d1-   2  84   1.0  85   1.0
   63    6  CL#2     3d1-   2  86   1.0  87   1.0
   64    7  CL#2     4f1+   2 120   1.0 121  -1.0


          irreducible representation number 5

   65    1  MG#1     2pz    1  14   1.0
   66    2  MG#1     2pz    1  15   1.0
   67    3  MG#1     2pz    1  16   1.0
   68    4  MG#1     2pz    1  17   1.0
   69    5  CL#2     1s     2  36   1.0  37  -1.0
   70    6  CL#2     1s     2  38   1.0  39  -1.0
   71    7  CL#2     1s     2  40   1.0  41  -1.0
   72    8  CL#2     1s     2  42   1.0  43  -1.0
   73    9  CL#2     1s     2  44   1.0  45  -1.0
   74   10  CL#2     2pz    2  66   1.0  67   1.0
   75   11  CL#2     2pz    2  68   1.0  69   1.0
   76   12  CL#2     2pz    2  70   1.0  71   1.0
   77   13  CL#2     2pz    2  72   1.0  73   1.0
   78   14  CL#2     2pz    2  74   1.0  75   1.0
   79   15  CL#2     3d2-   6  76  -1.0  94  -1.0 106   2.0  77   1.0  95   1.0 107  -2.0
   80   16  CL#2     3d2-   6  78  -1.0  96  -1.0 108   2.0  79   1.0  97   1.0 109  -2.0
   81   17  CL#2     3d2-   6  80  -1.0  98  -1.0 110   2.0  81   1.0  99   1.0 111  -2.0
   82   18  CL#2     3d1+   4  76   1.0  94  -1.0  77  -1.0  95   1.0
   83   19  CL#2     3d1+   4  78   1.0  96  -1.0  79  -1.0  97   1.0
   84   20  CL#2     3d1+   4  80   1.0  98  -1.0  81  -1.0  99   1.0
   85   21  CL#2     4f1-   6 116  -3.0 126  -3.0 130   2.0 117  -3.0 127  -3.0 131   2.0
   86   22  CL#2     4f3+   4 116   1.0 126  -1.0 117   1.0 127  -1.0


          irreducible representation number 6

   87    1  MG#1     3d0    1  24   1.0
   88    2  MG#1     3d0    1  25   1.0
   89    3  MG#1     3d0    1  26   1.0
   90    4  CL#2     2px    2  46   1.0  47  -1.0
   91    5  CL#2     2px    2  48   1.0  49  -1.0
   92    6  CL#2     2px    2  50   1.0  51  -1.0
   93    7  CL#2     2px    2  52   1.0  53  -1.0
   94    8  CL#2     2px    2  54   1.0  55  -1.0
   95    9  CL#2     3d0    2  88   1.0  89   1.0
   96   10  CL#2     3d0    2  90   1.0  91   1.0
   97   11  CL#2     3d0    2  92   1.0  93   1.0
   98   12  CL#2     4f3-   6 112  -1.0 118  -1.0 122   4.0 113   1.0 119   1.0 123  -4.0
   99   13  CL#2     4f0    4 112   1.0 118  -3.0 113  -1.0 119   3.0


          irreducible representation number 7

  100    1  MG#1     3d2+   1  30   1.0
  101    2  MG#1     3d2+   1  31   1.0
  102    3  MG#1     3d2+   1  32   1.0
  103    4  CL#2     2py    2  56   1.0  57  -1.0
  104    5  CL#2     2py    2  58   1.0  59  -1.0
  105    6  CL#2     2py    2  60   1.0  61  -1.0
  106    7  CL#2     2py    2  62   1.0  63  -1.0
  107    8  CL#2     2py    2  64   1.0  65  -1.0
  108    9  CL#2     3d2+   2 100   1.0 101   1.0
  109   10  CL#2     3d2+   2 102   1.0 103   1.0
  110   11  CL#2     3d2+   2 104   1.0 105   1.0
  111   12  CL#2     4f2-   6 114  -1.0 124  -1.0 128   4.0 115   1.0 125   1.0 129  -4.0
  112   13  CL#2     4f2+   4 114   3.0 124  -1.0 115  -3.0 125   1.0


          irreducible representation number 8

  113    1  CL#2     3d1-   2  82   1.0  83  -1.0
  114    2  CL#2     3d1-   2  84   1.0  85  -1.0
  115    3  CL#2     3d1-   2  86   1.0  87  -1.0
  116    4  CL#2     4f1+   2 120   1.0 121   1.0
  Nuclear repulsion energy :  134.1148665249 a.u.
  required memory for a1 array                5411750  words 
  required memory for a2 array                2269589  words 
 @GETMEM-I,  Allocated      73 MB of main memory.
  @MOLECU-I, One electron integrals (CPU/WALL):        0.03/       0.04 seconds.
  @TWOEL-I,      85223 integrals of symmetry type  I I I I
  @TWOEL-I,     674842 integrals of symmetry type  I J I J
  @TWOEL-I,     384198 integrals of symmetry type  I I J J
  @TWOEL-I,    1312415 integrals of symmetry type  I J K L
  @TWOEL-I, Total number of 2-e integrals    2456678.
  @MOLECU-I, Two electron integrals (CPU/WALL):        1.37/       1.45 seconds.
  @CHECKOUT-I, Total execution time (CPU/WALL):        1.81/       2.20 seconds.
--executable xvmol finished with status     0 in        2.28 seconds (walltime).
 --invoking executable--
/home/nike/cfour_v2.00beta/cfour_v2.00beta/bin/xvmol2ja
 @GETMEM-I,  Allocated    1907 MB of main memory.
  @CHECKOUT-I, Total execution time (CPU/WALL):        0.02/       0.03 seconds.
--executable xvmol2ja finished with status     0 in        0.12 seconds (walltime).
 --invoking executable--
/home/nike/cfour_v2.00beta/cfour_v2.00beta/bin/xvscf
  There are  116 functions in the AO basis.

  There are 8 irreducible representations.

       Irrep        # of functions
         1                 29
         2                 14
         3                 14
         4                  7
         5                 22
         6                 13
         7                 13
         8                  4


  Parameters for SCF calculation: 
        SCF reference function:  RHF  
  Maximum number of iterations: ****
     Full symmetry point group: DXh 
     Computational point group: D2h 
        Initial density matrix: MOREAD                 
     SCF convergence tolerance: 10**(-13)
  DIIS convergence acceleration:  ON
          Latest start for DIIS:   5
                     DIIS order:   6

  Memory information:     582093 words required.
  Fock matrices are constructed from AO integral file.
 @GETMEM-I,  Allocated       4 MB of main memory.
  Initialization and symmetry analysis required      0.025 seconds.

  @INITGES-I, Occupancies from core Hamiltonian:

          Alpha population by irrep:   7    3    3    1    5    2    2    0
           Beta population by irrep:   7    3    3    1    5    2    2    0


 total no. of electrons in initial guess :  0.000000000000000E+000
  --------------------------------------------------------------------
  Iteration         Total Energy            Largest Density Difference
  --------------------------------------------------------------------
       0           134.114866524864254              0.0000000000D+00
   current occupation vector 
     7  3  3  1  5  2  2  0
     7  3  3  1  5  2  2  0
  processed                  85223  ao basis integrals from 
                   143  buffers.
  processed                 384198  ao basis integrals from 
                   641  buffers.
  processed                 674842  ao basis integrals from 
                  1125  buffers.
       1          -994.931640966444775              0.2561846028D+01
   current occupation vector 
     7  3  3  1  5  2  2  0
     7  3  3  1  5  2  2  0
  processed                  85223  ao basis integrals from 
                   143  buffers.
  processed                 384198  ao basis integrals from 
                   641  buffers.
  processed                 674842  ao basis integrals from 
                  1125  buffers.
       2         -1076.696730725843508              0.7365100719D+01
   current occupation vector 
     8  3  3  1  5  2  1  0
     8  3  3  1  5  2  1  0
  processed                  85223  ao basis integrals from 
                   143  buffers.
  processed                 384198  ao basis integrals from 
                   641  buffers.
  processed                 674842  ao basis integrals from 
                  1125  buffers.
       3         -1107.832165193929086              0.7347390454D+01
   current occupation vector 
     7  3  3  0  6  2  2  0
     7  3  3  0  6  2  2  0
  processed                  85223  ao basis integrals from 
                   143  buffers.
  processed                 384198  ao basis integrals from 
                   641  buffers.
  processed                 674842  ao basis integrals from 
                  1125  buffers.
       4         -1110.251688525534746              0.6233702288D+01
   current occupation vector 
     8  3  3  0  5  2  2  0
     8  3  3  0  5  2  2  0
 
 sum over diagonal and offdiagdiagonal of C(T)*S*C for irrep
                     1
  1.074695887837152E-013  4.539010071842921E-013
 reorthoganalization of MOs is carried out
 sum over diagonal and offdiagdiagonal of C(T)*S*C for irrep
                     1
  3.552713678800501E-015  6.476833733128551E-015
 
 sum over diagonal and offdiagdiagonal of C(T)*S*C for irrep
                     2
  1.498801083243961E-014 -8.727951618354099E-015
 reorthoganalization of MOs is carried out
 sum over diagonal and offdiagdiagonal of C(T)*S*C for irrep
                     2
  5.551115123125783E-016  5.963252045616296E-016
 
 sum over diagonal and offdiagdiagonal of C(T)*S*C for irrep
                     3
  3.075317778211684E-014 -5.351805126989838E-015
 reorthoganalization of MOs is carried out
 sum over diagonal and offdiagdiagonal of C(T)*S*C for irrep
                     3
  1.332267629550188E-015  1.091471507925563E-016
 
 sum over diagonal and offdiagdiagonal of C(T)*S*C for irrep
                     4
  7.993605777301127E-015  5.147572012414647E-015
 reorthoganalization of MOs is carried out
 sum over diagonal and offdiagdiagonal of C(T)*S*C for irrep
                     4
  0.000000000000000E+000  1.193848060524184E-016
 
 sum over diagonal and offdiagdiagonal of C(T)*S*C for irrep
                     5
  1.376676550535194E-014  3.787607479585354E-014
 reorthoganalization of MOs is carried out
 sum over diagonal and offdiagdiagonal of C(T)*S*C for irrep
                     5
 -5.551115123125783E-016 -1.039839501824811E-015
 
 sum over diagonal and offdiagdiagonal of C(T)*S*C for irrep
                     6
 -4.951594689828198E-014 -1.824139341955914E-013
 reorthoganalization of MOs is carried out
 sum over diagonal and offdiagdiagonal of C(T)*S*C for irrep
                     6
  1.443289932012704E-015  1.987495091081988E-015
 
 sum over diagonal and offdiagdiagonal of C(T)*S*C for irrep
                     7
  6.428191312579656E-014  3.450289484601628E-014
 reorthoganalization of MOs is carried out
 sum over diagonal and offdiagdiagonal of C(T)*S*C for irrep
                     7
  1.665334536937735E-015 -4.716308731399056E-017
 
 sum over diagonal and offdiagdiagonal of C(T)*S*C for irrep
                     8
  7.771561172376096E-016  1.452357450726547E-015
 reorthoganalization of MOs is carried out
 sum over diagonal and offdiagdiagonal of C(T)*S*C for irrep
                     8
  3.330669073875470E-016  7.043421245560305E-016
  processed                  85223  ao basis integrals from 
                   143  buffers.
  processed                 384198  ao basis integrals from 
                   641  buffers.
  processed                 674842  ao basis integrals from 
                  1125  buffers.
       5         -1116.231855552854995              0.6245754350D+01
   current occupation vector 
     7  3  3  0  6  2  2  0
     7  3  3  0  6  2  2  0
  processed                  85223  ao basis integrals from 
                   143  buffers.
  processed                 384198  ao basis integrals from 
                   641  buffers.
  processed                 674842  ao basis integrals from 
                  1125  buffers.
       6         -1118.745330738652683              0.5896078873D+00
   current occupation vector 
     7  3  3  0  6  2  2  0
     7  3  3  0  6  2  2  0
  processed                  85223  ao basis integrals from 
                   143  buffers.
  processed                 384198  ao basis integrals from 
                   641  buffers.
  processed                 674842  ao basis integrals from 
                  1125  buffers.
       7         -1118.797760802558969              0.7330537795D-01
   current occupation vector 
     7  3  3  0  6  2  2  0
     7  3  3  0  6  2  2  0
  processed                  85223  ao basis integrals from 
                   143  buffers.
  processed                 384198  ao basis integrals from 
                   641  buffers.
  processed                 674842  ao basis integrals from 
                  1125  buffers.
       8         -1118.799824240286853              0.1352098045D-01
   current occupation vector 
     7  3  3  0  6  2  2  0
     7  3  3  0  6  2  2  0
  processed                  85223  ao basis integrals from 
                   143  buffers.
  processed                 384198  ao basis integrals from 
                   641  buffers.
  processed                 674842  ao basis integrals from 
                  1125  buffers.
       9         -1118.800080032836377              0.6270085259D-02
   current occupation vector 
     7  3  3  0  6  2  2  0
     7  3  3  0  6  2  2  0
 
 sum over diagonal and offdiagdiagonal of C(T)*S*C for irrep
                     1
  1.635358515272856E-013  4.262303351460174E-013
 reorthoganalization of MOs is carried out
 sum over diagonal and offdiagdiagonal of C(T)*S*C for irrep
                     1
 -6.217248937900877E-015 -1.104370553579609E-014
 
 sum over diagonal and offdiagdiagonal of C(T)*S*C for irrep
                     2
  2.908784324517910E-014 -6.261099919611747E-016
 reorthoganalization of MOs is carried out
 sum over diagonal and offdiagdiagonal of C(T)*S*C for irrep
                     2
 -1.887379141862766E-015 -2.699884889186941E-015
 
 sum over diagonal and offdiagdiagonal of C(T)*S*C for irrep
                     3
  3.619327060278010E-014  1.656507421924501E-014
 reorthoganalization of MOs is carried out
 sum over diagonal and offdiagdiagonal of C(T)*S*C for irrep
                     3
  1.332267629550188E-015  1.255574550416813E-015
 
 sum over diagonal and offdiagdiagonal of C(T)*S*C for irrep
                     4
  7.771561172376096E-015  6.692166526156016E-015
 reorthoganalization of MOs is carried out
 sum over diagonal and offdiagdiagonal of C(T)*S*C for irrep
                     4
 -2.220446049250313E-016  1.238697802732497E-016
 
 sum over diagonal and offdiagdiagonal of C(T)*S*C for irrep
                     5
  4.440892098500626E-016  3.425945310172557E-014
 reorthoganalization of MOs is carried out
 sum over diagonal and offdiagdiagonal of C(T)*S*C for irrep
                     5
 -3.663735981263017E-015 -3.675599490830112E-015
 
 sum over diagonal and offdiagdiagonal of C(T)*S*C for irrep
                     6
 -2.919886554764162E-014  3.581504234965809E-014
 reorthoganalization of MOs is carried out
 sum over diagonal and offdiagdiagonal of C(T)*S*C for irrep
                     6
  6.661338147750939E-016 -2.676923305095230E-015
 
 sum over diagonal and offdiagdiagonal of C(T)*S*C for irrep
                     7
  5.240252676230739E-014 -5.344272503021250E-014
 reorthoganalization of MOs is carried out
 sum over diagonal and offdiagdiagonal of C(T)*S*C for irrep
                     7
  7.771561172376096E-016  2.592764026626212E-016
 
 sum over diagonal and offdiagdiagonal of C(T)*S*C for irrep
                     8
  5.107025913275720E-015 -2.623058837696653E-015
 reorthoganalization of MOs is carried out
 sum over diagonal and offdiagdiagonal of C(T)*S*C for irrep
                     8
  1.110223024625157E-016 -4.781385291646748E-016
  processed                  85223  ao basis integrals from 
                   143  buffers.
  processed                 384198  ao basis integrals from 
                   641  buffers.
  processed                 674842  ao basis integrals from 
                  1125  buffers.
      10         -1118.800097290799158              0.1329049785D-02
   current occupation vector 
     7  3  3  0  6  2  2  0
     7  3  3  0  6  2  2  0
  processed                  85223  ao basis integrals from 
                   143  buffers.
  processed                 384198  ao basis integrals from 
                   641  buffers.
  processed                 674842  ao basis integrals from 
                  1125  buffers.
      11         -1118.800098917061405              0.1023123199D-02
   current occupation vector 
     7  3  3  0  6  2  2  0
     7  3  3  0  6  2  2  0
  processed                  85223  ao basis integrals from 
                   143  buffers.
  processed                 384198  ao basis integrals from 
                   641  buffers.
  processed                 674842  ao basis integrals from 
                  1125  buffers.
      12         -1118.800098979234463              0.2582872693D-03
   current occupation vector 
     7  3  3  0  6  2  2  0
     7  3  3  0  6  2  2  0
  processed                  85223  ao basis integrals from 
                   143  buffers.
  processed                 384198  ao basis integrals from 
                   641  buffers.
  processed                 674842  ao basis integrals from 
                  1125  buffers.
      13         -1118.800098983138923              0.7521296809D-04
   current occupation vector 
     7  3  3  0  6  2  2  0
     7  3  3  0  6  2  2  0
  processed                  85223  ao basis integrals from 
                   143  buffers.
  processed                 384198  ao basis integrals from 
                   641  buffers.
  processed                 674842  ao basis integrals from 
                  1125  buffers.
      14         -1118.800098983280805              0.6126646753D-05
   current occupation vector 
     7  3  3  0  6  2  2  0
     7  3  3  0  6  2  2  0
 
 sum over diagonal and offdiagdiagonal of C(T)*S*C for irrep
                     1
  1.544320227253593E-013  3.722162347435166E-013
 reorthoganalization of MOs is carried out
 sum over diagonal and offdiagdiagonal of C(T)*S*C for irrep
                     1
 -2.886579864025407E-015 -1.236060342773780E-014
 
 sum over diagonal and offdiagdiagonal of C(T)*S*C for irrep
                     2
  2.775557561562891E-015 -5.679675863759067E-015
 reorthoganalization of MOs is carried out
 sum over diagonal and offdiagdiagonal of C(T)*S*C for irrep
                     2
  9.992007221626409E-016 -6.258387822809015E-016
 
 sum over diagonal and offdiagdiagonal of C(T)*S*C for irrep
                     3
  2.386979502944087E-014  1.954343404246138E-014
 reorthoganalization of MOs is carried out
[...]
   The AB contribution to the correlation energy is:   -0.4348750 a.u.
   The total correlation energy is -0.570547876612 a.u.
   The total correlation energy is -0.570547876612 a.u.
  Current DIIS expansion coefficients : 
 [   1] 1.0947220378 [   2] 0.0039804750 [   3]-0.0097246422 [   4]-0.0303964553
 [   5]-0.0585814153
  Convergence information after    11 iterations: 
  Largest element of residual vector :  0.24718729E-06.
  Largest element of DIIS residual   :  0.19920742E-06.
  W(mnij) AB contribution =  0.0865022583 a.u.
  W(abef) AB contribution =  0.1052314291 a.u.
  W(mbej) AB contribution = -0.2668410355 a.u.
   After  12 iterations, amplitude changes are:
    -------------------------------------------------------------------
                 Spin      RMS          Max.      Max. change for
     Amplitude   Case     Change       Change       i    j    a    b
    -------------------------------------------------------------------
        T1        AA    0.0000000012 0.0000001366    2        12
        T2        AA    0.0000000000 0.0000000053   11   10   45   34
        T2        AB    0.0000000000-0.0000000172    9    2   65   12
    -------------------------------------------------------------------
   The AA contribution to the correlation energy is:   -0.0678364 a.u.
   The AB contribution to the correlation energy is:   -0.4348750 a.u.
   The total correlation energy is -0.570547883338 a.u.
   The total correlation energy is -0.570547883338 a.u.
  Current DIIS expansion coefficients : 
 [   1]-0.1535730973 [   2] 1.2197198279 [   3] 0.0002405846 [   4] 0.0194387030
 [   5]-0.0858260181
  Convergence information after    12 iterations: 
  Largest element of residual vector :  0.13662570E-06.
  Largest element of DIIS residual   :  0.71060847E-07.
  W(mnij) AB contribution =  0.0865022639 a.u.
  W(abef) AB contribution =  0.1052314291 a.u.
  W(mbej) AB contribution = -0.2668410486 a.u.
   After  13 iterations, amplitude changes are:
    -------------------------------------------------------------------
                 Spin      RMS          Max.      Max. change for
     Amplitude   Case     Change       Change       i    j    a    b
    -------------------------------------------------------------------
        T1        AA    0.0000000004 0.0000000478    2        12
        T2        AA    0.0000000000-0.0000000017   11    9   45   12
        T2        AB    0.0000000000-0.0000000110    9    9   12   12
    -------------------------------------------------------------------
   The AA contribution to the correlation energy is:   -0.0678364 a.u.
   The AB contribution to the correlation energy is:   -0.4348750 a.u.
   The total correlation energy is -0.570547885483 a.u.
   The total correlation energy is -0.570547885483 a.u.
  Current DIIS expansion coefficients : 
 [   1]-0.0874241057 [   2] 0.0086605456 [   3] 1.0788475762 [   4] 0.0066975008
 [   5]-0.0067815169
  Convergence information after    13 iterations: 
  Largest element of residual vector :  0.47823098E-07.
  Largest element of DIIS residual   :  0.32563663E-07.
  W(mnij) AB contribution =  0.0865022628 a.u.
  W(abef) AB contribution =  0.1052314268 a.u.
  W(mbej) AB contribution = -0.2668410418 a.u.
   After  14 iterations, amplitude changes are:
    -------------------------------------------------------------------
                 Spin      RMS          Max.      Max. change for
     Amplitude   Case     Change       Change       i    j    a    b
    -------------------------------------------------------------------
        T1        AA    0.0000000001 0.0000000196    2        12
        T2        AA    0.0000000000-0.0000000015   11    9   45   12
        T2        AB    0.0000000000-0.0000000021    9    9   12   12
    -------------------------------------------------------------------
   The AA contribution to the correlation energy is:   -0.0678364 a.u.
   The AB contribution to the correlation energy is:   -0.4348750 a.u.
   The total correlation energy is -0.570547885369 a.u.
   The total correlation energy is -0.570547885369 a.u.
  Current DIIS expansion coefficients : 
 [   1] 0.0240355261 [   2]-0.0908133598 [   3]-0.0840333449 [   4] 1.1500810687
 [   5] 0.0007301100
  Convergence information after    14 iterations: 
  Largest element of residual vector :  0.19577438E-07.
  Largest element of DIIS residual   :  0.12559821E-07.
  W(mnij) AB contribution =  0.0865022612 a.u.
  W(abef) AB contribution =  0.1052314252 a.u.
  W(mbej) AB contribution = -0.2668410358 a.u.
   After  15 iterations, amplitude changes are:
    -------------------------------------------------------------------
                 Spin      RMS          Max.      Max. change for
     Amplitude   Case     Change       Change       i    j    a    b
    -------------------------------------------------------------------
        T1        AA    0.0000000001 0.0000000079    2        12
        T2        AA    0.0000000000-0.0000000005   10    9   34   12
        T2        AB    0.0000000000-0.0000000016    9    9   12   12
    -------------------------------------------------------------------
   The AA contribution to the correlation energy is:   -0.0678364 a.u.
   The AB contribution to the correlation energy is:   -0.4348750 a.u.
   The total correlation energy is -0.570547885415 a.u.
   The total correlation energy is -0.570547885415 a.u.
  Current DIIS expansion coefficients : 
 [   1] 0.0032568620 [   2] 0.0014421442 [   3]-0.0886348716 [   4]-0.1570624062
 [   5] 1.2409982717
  Convergence information after    15 iterations: 
  Largest element of residual vector :  0.79467071E-08.
  Largest element of DIIS residual   :  0.35272347E-08.
   Largest T1 amplitudes for spin case AA:
   i       a                 i       a                 i       a    
-----------------------------------------------------------------------------
[  2      12    ] 0.01774 [  2      14    ] 0.01074 [  4      34    ] 0.00956
[  6      45    ] 0.00956 [  1      20    ]-0.00458 [  4      35    ] 0.00420
[  6      46    ] 0.00420 [  2      15    ] 0.00404 [  8      67    ]-0.00363
[  2      19    ]-0.00362 [  6      48    ] 0.00335 [  4      37    ] 0.00335
[  8      68    ] 0.00331 [ 10      81    ]-0.00324 [ 11      92    ]-0.00324
-----------------------------------------------------------------------------
   Norm of T1AA vector (      158 symmetry allowed elements):  0.0307879909.
-----------------------------------------------------------------------------
   Largest T2 amplitudes for spin case AB:
       _       _                 _       _                 _       _
   i   j   a   b             i   j   a   b             i   j   a   b
-----------------------------------------------------------------------------
[ 11  11 101 101]-0.02021 [ 10  10 101 101]-0.02021 [ 11  11  66  66]-0.02021
[ 10  10  66  66]-0.02021 [  9   9  65  65]-0.01951 [  4   4  66  66]-0.01931
[  6   6  66  66]-0.01931 [  4   4 101 101]-0.01931 [  6   6 101 101]-0.01931
[  9   9  64  64]-0.01831 [  5   5  49  49]-0.01794 [  3   3  38  38]-0.01794
[ 11   6  66  17]-0.01778 [  6  11  17  66]-0.01778 [ 10   4  66  17]-0.01778
-----------------------------------------------------------------------------
   Norm of T2AB vector (   135479 symmetry allowed elements):  0.3886252652.
-----------------------------------------------------------------------------
  W(mnij) AB contribution =  0.0865022606 a.u.
  W(abef) AB contribution =  0.1052314246 a.u.
  W(mbej) AB contribution = -0.2668410337 a.u.
   After  16 iterations, amplitude changes are:
    -------------------------------------------------------------------
                 Spin      RMS          Max.      Max. change for
     Amplitude   Case     Change       Change       i    j    a    b
    -------------------------------------------------------------------
        T1        AA    0.0000000000 0.0000000019    2        12
        T2        AA    0.0000000000-0.0000000001   10    2   79   12
        T2        AB    0.0000000000-0.0000000005    9    9   12   12
    -------------------------------------------------------------------
   The AA contribution to the correlation energy is:   -0.0678364 a.u.
   The AB contribution to the correlation energy is:   -0.4348750 a.u.
   The total correlation energy is -0.570547885496 a.u.
   The total correlation energy is -0.570547885496 a.u.
  Current DIIS expansion coefficients : 
 [   1] 1.1121787317 [   2] 0.0020461750 [   3] 0.0163508811 [   4]-0.0746488629
 [   5]-0.0559269250
  Convergence information after    16 iterations: 
  Largest element of residual vector :  0.18544613E-08.
  Largest element of DIIS residual   :  0.12181339E-08.
  W(mnij) AB contribution =  0.0865022606 a.u.
  W(abef) AB contribution =  0.1052314246 a.u.
  W(mbej) AB contribution = -0.2668410336 a.u.
   After  17 iterations, amplitude changes are:
    -------------------------------------------------------------------
                 Spin      RMS          Max.      Max. change for
     Amplitude   Case     Change       Change       i    j    a    b
    -------------------------------------------------------------------
        T1        AA    0.0000000000 0.0000000008    2        12
        T2        AA    0.0000000000 0.0000000001   11   10   45   34
        T2        AB    0.0000000000-0.0000000001    9    9   12   12
    -------------------------------------------------------------------
   The AA contribution to the correlation energy is:   -0.0678364 a.u.
   The AB contribution to the correlation energy is:   -0.4348750 a.u.
   The total correlation energy is -0.570547885502 a.u.
   The total correlation energy is -0.570547885502 a.u.
  Current DIIS expansion coefficients : 
 [   1]-0.0899765651 [   2] 1.2304565635 [   3] 0.0083996879 [   4] 0.0247370607
 [   5]-0.1736167469
  Convergence information after    17 iterations: 
  Largest element of residual vector :  0.80474608E-09.
  Largest element of DIIS residual   : -0.44052461E-09.
  Amplitude equations converged in    17iterations.
   The AA contribution to the correlation energy is:   -0.0678364 a.u.
   The AB contribution to the correlation energy is:   -0.4348750 a.u.
   The total correlation energy is -0.570547885515 a.u.
   The total correlation energy is -0.570547885515 a.u.
   The CC iterations have converged.

   Largest T1 amplitudes for spin case AA:
   i       a                 i       a                 i       a    
-----------------------------------------------------------------------------
[  2      12    ] 0.01774 [  2      14    ] 0.01074 [  4      34    ] 0.00956
[  6      45    ] 0.00956 [  1      20    ]-0.00458 [  4      35    ] 0.00420
[  6      46    ] 0.00420 [  2      15    ] 0.00404 [  8      67    ]-0.00363
[  2      19    ]-0.00362 [  6      48    ] 0.00335 [  4      37    ] 0.00335
[  8      68    ] 0.00331 [ 11      92    ]-0.00324 [ 10      81    ]-0.00324
-----------------------------------------------------------------------------
   Norm of T1AA vector (      158 symmetry allowed elements):  0.0307879917.
-----------------------------------------------------------------------------
   Largest T2 amplitudes for spin case AB:
       _       _                 _       _                 _       _
   i   j   a   b             i   j   a   b             i   j   a   b
-----------------------------------------------------------------------------
[ 11  11  66  66]-0.02021 [ 10  10 101 101]-0.02021 [ 11  11 101 101]-0.02021
[ 10  10  66  66]-0.02021 [  9   9  65  65]-0.01951 [  6   6  66  66]-0.01931
[  4   4 101 101]-0.01931 [  6   6 101 101]-0.01931 [  4   4  66  66]-0.01931
[  9   9  64  64]-0.01831 [  5   5  49  49]-0.01794 [  3   3  38  38]-0.01794
[ 11   6  66  17]-0.01778 [  6  11  17  66]-0.01778 [ 10   4  66  17]-0.01778
-----------------------------------------------------------------------------
   Norm of T2AB vector (   135479 symmetry allowed elements):  0.3886252650.
-----------------------------------------------------------------------------
       Summary of iterative solution of CC equations 
      -----------------------------------------------------------
                       Correlation           Total
       Iteration         Energy              Energy
      -----------------------------------------------------------
            0        -0.533686737601   -1119.333785720894  DIIS 
            1        -0.561230204708   -1119.361329188000  DIIS 
            2        -0.568525370574   -1119.368624353866  DIIS 
            3        -0.570065289921   -1119.370164273214  DIIS 
            4        -0.570496944293   -1119.370595927586  DIIS 
            5        -0.570548482583   -1119.370647465875  DIIS 
            6        -0.570548114548   -1119.370647097841  DIIS 
            7        -0.570547581147   -1119.370646564440  DIIS 
            8        -0.570547062245   -1119.370646045538  DIIS 
            9        -0.570547576122   -1119.370646559414  DIIS 
           10        -0.570547792228   -1119.370646775521  DIIS 
           11        -0.570547876612   -1119.370646859904  DIIS 
           12        -0.570547883338   -1119.370646866630  DIIS 
           13        -0.570547885483   -1119.370646868775  DIIS 
           14        -0.570547885369   -1119.370646868662  DIIS 
           15        -0.570547885415   -1119.370646868708  DIIS 
           16        -0.570547885496   -1119.370646868788  DIIS 
           17        -0.570547885515   -1119.370646868807  DIIS 
      -----------------------------------------------------------
      A miracle has come to pass. The CC iterations have converged.
 @DIMT3-I, Dimensions of T3 amplitudes : 
               # abc          # ijk       Symmetry    Spin 
                    16596             22     1          1
                    16247             18     2          1
                    16247             18     3          1
                    15646             22     4          1
                    16810             18     5          1
                    16247             22     6          1
                    16247             22     7          1
                    15726             23     8          1
                    51812             86     1          2
                    49753             74     2          2
                    49753             74     3          2
                    47582             66     4          2
                    51902             84     5          2
                    49753             76     6          2
                    49753             76     7          2
                    47546             69     8          2
                    51812             86     1          3
                    49753             74     2          3
                    49753             74     3          3
                    47582             66     4          3
                    51902             84     5          3
                    49753             76     6          3
                    49753             76     7          3
                    47546             69     8          3
                    16596             22     1          4
                    16247             18     2          4
                    16247             18     3          4
                    15646             22     4          4
                    16810             18     5          4
                    16247             22     6          4
                    16247             22     7          4
                    15726             23     8          4
 @DIMT3-I, Dimensions of T3 amplitudes : 
               # abc          # ijk       Symmetry    Spin 
                    16596             22     1          1
                    16247             18     2          1
                    16247             18     3          1
                    15646             22     4          1
                    16810             18     5          1
                    16247             22     6          1
                    16247             22     7          1
                    15726             23     8          1
                    51812             86     1          2
                    49753             74     2          2
                    49753             74     3          2
                    47582             66     4          2
                    51902             84     5          2
                    49753             76     6          2
                    49753             76     7          2
                    47546             69     8          2
                    51812             86     1          3
                    49753             74     2          3
                    49753             74     3          3
                    47582             66     4          3
                    51902             84     5          3
                    49753             76     6          3
                    49753             76     7          3
                    47546             69     8          3
                    16596             22     1          4
                    16247             18     2          4
                    16247             18     3          4
                    15646             22     4          4
                    16810             18     5          4
                    16247             22     6          4
                    16247             22     7          4
                    15726             23     8          4
 @TRPS-I, Welcome to TRPS. Watch your RUs ! 
 @TRPS-I, Method is CCSD(T) 
 @TRPS-I, Calculation type is energy 
 @TRPS-I, Reference function information : 
          Reference function is Hartree-Fock 
          Reference function is RHF Hartree-Fock 
 @TRPS-I, INT1 is true 
 @TRPS-I, INT2 is false 
 @TRPS-I, Lengths of ijka integrals. #1       7274
                                     #2       7274
                                     #3      16286
                                     #4      16286
                                    Max      16286
 @INITRP-I, Initializing W intermediate lists. 
 @SETOOOV-I, Some OOOV lists are being transposed. 
 @TRPS-I, Available memory in integer words    249959040
          Number of pre-allocated words for TRPS2        61696
          Number of free words for TRPS2    249897344
 @TRPS2-I, Spin case AAB 
 @TRPS2-I, Number of free integer words  249897344
           Number of free double  words  249897344
           Ratio                                 1
 @TRPS2-I, E4TBAA      -0.008726296842
  @TRPS2-I, E4TAAA  -4.897825837811004E-004
 @TRPS2-I, E5ST A    0.000049713574819
 @TRPS2-I, E5ST B    0.000033317263747
 @SETOOOV-I, Some OOOV lists are being transposed. 
 @CCENRG-I, CCSD/QCISD energy will now be evaluated. 
 @CCENRG-I, Correlation energies. ECCAA       -0.067836440370
                                  ECCBB        0.000000000000
                                  ECCAB       -0.434875004775
                                  Total       -0.570547885515
 @CCENRG-I, Reference   energy   -1118.800098983293
            CCSD/QCISD energy    -1119.370646868807
          E4T (T(CCSD)) = -0.018432158852
          E5ST          =  0.000166061677
          E4ST          =  0.000000000000
          In other words  
          <T3[2](Dagger) D3  T3[2]> = -0.018432158852
          <T1   (Dagger) Q1 WT3[2]> =  0.000166061677
          <T2   (Dagger) Q2 FT3[2]> =  0.000000000000
        E(CCSD)           =   -1119.370646868807
        E(CCSD + T(CCSD)) =   -1119.389079027659
        E(CCSD(T))        =   -1119.388912965982
  @CHECKOUT-I, Total execution time (CPU/WALL):        6.84/       7.84 seconds.
--executable xvcc finished with status     0 in        8.16 seconds (walltime).
  The final electronic energy is     -1119.388912965981945 a.u. 
  This computation required                           26.22 seconds (walltime).
