 --invoking executable--
/home/nike/cfour_v2.00beta/bin/xjoda


   *************************************************************************
         <<<     CCCCCC     CCCCCC   |||     CCCCCC     CCCCCC   >>>
       <<<      CCC        CCC       |||    CCC        CCC         >>>
      <<<      CCC        CCC        |||   CCC        CCC            >>>
    <<<        CCC        CCC        |||   CCC        CCC              >>>
      <<<      CCC        CCC        |||   CCC        CCC            >>>
       <<<      CCC        CCC       |||    CCC        CCC         >>>
         <<<     CCCCCC     CCCCCC   |||     CCCCCC     CCCCCC   >>>
   *************************************************************************

     ****************************************************************
     * CFOUR Coupled-Cluster techniques for Computational Chemistry *
     ****************************************************************
 

   Department of Chemistry                Institut fuer Physikalische Chemie
   University of Texas at Austin          Universitaet Mainz
   Austin, TX  78712, USA                 D-55099 Mainz, Germany
 
                       Version 2.00beta
 
                     wob129                                            
                     Tue Jan  1 20:38:11 EST 2019                      
                     integer*8 version is running
 
********************************************************************************
*                          Input from ZMAT file                                *
********************************************************************************
TITLE                                                                           
F                                                                               
                                                                                
*ACES2(CALC=CCSD                                                                
#FROZEN_CORE=ON                                                                 
#DROPMO=1                                                                       
INPUT_MRCC=OFF                                                                  
CC_PROG=MRCC                                                                    
XFORM_TOL=18                                                                    
SAVE_INTS=ON                                                                    
SCF_EXPORDER=6                                                                  
SCF_EXPSTART=5                                                                  
#SCF_DAMPING=1000                                                               
SCF_EXTRAPOLATION=ON                                                            
SCF_CONV=10                                                                     
SCF_MAXCYC=9999                                                                 
CC_CONV=10                                                                      
CC_MAXCYC=999                                                                   
T3_EXTRAPOL=ON                                                                  
REFERENCE=ROHF                                                                  
CHARGE=+1                                                                       
MULT=3                                                                          
ABCDTYPE=STANDARD                                                               
OCCUPATION=2-1-1-0-1-0-0-0/2-1-0-0-0-0-0-0                                      
MEM=14                                                                          
MEM_UNIT=GB                                                                     
BASIS=SPECIAL)                                                                  
                                                                                
F:aCVDZ-EMSL                                                                    
                                                                                
********************************************************************************
  @GTFLGS-W, Keyword #FROZEN_CORE not known and is ignored.
  @GTFLGS-W, Keyword #DROPMO not known and is ignored.
  @GTFLGS-W, Keyword #SCF_DAMPING not known and is ignored.
    -------------------------------------------------------------------
                    CFOUR Control Parameters 
    -------------------------------------------------------------------
        External           Internal           Value            Units
          Name               Name
    -------------------------------------------------------------------
       ABCDTYPE             IABCDT         STANDARD     [  0]   ***   
       ANHARMONIC           IANHAR         OFF          [  0]   ***   
       ANH_ALGORIT          IANALG         STANDARD     [  0]   ***   
       ANH_DERIVAT          IANDER         SECOND       [  1]   ***   
       ANH_STEPSIZ          ICUBST             50000          x 10-6  
       ANH_SYMMETR          IANHSM         ABELIAN      [  0]   ***   
       AO_LADDERS           IAOLAD         SINGLEPASS   [  1]   ***   
       BASIS                IBASIS         SPECIAL      [  0]   ***   
       BREIT                IBREIT         OFF          [  0]   ***   
       BRUCK_CONV           IBRTOL          10D-  4             ***   
       BRUECKNER            IBRKNR             OFF      [  0]   ***   
       BUFFERSIZE           IBUFFS            600               ***   
       CACHE_RECS           ICHREC             10               ***   
       CALCLEVEL            ICLLVL           CCSD       [ 10]   ***   
       CCORBOPT             ICCORB             OFF      [  0] x 0.01  
       CC_CONV              ICCCNV          10D- 10             ***   
       CC_EXPORDER          ICCEOR              5               ***   
       CC_EXTRAPOL          ICCEXT             DIIS     [  1]   ***   
       CC_MAXCYC            ICCCYC            999              cycles 
       CC_PROGRAM           ICCPRO         MRCC         [  2]   ***   
       CHARGE               ICHRGE              1               ***   
       CHOLESKY             ICHOLE         OFF          [  0]   ***   
       CIS_CONV             ICISTL              5               ***   
       COMM_SIZE            IPSIZE            ***               ***   
       CONSTANT             ICONST         OLD          [  1]   ***   
       CONTINUUM            ICONTU         NONE         [  0]   ***   
       CONTRACTION          ICNTYP          GENERAL     [  1]   ***   
       COORDINATES          ICOORD         INTERNAL     [  0]   ***   
       CPHF_CONVER          ICPHFT          10D- 16             ***   
       CPHF_MAXCYC          ICPHFC             64              cycles 
       CUBIC                ICUBIC         OFF          [  0]   ***   
       CURVILINEAR          ICURVY            OFF       [  0]   ***   
       DBOC                 IDBOC          OFF          [  0]   ***   
       DCT                  IDCT           OFF          [  0]   ***   
       DERIV_LEV            IDRLVL            ZERO      [  0]   ***   
       DIAG_MRCC            IEOMST          10D-  0             ***   
       DIFF_TYPE            IDIFTY         RELAXED      [  0]   ***   
       DIRECT               IDIRCT         OFF          [  0]   ***   
       DROPMO               IDRPMO      NONE         
       ECP                  IECP           OFF          [  0]   ***   
       EIGENVECTOR          IVEC                1               ***   
       EL_ANHARM            IELANH         OFF          [  0]   ***   
       EOMFOLLOW            IEOMSR         ENERGY       [  0]   ***   
       EOM_MRCC             IMRCCE         NEW          [  1]   ***   
       EOM_NONIT            EOMNON         OFF          [  0]   ***   
       EOM_NSING            IEOMSI          10D-  0             ***   
       EOM_NSTATES          IMRCCD         DAVIDSON     [  0]   ***   
       EOM_NTRIP            IEOMTR          10D-  0             ***   
       EOM_ORDER            IEXORD         ENERGY       [  0]   ***   
       ESTATE_CONV          IEXTOL          10D-  5             ***   
       ESTATE_DIAG          IEXDIG         ITERATIVE    [  0]   ***   
       ESTATE_LOCK          IESLOC         ON           [  1]   ***   
       ESTATE_MAXC          IEXMXC             20               ***   
       ESTATE_PROP          IEXPRP         OFF          [  0]   ***   
       EVAL_HESS            IRECAL              0            # of cyc.
       EXCITATION           IEXCIT              0               ***   
       EXCITE               IEXCIT         NONE         [  0]   ***   
       FCGRADNEW            IFCGNW         OFF          [  0]   ***   
       FC_FIELD             IFINFC              0             x 10-6  
       FD_CALTYPE           IFDCAL         GRADONLY     [  0]   ***   
       FD_PROJECT           IFDPRJ         OFF          [  1]   ***   
       FD_STEPSIZE          IDISFD              0            10-4 bohr
       FD_USEGROUP          IFDGRP         FULL         [  0]   ***   
       FILE_RECSIZ          IFLREC              4096           words  
       FINITE_PERT          IFIPER              0             x 10-6  
       FIXGEOM              IFIXGM         OFF          [  0]   ***   
       FOCK                 IFOCK          AO           [  1]   ***   
       FREQ_ALGORI          IVIALG         STANDARD     [  0]   ***   
       FROZEN_CORE          IFROCO         OFF          [  0]   ***   
       FROZEN_VIRT          IFROVI         OFF          [  0]   ***   
       GAMMA_ABCD           IGABCD         STORE        [  0]   ***   
       GAMMA_ABCI           IGABCI         STORE        [  0]   ***   
       GENBAS_1             IGNBS1              0               ***   
       GENBAS_2             IGNBS2              0               ***   
       GENBAS_3             IGNBS3              0               ***   
       GENBAS_4             IGNBS4              0               ***   
       GEO_CONV             ICONTL              5              H/bohr 
       GEO_MAXCYC           IOPTCY             50               ***   
       GEO_MAXSTEP          IMXSTP            300            millibohr
       GEO_METHOD           INR            SINGLE_POINT [  5]   ***   
       GIAO                 IGIAO          OFF          [  1]   ***   
       GIMIC                IGIMIC         OFF          [  0]   ***   
       GRID                 IGRID          OFF          [  0]   ***   
       GRID_ALGO            IGALGO         SERIAL       [  0]   ***   
       GUESS                IGUESS            MOREAD    [  0]   ***   
       HBAR                 IHBAR              OFF      [  0]   ***   
       HESS_TYPE            IHESTP         SCF          [  0]   ***   
       HF2_FILE             IHF2Fl         USE          [  1]   ***   
       HFSTABILITY          ISTABL         OFF          [  0]   ***   
       INCORE               INCORE             OFF      [  0]   ***   
       INPUT_MRCC           IMRCC          OFF          [  0]   ***   
       INTEGRALS            INTTYP             VMOL     [  1]   ***   
       JODA_PRINT           IJPRNT              0               ***   
       LINDEP_TOL           ILINDP              8               ***   
       LINEQ_CONV           IZTACN          10D-  7           cycles  
       LINEQ_EXPOR          ILMAXD              5               ***   
       LINEQ_MAXCY          ILMAXC             50               ***   
       LINEQ_TYPE           ILTYPE         DIIS         [  1]   ***   
       LOCK_ORBOCC          ILOCOC             OFF      [  0]   ***   
       MEMORY_SIZE          IMEMSZ         *********           words  
       MEM_UNIT             IMEMU          GB           [  3]   ***   
       MRCC                 IMRCCC         OFF          [  0]   ***   
       MULTIPLICTY          IMULTP              3               ***   
       NEGEVAL              IDIE             ABORT      [  0]   ***   
       NEWNORM              INEWNO         OFF          [  0]   ***   
       NON-HF               INONHF              ON      [  1]   ***   
       NTOP_TAMP            ITOPT2             15               ***   
       NUC_MODEL            INUCMO         POINT        [  0]   ***   
       OCCUPATION           IOCCU  A   2,  1,  1,  0,  1,  0,  0,  0,
                                   B   2,  1,  0,  0,  0,  0,  0,  0,
       OPEN-SHELL           IOPEN          SPIN-ORBITAL [  0]   ***   
       ORBITALS             IORBTP         SEMICANONICAL[  1]   ***   
       PARALLEL             IPARAL         ON           [  1]   ***   
       PARA_INT             IPINTS         ON           [  1]   ***   
       PARA_PRINT           IPPRIN              0               ***   
       PERT_ORB             IPTORB         STANDARD     [  0]   ***   
       POINTS               IGRDFD              0               ***   
       PRINT                IPRNT               0               ***   
       PROPS                IPROPS             OFF      [  0]   ***   
       PROP_INTEGR          IINTYP         INTERNAL     [  0]   ***   
       PSI                  IPSI           OFF          [  0]   ***   
       QUARTIC              IQUART         OFF          [  0]   ***   
       RAMAN_INT            IRAMIN         OFF          [  0]   ***   
       RAMAN_ORB            IRAMRE         UNRELAXED    [  0]   ***   
       RDO                  IRDOFM             OFF      [  0]   ***   
       REFERENCE            IREFNC             ROHF     [  2]   ***   
       RELATIVIST           IRELAT         OFF          [  0]   ***   
       RELAX_DENS           IRDENS             OFF      [  0]   ***   
       RESET_FLAGS          IRESET             OFF      [  0]   ***   
       RESTART_CC           ICCRES         OFF          [  0]   ***   
       ROT_EVEC             ROTVEC              0               ***   
       SAVE_INTS            ISVINT              ON      [  1]   ***   
       SCALE_ON             ISTCRT              0               ***   
       SCF_CONV             ISCFCV          10D- 10             ***   
       SCF_DAMPING          IDAMP               0             x 10-3  
       SCF_EXPORDE          IRPPOR              6               ***   
       SCF_EXPSTAR          IRPPLS              5               ***   
       SCF_EXTRAPO          IRPP                ON      [  1]   ***   
       SCF_MAXCYC           ISCFCY            ***              cycles 
       SCF_NOSTOP           ISCFST         OFF          [  0]   ***   
       SCF_PRINT            ISCFPR              0               ***   
       SD_FIELD             IFINSD              0             x 10-6  
       SEQUENCE             ISEQUE         OFF          [  0]   ***   
       SOPERT               IPERSO         OFF          [  0]   ***   
       SPHERICAL            IDFGHI             ON       [  1]   ***   
       SPINORBIT            ISOCAL         OFF          [  0]   ***   
       SPINROTATIO          ISRCON         OFF          [  0]   ***   
       SPIN_FLIP            ISPFLP         OFF          [  0]   ***   
       SPIN_ORBIT           ISPORB         OFF          [  0]   ***   
       SPIN_SCAL            ISCSMP         OFF          [  0]   ***   
       SUBGROUP             ISUBGP         DEFAULT      [  0]   ***   
       SUBGRPAXIS           ISBXYZ         X            [  0]   ***   
       SYMMETRY             ISYM             ON         [  0]   ***   
       SYM_CHECK            ISYMCK         OVERRIDE     [  1]   ***   
       T3_EXTRAPOL          IT3EXT         ON           [  1]   ***   
       TAMP_SUM             IEVERY              5               ***   
       TESTSUITE            ITESTS         OFF          [  0]   ***   
       THERMOCH             ITHERM         OFF          [  0]   ***   
       TOL_CHOLESK          ITOLCH          10D-  4             ***   
       TRANGRAD             IRESRM         OFF          [  0]   ***   
       TRANS_INV            ITRAIN         USE          [  0]   ***   
       TREAT_PERT           ITREAT         SIMULTANEOUS [  0]   ***   
       UIJ_THRESHO          IUIJTH              1               ***   
       UNITS                IUNITS         ANGSTROM     [  0]   ***   
       UNOS                 IUNOS          OFF          [  0]   ***   
       UPDATE_HESS          IHUPDT         ON           [  1]   ***   
       VIBPHASE             ISETPH         STANDARD     [  0]   ***   
       VIBRATION            IVIB              NO        [  0]   ***   
       VIB_ALGORIT          IGEALG         STANDARD     [  0]   ***   
       VNATORB              IVNORB         OFF          [  0]   ***   
       VTRAN                IVTRAN         FULL/PARTIAL [  0]   ***   
       XFIELD               IXEFLD              0             x 10-6  
       XFORM_TOL            IXFTOL          10D- 18             ***   
       YFIELD               IYEFLD              0             x 10-6  
       ZFIELD               IZEFLD              0             x 10-6  
    -------------------------------------------------------------------
   1 entries found in Z-matrix 
   Job Title : TITLE                                                                           
  1  F          9    18.99840
 factor:   60.1997200000000     
   Rotational constants (in cm-1): 

   Rotational constants (in MHz): 

********************************************************************************
   The full molecular point group is I h .
   The largest Abelian subgroup of the full molecular point group is D2h .
   The computational point group is D2h .
********************************************************************************
  @GTFLGS-W, Keyword #FROZEN_CORE not known and is ignored.
  @GTFLGS-W, Keyword #DROPMO not known and is ignored.
  @GTFLGS-W, Keyword #SCF_DAMPING not known and is ignored.
  There are   27 basis functions.
 @GEOPT-W, Archive file not created for single-point calculation.
  @CHECKOUT-I, Total execution time (CPU/WALL):        0.26/       0.59 seconds.
--executable xjoda finished with status     0 in        0.74 seconds (walltime).
 --invoking executable--
/home/nike/cfour_v2.00beta/bin/xvmol
 Serial version of molecule started
********************************************************************************
                    Input from MOL file
********************************************************************************
INTGRL        1    0    1    0    0    0    0    0    0                         
         *** CFOUR Program System (Release V0.1) ***                            
TITLE                                                                           
    1    3 X  Y   Z   0.10E-08              0    0                              
   9999.00      3.00                                                            
          9.00000000    1    3    1    1    1                                   
F #1   0.000000000000000   0.000000000000000   0.000000000000000                
   11    5                                                                      
   14710.0000000000       7.210000000000000E-004 -1.650000000000000E-004        
  0.000000000000000E+000  0.000000000000000E+000  0.000000000000000E+000        
   2207.00000000000       5.553000000000000E-003 -1.308000000000000E-003        
  0.000000000000000E+000  0.000000000000000E+000  0.000000000000000E+000        
   502.800000000000       2.826700000000000E-002 -6.495000000000000E-003        
  0.000000000000000E+000  0.000000000000000E+000  0.000000000000000E+000        
   142.600000000000       0.106444000000000      -2.669100000000000E-002        
  0.000000000000000E+000  0.000000000000000E+000  0.000000000000000E+000        
   46.4700000000000       0.286814000000000      -7.369000000000001E-002        
  0.000000000000000E+000  0.000000000000000E+000  0.000000000000000E+000        
   16.7000000000000       0.448641000000000      -0.170776000000000             
  0.000000000000000E+000  0.000000000000000E+000  0.000000000000000E+000        
   6.35600000000000       0.264761000000000      -0.112327000000000             
  0.000000000000000E+000  0.000000000000000E+000  0.000000000000000E+000        
   1.31600000000000       1.533300000000000E-002  0.562814000000000             
  0.000000000000000E+000  0.000000000000000E+000  0.000000000000000E+000        
  0.389700000000000      -2.332000000000000E-003  0.568778000000000             
   1.00000000000000       0.000000000000000E+000  0.000000000000000E+000        
   10.4260000000000       0.000000000000000E+000  0.000000000000000E+000        
  0.000000000000000E+000   1.00000000000000       0.000000000000000E+000        
  9.863000000000000E-002  0.000000000000000E+000  0.000000000000000E+000        
  0.000000000000000E+000  0.000000000000000E+000   1.00000000000000             
    6    4                                                                      
   22.6700000000000       4.487800000000000E-002  0.000000000000000E+000        
  0.000000000000000E+000  0.000000000000000E+000                                
   4.97700000000000       0.235718000000000       0.000000000000000E+000        
  0.000000000000000E+000  0.000000000000000E+000                                
   1.34700000000000       0.508521000000000       0.000000000000000E+000        
  0.000000000000000E+000  0.000000000000000E+000                                
  0.347100000000000       0.458120000000000        1.00000000000000             
  0.000000000000000E+000  0.000000000000000E+000                                
   32.8300000000000       0.000000000000000E+000  0.000000000000000E+000        
   1.00000000000000       0.000000000000000E+000                                
  8.502000000000000E-002  0.000000000000000E+000  0.000000000000000E+000        
  0.000000000000000E+000   1.00000000000000                                     
    2    2                                                                      
   1.64000000000000        1.00000000000000       0.000000000000000E+000        
  0.464000000000000       0.000000000000000E+000   1.00000000000000             
FINISH                                                                          
 
********************************************************************************
 One- and two-electron integrals over symmetry-adapted AOs are calculated.

  Spherical harmonics are used.
  
  Integrals less than  0.10E-13 are neglected.

  Nuclear repulsion energy :    0.0000000000 a.u.
  required memory for a1 array                5029908  words 
  required memory for a2 array                2103164  words 
 @GETMEM-I,  Allocated      69 MB of main memory.
  @MOLECU-I, One electron integrals (CPU/WALL):        0.02/       0.33 seconds.
  @TWOEL-I,        634 integrals of symmetry type  I I I I
  @TWOEL-I,       2993 integrals of symmetry type  I J I J
  @TWOEL-I,       2170 integrals of symmetry type  I I J J
  @TWOEL-I,       3304 integrals of symmetry type  I J K L
  @TWOEL-I, Total number of 2-e integrals       9101.
  @MOLECU-I, Two electron integrals (CPU/WALL):        0.01/       0.09 seconds.
  @CHECKOUT-I, Total execution time (CPU/WALL):        0.04/       0.47 seconds.
--executable xvmol finished with status     0 in        0.62 seconds (walltime).
 --invoking executable--
/home/nike/cfour_v2.00beta/bin/xvmol2ja
 @GETMEM-I,  Allocated   13351 MB of main memory.
  @CHECKOUT-I, Total execution time (CPU/WALL):        0.00/       0.02 seconds.
--executable xvmol2ja finished with status     0 in        0.15 seconds (walltime).
 --invoking executable--
/home/nike/cfour_v2.00beta/bin/xvscf
  There are   27 functions in the AO basis.

  There are 8 irreducible representations.

       Irrep        # of functions
         1                  9
         2                  4
         3                  4
         4                  2
         5                  4
         6                  2
         7                  2
         8                  0


  Parameters for SCF calculation: 
        SCF reference function: ROHF  
  Maximum number of iterations: 9999
     Full symmetry point group: I h 
     Computational point group: D2h 
        Initial density matrix: MOREAD                 
     SCF convergence tolerance: 10**(-10)
  DIIS convergence acceleration:  ON
          Latest start for DIIS:   5
                     DIIS order:   6

     Alpha population by irrep:   2    1    1    0    1    0    0    0
      Beta population by irrep:   2    1    0    0    0    0    0    0


  Memory information:      70036 words required.
  Fock matrices are constructed from AO integral file.
 @GETMEM-I,  Allocated       0 MB of main memory.
  Initialization and symmetry analysis required      0.002 seconds.

 total no. of electrons in initial guess :  0.000000000000000E+000
 total no. of electrons in initial guess :  0.000000000000000E+000
  --------------------------------------------------------------------
  Iteration         Total Energy            Largest Density Difference
  --------------------------------------------------------------------
       0             0.000000000000000              0.0000000000D+00
   current occupation vector 
     2  1  1  0  1  0  0  0
     2  1  0  0  0  0  0  0
       1           -95.418815260251591              0.4642905184D+01
   current occupation vector 
     2  1  1  0  1  0  0  0
     2  1  0  0  0  0  0  0
       2           -98.028828408369549              0.3584156590D+01
   current occupation vector 
     2  1  1  0  1  0  0  0
     2  1  0  0  0  0  0  0
       3           -98.743749600435095              0.8747930631D+00
   current occupation vector 
     2  1  1  0  1  0  0  0
     2  1  0  0  0  0  0  0
       4           -98.791470630934541              0.3851005373D+00
   current occupation vector 
     2  1  1  0  1  0  0  0
     2  1  0  0  0  0  0  0
       5           -98.795860924381472              0.7994503189D-01
   current occupation vector 
     2  1  1  0  1  0  0  0
     2  1  0  0  0  0  0  0
       6           -98.795898857390412              0.6855258972D-02
   current occupation vector 
     2  1  1  0  1  0  0  0
     2  1  0  0  0  0  0  0
       7           -98.795907561408455              0.2335116046D-02
   current occupation vector 
     2  1  1  0  1  0  0  0
     2  1  0  0  0  0  0  0
       8           -98.795907638596603              0.2500129809D-03
   current occupation vector 
     2  1  1  0  1  0  0  0
     2  1  0  0  0  0  0  0
       9           -98.795907639114318              0.3155786328D-04
   current occupation vector 
     2  1  1  0  1  0  0  0
     2  1  0  0  0  0  0  0
      10           -98.795907639114887              0.4569510825D-06
   current occupation vector 
     2  1  1  0  1  0  0  0
     2  1  0  0  0  0  0  0
      11           -98.795907639114972              0.3112568958D-07
   current occupation vector 
     2  1  1  0  1  0  0  0
     2  1  0  0  0  0  0  0
      12           -98.795907639114901              0.1092133728D-08
   current occupation vector 
     2  1  1  0  1  0  0  0
     2  1  0  0  0  0  0  0
      13           -98.795907639114802              0.1327162824D-09
   current occupation vector 
     2  1  1  0  1  0  0  0
     2  1  0  0  0  0  0  0

  SCF has converged.

 Density matrix saved to file den.dat
 total alpha spin electron number:   5.00000000000000     
 total  beta spin electron number:   3.00000000000000     
     E(ROHF)=       -98.795907639114844              0.1404520944D-10

  Eigenvector printing suppressed.


       The average multiplicity is    3.0000000
  The expectation value of S**2 is    2.0000000

 @PUTMOS-I, Writing converged MOs to NEWMOS. 
 @PUTMOS-I, Symmetry   1 Full Blocks  2 Partial Blocksize   1
 @PUTMOS-I, Symmetry   2 Full Blocks  1 Partial Blocksize   0
 @PUTMOS-I, Symmetry   3 Full Blocks  1 Partial Blocksize   0
 @PUTMOS-I, Symmetry   4 Full Blocks  0 Partial Blocksize   2
 @PUTMOS-I, Symmetry   5 Full Blocks  1 Partial Blocksize   0
 @PUTMOS-I, Symmetry   6 Full Blocks  0 Partial Blocksize   2
 @PUTMOS-I, Symmetry   7 Full Blocks  0 Partial Blocksize   2
 @PUTMOS-I, Symmetry   8 Full Blocks  0 Partial Blocksize   0
  @DMPJOB-I, Rotating orbitals to semicanonical basis.
             *** Eigenvalues correspond to new basis. ***



 
  ORBITAL EIGENVALUES (ALPHA)  (1H = 27.2113838 eV)

       MO #        E(hartree)               E(eV)           FULLSYM    COMPSYM
       ----   --------------------   --------------------   -------   ---------
    1     1         -27.2026442261        -740.2215929432      Ag        Ag (1)
    2     2          -2.3943171119         -65.1526819171      Ag        Ag (1)
    3    20          -1.5290374023         -41.6072236285       u       B1u (5)
    4    14          -1.5290374023         -41.6072236285       u       B3u (3)
    5    10          -1.4131894086         -38.4548394072      Au       B2u (2)
  +++++++++++++++++++++++++++++++++++++++++++++++++++++++++++++++++++++++++++++
    6     3          -0.1074405870          -2.9236070498      Ag        Ag (1)
    7    21          -0.0538718615          -1.4659279008       u       B1u (5)
    8    15          -0.0538718615          -1.4659279008       u       B3u (3)
    9    11          -0.0420003525          -1.1428877118      Au       B2u (2)
   10     4           0.7891170043          21.4729656833       g        Ag (1)
   11    26           0.7891170043          21.4729656833       g       B2g (7)
   12    24           0.8207066641          22.3325640397       g       B3g (6)
   13    18           0.8207066641          22.3325640397       g       B1g (4)
   14     5           0.8306085413          22.6020078224      Ag        Ag (1)
   15    22           1.0007371091          27.2314415792       u       B1u (5)
   16    16           1.0007371091          27.2314415792       u       B3u (3)
   17    12           1.0622747515          28.9059659855      Au       B2u (2)
   18     6           1.5278422881          41.5747029163      Ag        Ag (1)
   19     7           4.0186325070         109.3525515779       g        Ag (1)
   20    27           4.0186325070         109.3525515779       g       B2g (7)
   21    25           4.0916744987         111.3401252488       g       B3g (6)
   22    19           4.0916744987         111.3401252488       g       B1g (4)
   23     8           4.1163331321         112.0111207878      Ag        Ag (1)
   24     9          42.1325998751        1146.4863465184      Ag        Ag (1)
   25    23          47.9967178534        1306.0571115895       u       B3u (5)
   26    17          47.9967178534        1306.0571115895       u       B1u (3)
   27    13          48.0508203116        1307.5293143435      Au       B2u (2)


 
  ORBITAL EIGENVALUES ( BETA)  (1H = 27.2113838 eV)

       MO #        E(hartree)               E(eV)           FULLSYM    COMPSYM
       ----   --------------------   --------------------   -------   ---------
    1     1         -27.1014269235        -737.4673300744      Ag        Ag (1)
    2     2          -2.0096949288         -54.6865800686      Ag        Ag (1)
    3    10          -1.3105202695         -35.6610700574      Au       B2u (2)
  +++++++++++++++++++++++++++++++++++++++++++++++++++++++++++++++++++++++++++++
    4    20          -0.5039783632         -13.7139486774       u       B1u (5)
    5    14          -0.5039783632         -13.7139486774       u       B3u (3)
    6     3          -0.0903912740          -2.4596716496      Ag        Ag (1)
    7    11          -0.0382113770          -1.0397844448      Au       B2u (2)
    8    21          -0.0178205693          -0.4849223508       u       B1u (5)
    9    15          -0.0178205693          -0.4849223508       u       B3u (3)
   10     4           0.8687662729          23.6403325010      Ag        Ag (1)
   11    24           0.8706858625          23.6925671915       g       B3g (6)
   12    18           0.8706858625          23.6925671915       g       B1g (4)
   13     5           0.8764206818          23.8486195592       g        Ag (1)
   14    26           0.8764206818          23.8486195592       g       B2g (7)
   15    12           1.0955407506          29.8111798540      Au       B2u (2)
   16    22           1.1998500383          32.6495799172       u       B1u (5)
   17    16           1.1998500383          32.6495799172       u       B3u (3)
   18     6           1.6227595823          44.1575338408      Ag        Ag (1)
   19     7           4.2170619774         114.7520920585      Ag        Ag (1)
   20    19           4.2253374769         114.9772798517       g       B1g (4)
   21    25           4.2253374769         114.9772798517       g       B3g (6)
   22     8           4.2508767956         115.6722400538       g        Ag (1)
   23    27           4.2508767956         115.6722400538       g       B2g (7)
   24     9          42.2017332377        1148.3675609822      Ag        Ag (1)
   25    13          48.0718199564        1308.1007437396      Au       B2u (2)
   26    23          48.0956599591        1308.7494632042       u       B1u (5)
   27    17          48.0956599591        1308.7494632042       u       B3u (3)


  VSCF finished.

  @CHECKOUT-I, Total execution time (CPU/WALL):        0.04/       0.90 seconds.
--executable xvscf finished with status     0 in        1.05 seconds (walltime).
 --invoking executable--
/home/nike/cfour_v2.00beta/bin/xvtran
 @GETMEM-I,  Allocated   13351 MB of main memory.
  Full UHF integral transformation
  Transformation of IIII integrals :
  2 passes through the AO integral file were required.
         634 AO integrals were read.
        1217 MO integrals (Spin case AAAA) were written to HF2AA.
        1218 MO integrals (Spin case BBBB) were written to HF2BB.
        2351 MO integrals (Spin case AABB) were written to HF2AB.
  Transformation of IIJJ integrals :
  2 passes through the AO integral file were required.
        2170 AO integrals were read.
        2352 MO integrals (Spin case AAAA) were written to HF2AA.
        2352 MO integrals (Spin case BBBB) were written to HF2BB.
        4704 MO integrals (Spin case AABB) were written to HF2AB.
  Transformation of IJIJ integrals :
  2 passes through the AO integral file were required.
        2993 AO integrals were read.
        3273 MO integrals (Spin case AAAA) were written to HF2AA.
        3273 MO integrals (Spin case BBBB) were written to HF2BB.
        6252 MO integrals (Spin case AABB) were written to HF2AB.
  Transformation of IJKL integrals :
  2 passes through the AO integral file were required.
        3304 AO integrals were read.
        3384 MO integrals (Spin case AAAA) were written to HF2AA.
        3384 MO integrals (Spin case BBBB) were written to HF2BB.
        6768 MO integrals (Spin case AABB) were written to HF2AB.
  Summary of active molecular orbitals: 
------------------------------------------------------------------------
                         * Spin case alpha *
 
  Index      Eigenvalue    Symmetry    Index      Eigenvalue    Symmetry
------------------------------------------------------------------------
     1       -27.2026442        1        15        48.0508203        2
     2        -2.3943171        1        16        -0.0538719        3
     3        -1.4131894        2        17         1.0007371        3
     4        -1.5290374        3        18        47.9967179        3
     5        -1.5290374        5        19         0.8207067        4
     6        -0.1074406        1        20         4.0916745        4
     7         0.7891170        1        21        -0.0538719        5
     8         0.8306085        1        22         1.0007371        5
     9         1.5278423        1        23        47.9967179        5
    10         4.0186325        1        24         0.8207067        6
    11         4.1163331        1        25         4.0916745        6
    12        42.1325999        1        26         0.7891170        7
    13        -0.0420004        2        27         4.0186325        7
    14         1.0622748        2
------------------------------------------------------------------------
------------------------------------------------------------------------
                         * Spin case beta *
 
  Index      Eigenvalue    Symmetry    Index      Eigenvalue    Symmetry
------------------------------------------------------------------------
     1       -27.1014269        1        15        -0.0178206        3
     2        -2.0096949        1        16         1.1998500        3
     3        -1.3105203        2        17        48.0956600        3
     4        -0.0903913        1        18         0.8706859        4
     5         0.8687663        1        19         4.2253375        4
     6         0.8764207        1        20        -0.5039784        5
     7         1.6227596        1        21        -0.0178206        5
     8         4.2170620        1        22         1.1998500        5
     9         4.2508768        1        23        48.0956600        5
    10        42.2017332        1        24         0.8706859        6
    11        -0.0382114        2        25         4.2253375        6
    12         1.0955408        2        26         0.8764207        7
    13        48.0718200        2        27         4.2508768        7
    14        -0.5039784        3
------------------------------------------------------------------------
  @CHECKOUT-I, Total execution time (CPU/WALL):        0.03/       4.03 seconds.
--executable xvtran finished with status     0 in        4.40 seconds (walltime).
 --invoking executable--
/home/nike/cfour_v2.00beta/bin/xintprc
 @GETMEM-I,  Allocated   13351 MB of main memory.
  Processing integrals for CCSD calculation.
  @GMOIAA-I, Processing MO integrals for spin case AA.
  @GMOIAA-I, Generation of integral list completed.
                      TYPE                NUMBER
                      ----               --------
                      PPPP                  4527
                      PPPH                  3866
                      PPHH                   921
                      PHPH                   609
                      PHHH                   270
                      HHHH                    33

                     TOTAL                 10226
  @GMOIAA-I, Processing MO integrals for spin case BB.
  @GMOIAA-I, Generation of integral list completed.
                      TYPE                NUMBER
                      ----               --------
                      PPPP                  6303
                      PPPH                  3052
                      PPHH                   439
                      PHPH                   326
                      PHHH                    94
                      HHHH                    13

                     TOTAL                 10227
  @GMOIAB-I, Processing MO integrals for spin case AB.
                      TYPE                NUMBER
                      ----               --------
                      PPPP                 10392
                      PPPH1H                4578
                      PPPH2H                2600
                      PPHH                  1164
                      PHPH1P                 286
                      PHPH2P                 713
                      PHHH1P                 126
                      PHHH2P                 188
                      HHHH                    28

                     TOTAL                 20075
            ----------------------------------------------
                     Projected spin multiplicities: 
            ----------------------------------------------
             <0|S^2|0>                  =    2.0000000000.
             <0|S^2 T2|0>               =    0.0000000000.
             Projected <0|S^2 exp(T)|0> =    2.0000000000.
             Approximate spin mult.     =    3.0000000000.
            ----------------------------------------------
   Largest T2 amplitudes for spin case AA:
   i   j   a   b             i   j   a   b             i   j   a   b
-----------------------------------------------------------------------------
[  4   3  17  14]-0.01922 [  5   3  22  14]-0.01922 [  5   4  22  17]-0.01859
[  3   2  14   9]-0.01137 [  5   4  26   7] 0.01130 [  5   4  27  10] 0.01117
[  5   2  22   9]-0.01097 [  4   2  17   9]-0.01097 [  4   3  19   8] 0.01001
[  5   3  24   8] 0.01001 [  4   3  20  11]-0.00953 [  5   3  25  11]-0.00953
[  5   3  22  13]-0.00880 [  4   3  17  13]-0.00880 [  4   3  16  14]-0.00838
-----------------------------------------------------------------------------
   Norm of T2AA vector (      312 symmetry allowed elements):  0.0607242887.
-----------------------------------------------------------------------------
   Largest T2 amplitudes for spin case BB:
   i   j   a   b             i   j   a   b             i   j   a   b
-----------------------------------------------------------------------------
[  3   2  12   7]-0.01211 [  3   2  24  20] 0.01040 [  3   2  18  14] 0.01040
[  3   2  25  20]-0.00849 [  3   2  19  14]-0.00849 [  3   2  12   4] 0.00661
[  3   2  11   7]-0.00523 [  3   2  11   4] 0.00348 [  3   2  19  16]-0.00276
[  3   2  25  22]-0.00276 [  3   2  19  15]-0.00260 [  3   2  25  21]-0.00260
[  3   2  24  21] 0.00258 [  3   2  18  15] 0.00258 [  3   2  12   8] 0.00211
-----------------------------------------------------------------------------
   Norm of T2BB vector (      113 symmetry allowed elements):  0.0257384935.
-----------------------------------------------------------------------------
   Largest T2 amplitudes for spin case AB:
       _       _                 _       _                 _       _
   i   j   a   b             i   j   a   b             i   j   a   b
-----------------------------------------------------------------------------
[  3   3  14  12]-0.03034 [  5   3  22  12]-0.02281 [  4   3  17  12]-0.02281
[  3   2  14   7]-0.01871 [  3   2  24  20] 0.01818 [  3   2  19  14] 0.01818
[  5   2  22   7]-0.01809 [  4   2  17   7]-0.01809 [  2   3   9  12]-0.01792
[  4   2  26  20] 0.01758 [  5   2   7  20] 0.01758 [  4   2   7  14]-0.01758
[  5   2  26  14] 0.01758 [  5   2  10  20]-0.01622 [  4   2  27  20]-0.01622
-----------------------------------------------------------------------------
   Norm of T2AB vector (     1164 symmetry allowed elements):  0.1179258792.
-----------------------------------------------------------------------------
  @CHECKOUT-I, Total execution time (CPU/WALL):        0.04/       0.55 seconds.
--executable xintprc finished with status     0 in        1.48 seconds (walltime).
 --invoking executable--
/home/nike/cfour_v2.00beta/bin/xint
 @GETMEM-I,  Allocated   13351 MB of main memory.
  @CHECKOUT-I, Total execution time (CPU/WALL):        0.13/       0.14 seconds.
--executable xint finished with status     0 in        0.54 seconds (walltime).
 --invoking executable--
/home/nike/MRCC/dmrcc
 **********************************************************************
                          MRCC program system
 **********************************************************************
 
                              Written by
    Mihaly Kallay, Zoltan Rolik, Jozsef Csontos, Istvan Ladjanszki,
       Lorant Szegedy, Bence Ladoczki, Gyula Samu, Klara Petrov,
        Mate Farkas, Peter Nagy, David Mester, and Bence Hegely
 
        Department of Physical Chemistry and Materials Science
            Budapest University of Technology and Economics
                  Budapest P.O.Box 91, H-1521 Hungary
 
                              www.mrcc.hu

 ************************ 2019-01-01 20:38:20 *************************
 Executing minp...

 Reading input from MINP...
 
 Input file:
 
# F+ 2Z
basis=aCVDZ-EMSL
iface=cfour
uncontract=off
calc=CC(7)
mem=15GB
#core=1
core=0
itol=18
scftol=13
cctol=7
ccmaxit=999
scfmaxit=9999
scfiguess=ao
scftype=ROHF
rohftype=semicanonical
rest=2
charge=+1
refdet=serialno
1-3
4,5

symm=4
mult=3
#occ=3,0,0,0,0,1,0,0/1,0,0,0,0,1,0,0
geom
F

#Li 1 R

#R=3.065

#unit=angstroms

tprint=0.01
verbosity=6
#nstate=2

 
 
 Checking keyword combinations...
 
 Keywords:
 
 active=none
 agrid=ld0006-ld0590
 basis=acvdz-emsl
 basopt=off
 bpcompo=0.985
 bpcompv=0.98
 bpdfo=0.985
 bpocc=0.985
 bppdo=0.985
 bppdv=0.98
 bpedo=0.985
 bpedv=0.98
 calc=cc(7)
 ccmaxit=999
 ccprog=mrcc
 cctol=7
 charge=+1
 cialg=disk
 ciguess=off
 cmpgrp=auto
 core=corr
 corembed=off
 dboc=off
 dendec=cholesky
 dens=0
 dfalg=invsqrt
 dfbasis_cor=none
 dfbasis_scf=none
 dfintran=ovirt
 dft=off
 diag=david
 domrad=10.d0
 drpaalg=fit
 ecp=auto
 edisp=off
 embed=off
 epert=none
 eps=0.975
 excrad=0.d0
 excrad_fin=0.000000000D+00
 freq=off
 gauss=spher
 geom=zmat
 gopt=off
 ghost=none
 gtol=7
 grtol=10
 hamilton=dc
 iface=cfour
 intalg=auto
 itol=18
 lcorthr=loose
 lccrest=off
 lmp2dens=on
 lnoepso=3e-5
 lnoepsv=1e-6
 localcc=off
 locintrf=disk
 maxact=off
 maxex=0
 bfbasis=none
 mem=15gb
 molden=on
 mulmet=0
 mult=3
 nacto=0
 nactv=0
 naf_cor=off
 naf_scf=off
 nafalg=albe
 naftyp=
 nchol=auto
 ndeps=1e-3
 nstate=1
 nsing=0
 ntrip=0
 occ=
 optalg=
 optmaxit=50
 optetol=1e-6
 optgtol=1e-4
 optstol=1e-3
 orblocc=off
 orbloco=off
 orblocv=off
 osveps=1e-3
 ovirt=off
 ovosnorb=80.0
 ptfreq=0.0
 popul=off
 pressure=100000
 qmmm=off
 refdet=serialno
 rest=2
 rgrid=log3
 rohftype=semicanonical
 scspe=1.d0
 scsps=1.2d0
 scspt=0.33333333333333
 scfalg=auto
 scfdamp=off
 scfdiis=on
 scfdiis_end=9999
 scfdiis_start=1
 scfdiis_step=1
 scfdtol=17
 scfext=10
 scfiguess=ao
 scflshift=off
 scfmaxit=9999
 scftype=rohf
 scftol=13
 spairtol=1e-4
 symm=4
 talg=occ
 temp=298.15
 test=off
 tprint=0.01
 uncontract=off
 unit=angs
 verbosity=6
 wpairtol=0.100000000E-05

 ************************ 2019-01-01 20:38:21 *************************
 Executing goldstone...

 Generation of CC equations in terms of H and T...
 Generation of antisymmetrized Goldstone diagrams...
 Number of diagrams in T^1 equations:    15
 Number of diagrams in T^2 equations:    38
 Number of diagrams in T^3 equations:    54
 Number of diagrams in T^4 equations:    81
 Number of diagrams in T^5 equations:   106
 Number of diagrams in T^6 equations:   141
 Number of diagrams in T^7 equations:   169
 Translation of diagrams to factorized equations...
 Optimizing intermediate calculation...
 Number of floating-point operations per iteration step:   5.5432E+12
 Probable CPU time per iteration step (hours):     55.43
 Required memory (Mbytes):   11709.8
 Number of intermediates:                                 240
 Number of intermediates to be stored:                     88
 Length of intermediate file (Mbytes):    1261.4

 ************************ 2019-01-01 20:38:23 *************************
 Executing xmrcc...

 **********************************************************************
 CC(                     7 ) calculation 
 
 
 Allocation of7680.0 Mbytes of memory...
 Number of spinorbitals:                    54
 Number of alpha electrons:                        5
 Number of beta electrons:                         3
 Spin multiplicity:                     2
 z-component of spin:  1.0
 Spatial symmetry:                      4
 Convergence criterion:  1.0E-07
 Invalid spatial symmetry!
 
 Fatal error in xmrcc.
 Program will stop.
 
 ************************ 2019-01-01 20:38:24 *************************
                   Error at the termination of mrcc.
 **********************************************************************
--executable dmrcc finished with status   256 in        3.78 seconds (walltime).
  This computation required                           12.98 seconds (walltime).
--- SharcNET Job Epilogue ---
Job completed successfully.
               jobid: 1652353
               resid: 3131460
         exit status: 0
      allocated time: 14.1275
           user time: 2.55
         system time: 0.37
peak rss=209149952; peak vsz=209149952 (bytes)
atime=14.1275; utime=2.55; stime=0.37; exit=0

 **********************************************************************
                          MRCC program system
 **********************************************************************
 
                              Written by
    Mihaly Kallay, Zoltan Rolik, Jozsef Csontos, Istvan Ladjanszki,
       Lorant Szegedy, Bence Ladoczki, Gyula Samu, Klara Petrov,
        Mate Farkas, Peter Nagy, David Mester, and Bence Hegely
 
        Department of Physical Chemistry and Materials Science
            Budapest University of Technology and Economics
                  Budapest P.O.Box 91, H-1521 Hungary
 
                              www.mrcc.hu

 ************************ 2019-01-02 20:14:10 *************************
 Executing minp...

 Reading input from MINP...
 
 Input file:
 
# F+ 2Z
basis=aCVDZ-EMSL
iface=cfour
uncontract=off
calc=CC(7)
mem=15GB
#core=1
core=0
itol=18
scftol=13
cctol=7
ccmaxit=999
scfmaxit=9999
scfiguess=ao
scftype=ROHF
rohftype=semicanonical
rest=2
charge=+1
refdet=serialno
1-3
4,5

symm=7
mult=3
#occ=3,0,0,0,0,1,0,0/1,0,0,0,0,1,0,0
geom
F

#Li 1 R

#R=3.065

#unit=angstroms

tprint=0.01
verbosity=6
#nstate=2

 
 
 Checking keyword combinations...
 
 Keywords:
 
 active=none
 agrid=ld0006-ld0590
 basis=acvdz-emsl
 basopt=off
 bpcompo=0.985
 bpcompv=0.98
 bpdfo=0.985
 bpocc=0.985
 bppdo=0.985
 bppdv=0.98
 bpedo=0.985
 bpedv=0.98
 calc=cc(7)
 ccmaxit=999
 ccprog=mrcc
 cctol=7
 charge=+1
 cialg=disk
 ciguess=off
 cmpgrp=auto
 core=corr
 corembed=off
 dboc=off
 dendec=cholesky
 dens=0
 dfalg=invsqrt
 dfbasis_cor=none
 dfbasis_scf=none
 dfintran=ovirt
 dft=off
 diag=david
 domrad=10.d0
 drpaalg=fit
 ecp=auto
 edisp=off
 embed=off
 epert=none
 eps=0.975
 excrad=0.d0
 excrad_fin=0.000000000D+00
 freq=off
 gauss=spher
 geom=zmat
 gopt=off
 ghost=none
 gtol=7
 grtol=10
 hamilton=dc
 iface=cfour
 intalg=auto
 itol=18
 lcorthr=loose
 lccrest=off
 lmp2dens=on
 lnoepso=3e-5
 lnoepsv=1e-6
 localcc=off
 locintrf=disk
 maxact=off
 maxex=0
 bfbasis=none
 mem=15gb
 molden=on
 mulmet=0
 mult=3
 nacto=0
 nactv=0
 naf_cor=off
 naf_scf=off
 nafalg=albe
 naftyp=
 nchol=auto
 ndeps=1e-3
 nstate=1
 nsing=0
 ntrip=0
 occ=
 optalg=
 optmaxit=50
 optetol=1e-6
 optgtol=1e-4
 optstol=1e-3
 orblocc=off
 orbloco=off
 orblocv=off
 osveps=1e-3
 ovirt=off
 ovosnorb=80.0
 ptfreq=0.0
 popul=off
 pressure=100000
 qmmm=off
 refdet=serialno
 rest=2
 rgrid=log3
 rohftype=semicanonical
 scspe=1.d0
 scsps=1.2d0
 scspt=0.33333333333333
 scfalg=auto
 scfdamp=off
 scfdiis=on
 scfdiis_end=9999
 scfdiis_start=1
 scfdiis_step=1
 scfdtol=17
 scfext=10
 scfiguess=ao
 scflshift=off
 scfmaxit=9999
 scftype=rohf
 scftol=13
 spairtol=1e-4
 symm=7
 talg=occ
 temp=298.15
 test=off
 tprint=0.01
 uncontract=off
 unit=angs
 verbosity=6
 wpairtol=0.100000000E-05

 ************************ 2019-01-02 20:14:12 *************************
 Executing goldstone...

 Generation of CC equations in terms of H and T...
 Generation of antisymmetrized Goldstone diagrams...
 Number of diagrams in T^1 equations:    15
 Number of diagrams in T^2 equations:    38
 Number of diagrams in T^3 equations:    54
 Number of diagrams in T^4 equations:    81
 Number of diagrams in T^5 equations:   106
 Number of diagrams in T^6 equations:   141
 Number of diagrams in T^7 equations:   169
 Translation of diagrams to factorized equations...
 Optimizing intermediate calculation...
 Number of floating-point operations per iteration step:   5.5432E+12
 Probable CPU time per iteration step (hours):     55.43
 Required memory (Mbytes):   11709.8
 Number of intermediates:                                 240
 Number of intermediates to be stored:                     88
 Length of intermediate file (Mbytes):    1261.4

 ************************ 2019-01-02 20:14:13 *************************
 Executing xmrcc...

 **********************************************************************
 CC(                     7 ) calculation 
 
 
 Allocation of7680.0 Mbytes of memory...
 Number of spinorbitals:                    54
 Number of alpha electrons:                        5
 Number of beta electrons:                         3
 Spin multiplicity:                     2
 z-component of spin:  1.0
 Spatial symmetry:                      7
 Convergence criterion:  1.0E-07
 Construction of occupation graphs...
 Number of                     0 -fold excitations:                      1
 Number of                     1 -fold excitations:                     40
 Number of                     2 -fold excitations:                   1589
 Number of                     3 -fold excitations:                  34912
 Number of                     4 -fold excitations:                 410424
 Number of                     5 -fold excitations:                2512786
 Number of                     6 -fold excitations:                7923136
 Number of                     7 -fold excitations:               11977998
 Total number of configurations:               22860886
 Calculation of coupling coefficients...
 Length of intermediate file (Mbytes):     723.5
 
 ======================================================================
 
 Memory requirements /Mbyte/: 
               Minimal        Optimal
 Real*8:      34314.5523     34314.5523
 Integer:        25.3872
 Total:       34339.9396     34339.9396
 

 ************************ 2019-01-02 20:14:28 *************************
 Executing goldstone...

 Generation of MRCC equations in terms of H and T...
 Generation of antisymmetrized Goldstone diagrams...
 Number of diagrams in T^1 equations:    15
 Number of diagrams in T^2 equations:    38
 Number of diagrams in T^3 equations:    54
 Number of diagrams in T^4 equations:    81
 Number of diagrams in T^5 equations:   106
 Number of diagrams in T^6 equations:   141
 Number of diagrams in T^7 equations:   169
 Translation of diagrams to factorized equations...
 Number of restricted diagrams in T^1 equations:     30
 Number of restricted diagrams in T^2 equations:    129
 Number of restricted diagrams in T^3 equations:    306
 Number of restricted diagrams in T^4 equations:    674
 Number of restricted diagrams in T^5 equations:   1288
 Number of restricted diagrams in T^6 equations:   2340
 Number of restricted diagrams in T^7 equations:   3912
 Optimizing intermediate calculation...
 Number of floating-point operations per iteration step:   5.1928E+12
 Probable CPU time per iteration step (hours):     51.93
 Required memory (Mbytes):     125.0
 Number of intermediates:                                1863
 Number of intermediates to be stored:                    539
 Length of intermediate file (Mbytes):    3984.6

 ************************ 2019-01-02 20:14:40 *************************
 Executing xmrcc...

 **********************************************************************
 MRCC(                     7 ) calculation 
 
 
 Allocation of 125.0 Mbytes of memory...
 Number of spinorbitals:                    54
 Number of alpha electrons:                        5
 Number of beta electrons:                         3
 Number of active particles:                    24
 Number of active holes:                         0
 Spin multiplicity:                     2
 z-component of spin:  1.0
 Spatial symmetry:                      7
 Convergence criterion:  1.0E-07
 Construction of occupation graphs...
 Number of                     0 -fold excitations:                      1
 Number of                     1 -fold excitations:                     40
 Number of                     2 -fold excitations:                   1589
 Number of                     3 -fold excitations:                  34912
 Number of                     4 -fold excitations:                 410424
 Number of                     5 -fold excitations:                2512786
 Number of                     6 -fold excitations:                7923136
 Number of                     7 -fold excitations:               11977998
 Total number of configurations:               22860886
 Calculation of coupling coefficients...
 Length of intermediate file (Mbytes):    3377.5
 
 ======================================================================
 
 Memory requirements /Mbyte/: 
               Minimal        Optimal
 Real*8:        191.2096       191.2096
 Integer:        79.6049
 Total:         270.8146       270.8146
 

 ************************ 2019-01-02 20:22:28 *************************
 Executing goldstone...

 Generation of MRCC equations in terms of H and T...
 Generation of antisymmetrized Goldstone diagrams...
 Number of diagrams in T^1 equations:    15
 Number of diagrams in T^2 equations:    34
 Number of diagrams in T^3 equations:     2
 Translation of diagrams to factorized equations...
 Number of restricted diagrams in T^1 equations:     78
 Number of restricted diagrams in T^2 equations:    299
 Number of restricted diagrams in T^3 equations:     18
 Optimizing intermediate calculation...
 Number of floating-point operations per iteration step:   9.1047E+06
 Probable CPU time per iteration step (hours):      0.00
 Required memory (Mbytes):      38.2
 Number of intermediates:                                 239
 Number of intermediates to be stored:                    105
 Length of intermediate file (Mbytes):       1.2

 ************************ 2019-01-02 20:22:29 *************************
 Executing xmrcc...

 **********************************************************************
 MRCC(                     3 ) calculation 
 
 
 Allocation of 100.0 Mbytes of memory...
 Number of spinorbitals:                    54
 Number of alpha electrons:                        5
 Number of beta electrons:                         3
 Number of active particles:                    24
 Number of active holes:                         0
 Spin multiplicity:                     2
 z-component of spin:  1.0
 Spatial symmetry:                      7
 Convergence criterion:  1.0E-07
 Construction of occupation graphs...
 Number of                     0 -fold excitations:                      1
 Number of                     1 -fold excitations:                     40
 Number of                     2 -fold excitations:                   1589
 Total number of configurations:                   1630
 Calculation of coupling coefficients...
 Length of intermediate file (Mbytes):       2.0
 
 ======================================================================
 
 Spin case  1   Alpha:  0   Beta:  3
 Number of excitations:                     27
 Spin case  2   Alpha:  1   Beta:  2
 Number of excitations:                   1458
 Spin case  3   Alpha:  2   Beta:  1
 Number of excitations:                   2976
 Spin case  4   Alpha:  3   Beta:  0
 Number of excitations:                    284
 Spin case  5   Alpha:  0   Beta:  3
 Number of excitations:                     93
 Spin case  6   Alpha:  1   Beta:  2
 Number of excitations:                   1207
 Spin case  7   Alpha:  1   Beta:  2
 Number of excitations:                   3330
 Spin case  8   Alpha:  2   Beta:  1
 Number of excitations:                   5496
 Spin case  9   Alpha:  2   Beta:  1
 Number of excitations:                   3002
 Spin case 10   Alpha:  3   Beta:  0
 Number of excitations:                    822
 Spin case 11   Alpha:  0   Beta:  3
 Number of excitations:                    104
 Spin case 12   Alpha:  1   Beta:  2
 Number of excitations:                   2787
 Spin case 13   Alpha:  1   Beta:  2
 Number of excitations:                   1545
 Spin case 14   Alpha:  2   Beta:  1
 Number of excitations:                   2040
 Spin case 15   Alpha:  2   Beta:  1
 Number of excitations:                   5536
 Spin case 16   Alpha:  3   Beta:  0
 Number of excitations:                    666
 Spin case 17   Alpha:  0   Beta:  3
 Number of excitations:                     29
 Spin case 18   Alpha:  1   Beta:  2
 Number of excitations:                   1295
 Spin case 19   Alpha:  2   Beta:  1
 Number of excitations:                   2055
 Spin case 20   Alpha:  3   Beta:  0
 Number of excitations:                    160
 Number of                     3 -fold excitations:                  34912
 
 Memory requirements /Mbyte/: 
               Minimal        Optimal
 Real*8:         50.1871        50.1871
 Integer:         5.9613
 Total:          56.1484        56.1484
 

 ************************ 2019-01-02 20:22:30 *************************
 Executing mrcc...

 **********************************************************************
 CCSD(T) calculation                                                    
 
 
 OpenMP parallel version is running.
 Number of CPUs:  16
 Allocation of   50.2 Mbytes of memory...
 Number of spinorbitals:  54
 Number of alpha electrons:  5
 Number of beta  electrons:  3
 Number of active particles:                    24
 Number of active holes:                         0
 Spin multiplicity: 2
 z-component of spin:  1.0
 Spatial symmetry: 7
 Convergence criterion:  1.0E-07
 Construction of occupation graphs...
 Number of 0-fold excitations: 1
 Number of 1-fold excitations: 40
 Number of 2-fold excitations: 1589
 Total number of determinants: 1630
 Calculation of coupling coefficients...
 Initial cluster amplitudes are generated.
 Length of intermediate file (Mbytes):       2.0
 Reading integral list from unit 55...
 Sorting integrals...
 Sorting integrals...
 Sorting integrals...
 Sorting integrals...
 Energy of reference determinant [au]:     -98.795907639115
 Calculation of MP denominators...
 
 Starting CC iteration...
 ======================================================================
 Norm of residual vector:     2.37051203
 CPU time [min]:     0.274                   Wall time [min]:     0.020
 
 Iteration  1  CC energy:   -98.94558271  Energy decrease:   0.14967507
 ======================================================================
 Norm of residual vector:     0.14884257
 CPU time [min]:     0.369                   Wall time [min]:     0.025
 
 Iteration  2  CC energy:   -98.95992323  Energy decrease:   0.01434053
 ======================================================================
 Norm of residual vector:     0.02338836
 CPU time [min]:     0.463                   Wall time [min]:     0.031
 
 Iteration  3  CC energy:   -98.96131841  Energy decrease:   0.00139518
 ======================================================================
 Norm of residual vector:     0.00578269
 CPU time [min]:     0.547                   Wall time [min]:     0.037
 
 Iteration  4  CC energy:   -98.96145112  Energy decrease:   0.00013271
 ======================================================================
 Norm of residual vector:     0.00192105
 CPU time [min]:     0.632                   Wall time [min]:     0.042
 
 Iteration  5  CC energy:   -98.96145921  Energy decrease:   0.00000809
 ======================================================================
 Norm of residual vector:     0.00050896
 CPU time [min]:     0.716                   Wall time [min]:     0.047
 
 Iteration  6  CC energy:   -98.96146178  Energy decrease:   0.00000257
 ======================================================================
 Norm of residual vector:     0.00011207
 CPU time [min]:     0.806                   Wall time [min]:     0.053
 
 Iteration  7  CC energy:   -98.96146320  Energy decrease:   0.00000141
 ======================================================================
 Norm of residual vector:     0.00002896
 CPU time [min]:     0.902                   Wall time [min]:     0.059
 
 Iteration  8  CC energy:   -98.96146327  Energy decrease:   0.00000008
 ======================================================================
 Norm of residual vector:     0.00000661
 CPU time [min]:     0.998                   Wall time [min]:     0.065
 
 Iteration  9  CC energy:   -98.96146318  Energy decrease:   0.00000009
 ======================================================================
 Norm of residual vector:     0.00000130
 CPU time [min]:     1.094                   Wall time [min]:     0.071
 
 Iteration 10  CC energy:   -98.96146317  Energy decrease:   0.00000001
 ======================================================================
 Norm of residual vector:     0.00000025
 CPU time [min]:     1.190                   Wall time [min]:     0.077
 
 Iteration 11  CC energy:   -98.96146317  Energy decrease:   2.3625E-09
 ======================================================================
 Norm of residual vector:     0.00000004
 CPU time [min]:     1.282                   Wall time [min]:     0.083
 
 Iteration 12  CC energy:   -98.96146317  Energy decrease:   4.7088E-10
 ======================================================================
 
 Iteration has converged in 12 steps.
 
 Final results:
 Total CCSD energy [au]:             -98.961463172625
 
 Perturbative corrections are calculated...
 ======================================================================
 Spin case  1   Alpha:  0   Beta:  3
 Number of excitations:        27
 CPU time [min]:     1.302                   Wall time [min]:     0.084
 ======================================================================
 Spin case  2   Alpha:  1   Beta:  2
 Number of excitations:        1458
 CPU time [min]:     1.318                   Wall time [min]:     0.085
 ======================================================================
 Spin case  3   Alpha:  2   Beta:  1
 Number of excitations:        2976
 CPU time [min]:     1.334                   Wall time [min]:     0.086
 ======================================================================
 Spin case  4   Alpha:  3   Beta:  0
 Number of excitations:        284
 CPU time [min]:     1.340                   Wall time [min]:     0.086
 ======================================================================
 Spin case  5   Alpha:  0   Beta:  3
 Number of excitations:        93
 CPU time [min]:     1.351                   Wall time [min]:     0.087
 ======================================================================
 Spin case  6   Alpha:  1   Beta:  2
 Number of excitations:        1207
 CPU time [min]:     1.368                   Wall time [min]:     0.088
 ======================================================================
 Spin case  7   Alpha:  1   Beta:  2
 Number of excitations:        3330
 CPU time [min]:     1.393                   Wall time [min]:     0.090
 ======================================================================
 Spin case  8   Alpha:  2   Beta:  1
 Number of excitations:        5496
 CPU time [min]:     1.415                   Wall time [min]:     0.091
 ======================================================================
 Spin case  9   Alpha:  2   Beta:  1
 Number of excitations:        3002
 CPU time [min]:     1.430                   Wall time [min]:     0.092
 ======================================================================
 Spin case 10   Alpha:  3   Beta:  0
 Number of excitations:        822
 CPU time [min]:     1.439                   Wall time [min]:     0.092
 ======================================================================
 Spin case 11   Alpha:  0   Beta:  3
 Number of excitations:        104
 CPU time [min]:     1.448                   Wall time [min]:     0.093
 ======================================================================
 Spin case 12   Alpha:  1   Beta:  2
 Number of excitations:        2787
 CPU time [min]:     1.469                   Wall time [min]:     0.094
 ======================================================================
 Spin case 13   Alpha:  1   Beta:  2
 Number of excitations:        1545
 CPU time [min]:     1.482                   Wall time [min]:     0.095
 ======================================================================
 Spin case 14   Alpha:  2   Beta:  1
 Number of excitations:        2040
 CPU time [min]:     1.496                   Wall time [min]:     0.096
 ======================================================================
 Spin case 15   Alpha:  2   Beta:  1
 Number of excitations:        5536
 CPU time [min]:     1.519                   Wall time [min]:     0.097
 ======================================================================
 Spin case 16   Alpha:  3   Beta:  0
 Number of excitations:        666
 CPU time [min]:     1.528                   Wall time [min]:     0.098
 ======================================================================
 Spin case 17   Alpha:  0   Beta:  3
 Number of excitations:        29
 CPU time [min]:     1.533                   Wall time [min]:     0.098
 ======================================================================
 Spin case 18   Alpha:  1   Beta:  2
 Number of excitations:        1295
 CPU time [min]:     1.545                   Wall time [min]:     0.099
 ======================================================================
 Spin case 19   Alpha:  2   Beta:  1
 Number of excitations:        2055
 CPU time [min]:     1.558                   Wall time [min]:     0.100
 ======================================================================
 Spin case 20   Alpha:  3   Beta:  0
 Number of excitations:        160
 CPU time [min]:     1.563                   Wall time [min]:     0.100
 ======================================================================
 Number of 3-fold excitations: 34912
 
 
 CPU time [min]:     1.580                   Wall time [min]:     0.101
 
 Total CCSD[T] energy [au]:          -98.962875730605
 Total CCSD(T) energy [au]:          -98.962828156405
 
 Dominant cluster amplitudes
 Printing threshold:  1.00E-02
 
    1.000000  Reference determinant                                     
   -0.013400  2b -> 18b                                                 
    0.010183  2b -> 19b                                                 
   -0.015787  3b -> 17b                                                 
    0.012458  2a -> 18a                                                 
   -0.012603  2a -> 23a                                                 
    0.016720  2b -> 6b                                                  
    0.012484  2b -> 10b                                                 
   -0.016870  3b -> 9b                                                  
   -0.013847  2a -> 14a                                                 
    0.011027  2b 3b -> 17b 18b                                          
   -0.015787  2a 2b -> 18a 18b                                          
   -0.014125  3a 3b -> 23a 19b                                          
   -0.010928  3a 3b -> 21a 21b                                          
   -0.010928  3a 3b -> 22a 22b                                          
   -0.020167  2a 3b -> 18a 17b                                          
   -0.018669  3a 2b -> 22a 4b                                           
   -0.019182  5a 2b -> 20a 4b                                           
   -0.010636  4a 2b -> 18a 4b                                           
   -0.019182  4a 2b -> 19a 4b                                           
    0.010309  4a 2b -> 23a 4b                                           
   -0.011013  4a 5a -> 19a 20a                                          
   -0.012557  2b 3b -> 12b 4b                                           
   -0.018669  3a 2b -> 21a 5b                                           
   -0.010636  5a 2b -> 18a 5b                                           
    0.019182  5a 2b -> 19a 5b                                           
    0.010309  5a 2b -> 23a 5b                                           
   -0.019182  4a 2b -> 20a 5b                                           
   -0.010144  3a 3b -> 14a 19b                                          
   -0.015072  3a 3b -> 9a 17b                                           
   -0.034365  3a 3b -> 17a 17b                                          
    0.011318  2a 3b -> 6a 17b                                           
   -0.019901  3a 2b -> 17a 18b                                          
    0.022519  3a 2b -> 12a 4b                                           
   -0.019339  5a 2b -> 16a 18b                                          
    0.023307  5a 2b -> 11a 4b                                           
   -0.010950  5a 3b -> 8a 17b                                           
   -0.024920  5a 3b -> 16a 17b                                          
    0.010915  4a 2b -> 6a 4b                                            
    0.023307  4a 2b -> 10a 4b                                           
    0.012409  4a 2b -> 14a 4b                                           
   -0.019339  4a 2b -> 15a 18b                                          
   -0.010950  4a 3b -> 7a 17b                                           
   -0.024920  4a 3b -> 15a 17b                                          
    0.011669  2a 3a -> 17a 18a                                          
    0.011542  2a 5a -> 16a 18a                                          
    0.011542  2a 4a -> 15a 18a                                          
    0.012557  2b 3b -> 5b 13b                                           
   -0.014540  3a 3b -> 14a 10b                                          
   -0.015538  3a 3b -> 17a 9b                                           
   -0.011274  3a 3b -> 13a 13b                                          
   -0.011274  3a 3b -> 12a 12b                                          
    0.011450  3a 2b -> 17a 6b                                           
    0.022519  3a 2b -> 13a 5b                                           
    0.010915  5a 2b -> 6a 5b                                            
   -0.023307  5a 2b -> 10a 5b                                           
    0.012409  5a 2b -> 14a 5b                                           
    0.011046  5a 2b -> 16a 6b                                           
   -0.011531  5a 3b -> 16a 9b                                           
    0.011046  4a 2b -> 15a 6b                                           
    0.023307  4a 2b -> 11a 5b                                           
   -0.011531  4a 3b -> 15a 9b                                           
   -0.010548  3a 5a -> 13a 14a                                          
    0.019767  3a 5a -> 16a 17a                                          
   -0.010548  3a 4a -> 12a 14a                                          
    0.019767  3a 4a -> 15a 17a                                          
   -0.011014  4a 5a -> 10a 11a                                          
   -0.019538  4a 5a -> 15a 16a                                          

 ************************ 2019-01-02 20:22:39 *************************
 Executing goldstone...

 Generation of MRCC equations in terms of H and T...
 Generation of antisymmetrized Goldstone diagrams...
 Number of diagrams in T^1 equations:    15
 Number of diagrams in T^2 equations:    38
 Number of diagrams in T^3 equations:    50
 Number of diagrams in T^4 equations:     5
 Translation of diagrams to factorized equations...
 Number of restricted diagrams in T^1 equations:     78
 Number of restricted diagrams in T^2 equations:    344
 Number of restricted diagrams in T^3 equations:    830
 Number of restricted diagrams in T^4 equations:     86
 Optimizing intermediate calculation...
 Number of floating-point operations per iteration step:   5.3229E+08
 Probable CPU time per iteration step (hours):      0.01
 Required memory (Mbytes):      38.2
 Number of intermediates:                                 540
 Number of intermediates to be stored:                    209
 Length of intermediate file (Mbytes):       5.2

 ************************ 2019-01-02 20:22:41 *************************
 Executing xmrcc...

 **********************************************************************
 MRCC(                     4 ) calculation 
 
 
 Allocation of 100.0 Mbytes of memory...
 Number of spinorbitals:                    54
 Number of alpha electrons:                        5
 Number of beta electrons:                         3
 Number of active particles:                    24
 Number of active holes:                         0
 Spin multiplicity:                     2
 z-component of spin:  1.0
 Spatial symmetry:                      7
 Convergence criterion:  1.0E-07
 Construction of occupation graphs...
 Number of                     0 -fold excitations:                      1
 Number of                     1 -fold excitations:                     40
 Number of                     2 -fold excitations:                   1589
 Number of                     3 -fold excitations:                  34912
 Total number of configurations:                  36542
 Calculation of coupling coefficients...
 Length of intermediate file (Mbytes):       6.2
 
 ======================================================================
 
 Spin case  1   Alpha:  1   Beta:  3
 Number of excitations:                   1614
 Spin case  2   Alpha:  2   Beta:  2
 Number of excitations:                  16332
 Spin case  3   Alpha:  3   Beta:  1
 Number of excitations:                   9972
 Spin case  4   Alpha:  4   Beta:  0
 Number of excitations:                    336
 Spin case  5   Alpha:  1   Beta:  3
 Number of excitations:                   1344
 Spin case  6   Alpha:  1   Beta:  3
 Number of excitations:                   5844
 Spin case  7   Alpha:  2   Beta:  2
 Number of excitations:                  29628
 Spin case  8   Alpha:  2   Beta:  2
 Number of excitations:                  35652
 Spin case  9   Alpha:  3   Beta:  1
 Number of excitations:                  29640
 Spin case 10   Alpha:  3   Beta:  1
 Number of excitations:                  10002
 Spin case 11   Alpha:  4   Beta:  0
 Number of excitations:                   1429
 Spin case 12   Alpha:  1   Beta:  3
 Number of excitations:                   4849
 Spin case 13   Alpha:  1   Beta:  3
 Number of excitations:                   5970
 Spin case 14   Alpha:  2   Beta:  2
 Number of excitations:                  11118
 Spin case 15   Alpha:  2   Beta:  2
 Number of excitations:                  65040
 Spin case 16   Alpha:  2   Beta:  2
 Number of excitations:                  16358
 Spin case 17   Alpha:  3   Beta:  1
 Number of excitations:                  24228
 Spin case 18   Alpha:  3   Beta:  1
 Number of excitations:                  29644
 Spin case 19   Alpha:  4   Beta:  0
 Number of excitations:                   1854
 Spin case 20   Alpha:  1   Beta:  3
 Number of excitations:                   4985
 Spin case 21   Alpha:  1   Beta:  3
 Number of excitations:                   1653
 Spin case 22   Alpha:  2   Beta:  2
 Number of excitations:                  24336
 Spin case 23   Alpha:  2   Beta:  2
 Number of excitations:                  29860
 Spin case 24   Alpha:  3   Beta:  1
 Number of excitations:                   5440
 Spin case 25   Alpha:  3   Beta:  1
 Number of excitations:                  24198
 Spin case 26   Alpha:  4   Beta:  0
 Number of excitations:                    936
 Spin case 27   Alpha:  1   Beta:  3
 Number of excitations:                   1373
 Spin case 28   Alpha:  2   Beta:  2
 Number of excitations:                  11163
 Spin case 29   Alpha:  3   Beta:  1
 Number of excitations:                   5480
 Spin case 30   Alpha:  4   Beta:  0
 Number of excitations:                    146
 Number of                     4 -fold excitations:                 410424
 
 Memory requirements /Mbyte/: 
               Minimal        Optimal
 Real*8:        184.9184       184.9184
 Integer:        12.1931
 Total:         197.1114       197.1114
 

 ************************ 2019-01-02 20:22:53 *************************
 Executing mrcc...

 **********************************************************************
 CCSDT(Q) calculation                                                   
 
 
 OpenMP parallel version is running.
 Number of CPUs:  16
 Allocation of  184.9 Mbytes of memory...
[...]
atime=34749.5; utime=473923; stime=1678.07; exit=0


 **********************************************************************
                          MRCC program system
 **********************************************************************
 
                              Written by
    Mihaly Kallay, Zoltan Rolik, Jozsef Csontos, Istvan Ladjanszki,
       Lorant Szegedy, Bence Ladoczki, Gyula Samu, Klara Petrov,
        Mate Farkas, Peter Nagy, David Mester, and Bence Hegely
 
        Department of Physical Chemistry and Materials Science
            Budapest University of Technology and Economics
                  Budapest P.O.Box 91, H-1521 Hungary
 
                              www.mrcc.hu

 ************************ 2019-02-12 20:17:40 *************************
 Executing minp...

 Reading input from MINP...
 
 Input file:
 
# F+ 2Z
basis=aCVDZ-EMSL
iface=cfour
uncontract=off
calc=CC(8)
mem=32GB
#core=1
core=0
itol=18
scftol=13
cctol=7
ccmaxit=999
scfmaxit=9999
scfiguess=ao
scftype=ROHF
rohftype=semicanonical
rest=1
charge=+1
refdet=serialno
1-3
4,5

symm=7
mult=3
#occ=3,0,0,0,0,1,0,0/1,0,0,0,0,1,0,0
geom
F

#Li 1 R

#R=3.065

#unit=angstroms

tprint=0.01
verbosity=6
#nstate=2

 
 
 Checking keyword combinations...
 
 Keywords:
 
 active=none
 agrid=ld0006-ld0590
 basis=acvdz-emsl
 basopt=off
 bpcompo=0.985
 bpcompv=0.98
 bpdfo=0.985
 bpocc=0.985
 bppdo=0.985
 bppdv=0.98
 bpedo=0.985
 bpedv=0.98
 calc=cc(8)
 ccmaxit=999
 ccprog=mrcc
 cctol=7
 charge=+1
 cialg=disk
 ciguess=off
 cmpgrp=auto
 core=corr
 corembed=off
 dboc=off
 dendec=cholesky
 dens=0
 dfalg=invsqrt
 dfbasis_cor=none
 dfbasis_scf=none
 dfintran=ovirt
 dft=off
 diag=david
 domrad=10.d0
 drpaalg=fit
 ecp=auto
 edisp=off
 embed=off
 epert=none
 eps=0.975
 excrad=0.d0
 excrad_fin=0.000000000D+00
 freq=off
 gauss=spher
 geom=zmat
 gopt=off
 ghost=none
 gtol=7
 grtol=10
 hamilton=dc
 iface=cfour
 intalg=auto
 itol=18
 lcorthr=loose
 lccrest=off
 lmp2dens=on
 lnoepso=3e-5
 lnoepsv=1e-6
 localcc=off
 locintrf=disk
 maxact=off
 maxex=0
 bfbasis=none
 mem=32gb
 molden=on
 mulmet=0
 mult=3
 nacto=0
 nactv=0
 naf_cor=off
 naf_scf=off
 nafalg=albe
 naftyp=
 nchol=auto
 ndeps=1e-3
 nstate=1
 nsing=0
 ntrip=0
 occ=
 optalg=
 optmaxit=50
 optetol=1e-6
 optgtol=1e-4
 optstol=1e-3
 orblocc=off
 orbloco=off
 orblocv=off
 osveps=1e-3
 ovirt=off
 ovosnorb=80.0
 ptfreq=0.0
 popul=off
 pressure=100000
 qmmm=off
 refdet=serialno
 rest=1
 rgrid=log3
 rohftype=semicanonical
 scspe=1.d0
 scsps=1.2d0
 scspt=0.33333333333333
 scfalg=auto
 scfdamp=off
 scfdiis=on
 scfdiis_end=9999
 scfdiis_start=1
 scfdiis_step=1
 scfdtol=17
 scfext=10
 scfiguess=ao
 scflshift=off
 scfmaxit=9999
 scftype=rohf
 scftol=13
 spairtol=1e-4
 symm=7
 talg=occ
 temp=298.15
 test=off
 tprint=0.01
 uncontract=off
 unit=angs
 verbosity=6
 wpairtol=0.100000000E-05

 ************************ 2019-02-12 20:17:43 *************************
 Executing goldstone...

 Generation of CC equations in terms of H and T...
 Generation of antisymmetrized Goldstone diagrams...
 Number of diagrams in T^1 equations:    15
 Number of diagrams in T^2 equations:    38
 Number of diagrams in T^3 equations:    54
 Number of diagrams in T^4 equations:    81
 Number of diagrams in T^5 equations:   106
 Number of diagrams in T^6 equations:   142
 Number of diagrams in T^7 equations:   175
 Number of diagrams in T^8 equations:   215
 Translation of diagrams to factorized equations...
 Optimizing intermediate calculation...
 Number of floating-point operations per iteration step:   2.4348E+13
 Probable CPU time per iteration step (hours):    243.48
 Required memory (Mbytes):   32997.5
 Number of intermediates:                                 300
 Number of intermediates to be stored:                    110
 Length of intermediate file (Mbytes):    6090.5

 ************************ 2019-02-12 20:17:49 *************************
 Executing xmrcc...

 **********************************************************************
 CC(                     8 ) calculation 
 
 
 Allocation of****** Mbytes of memory...
 Number of spinorbitals:                    54
 Number of alpha electrons:                        5
 Number of beta electrons:                         3
 Spin multiplicity:                     2
 z-component of spin:  1.0
 Spatial symmetry:                      7
 Convergence criterion:  1.0E-07
 Construction of occupation graphs...
 Number of                     0 -fold excitations:                      1
 Number of                     1 -fold excitations:                     40
 Number of                     2 -fold excitations:                   1589
 Number of                     3 -fold excitations:                  34912
 Number of                     4 -fold excitations:                 410424
 Number of                     5 -fold excitations:                2512786
 Number of                     6 -fold excitations:                7923136
 Number of                     7 -fold excitations:               11977998
 Number of                     8 -fold excitations:                6661314
 Total number of configurations:               29522200
 Calculation of coupling coefficients...
 Length of intermediate file (Mbytes):    3236.4
 
 ======================================================================
 
 Memory requirements /Mbyte/: 
               Minimal        Optimal
 Real*8:      81375.9951     81375.9951
 Integer:        25.6304
 Total:       81401.6255     81401.6255
 

 ************************ 2019-02-12 20:18:07 *************************
 Executing goldstone...

 Generation of MRCC equations in terms of H and T...
 Generation of antisymmetrized Goldstone diagrams...
 Number of diagrams in T^1 equations:    15
 Number of diagrams in T^2 equations:    38
 Number of diagrams in T^3 equations:    54
 Number of diagrams in T^4 equations:    81
 Number of diagrams in T^5 equations:   106
 Number of diagrams in T^6 equations:   142
 Number of diagrams in T^7 equations:   175
 Number of diagrams in T^8 equations:   215
 Translation of diagrams to factorized equations...
 Number of restricted diagrams in T^1 equations:     30
 Number of restricted diagrams in T^2 equations:    129
 Number of restricted diagrams in T^3 equations:    306
 Number of restricted diagrams in T^4 equations:    674
 Number of restricted diagrams in T^5 equations:   1288
 Number of restricted diagrams in T^6 equations:   2347
 Number of restricted diagrams in T^7 equations:   3972
 Number of restricted diagrams in T^8 equations:   6459
 Optimizing intermediate calculation...
 Number of floating-point operations per iteration step:   1.8993E+13
 Probable CPU time per iteration step (hours):    189.93
 Required memory (Mbytes):     523.2
 Number of intermediates:                                2915
 Number of intermediates to be stored:                    818
 Length of intermediate file (Mbytes):   14439.7

 ************************ 2019-02-12 20:18:25 *************************
 Executing xmrcc...

 **********************************************************************
 MRCC(                     8 ) calculation 
 
 
 Allocation of 523.2 Mbytes of memory...
 Number of spinorbitals:                    54
 Number of alpha electrons:                        5
 Number of beta electrons:                         3
 Number of active particles:                    24
 Number of active holes:                         0
 Spin multiplicity:                     2
 z-component of spin:  1.0
 Spatial symmetry:                      7
 Convergence criterion:  1.0E-07
 Construction of occupation graphs...
 Number of                     0 -fold excitations:                      1
 Number of                     1 -fold excitations:                     40
 Number of                     2 -fold excitations:                   1589
 Number of                     3 -fold excitations:                  34912
 Number of                     4 -fold excitations:                 410424
 Number of                     5 -fold excitations:                2512786
 Number of                     6 -fold excitations:                7923136
 Number of                     7 -fold excitations:               11977998
 Number of                     8 -fold excitations:                6661314
 Total number of configurations:               29522200
 Calculation of coupling coefficients...
 Length of intermediate file (Mbytes):   11859.9
 
 ======================================================================
 
 Memory requirements /Mbyte/: 
               Minimal        Optimal
 Real*8:        525.0331       525.0331
 Integer:       130.9585
 Total:         655.9916       655.9916
 
 The number of active orbitals has been changed!
 It is dangerous to restart the program!

 ************************ 2019-02-12 20:29:45 *************************
 Executing mrcc...

 **********************************************************************
 CC(8) calculation                                                      
 
 
 OpenMP parallel version is running.
 Number of CPUs:  16
 Allocation of  525.0 Mbytes of memory...
 Number of spinorbitals:  54
 Number of alpha electrons:  5
 Number of beta  electrons:  3
 Number of active particles:                    24
 Number of active holes:                         0
 Spin multiplicity: 2
 z-component of spin:  1.0
 Spatial symmetry: 7
 Convergence criterion:  1.0E-07
 Construction of occupation graphs...
 Number of 0-fold excitations: 1
 Number of 1-fold excitations: 40
 Number of 2-fold excitations: 1589
 Number of 3-fold excitations: 34912
 Number of 4-fold excitations: 410424
 Number of 5-fold excitations: 2512786
 Number of 6-fold excitations: 7923136
 Number of 7-fold excitations: 11977998
 Number of 8-fold excitations: 6661314
 Total number of determinants: 29522200
 Calculation of coupling coefficients...
 Initial cluster amplitudes are read from unit 16.
 Length of intermediate file (Mbytes):   11859.9
 Reading integral list from unit 55...
 Sorting integrals...
 Sorting integrals...
 Sorting integrals...
 Sorting integrals...
 Energy of reference determinant [au]:     -98.795907639115
 Calculation of MP denominators...
 
 Starting CC iteration...
 ======================================================================
 Norm of residual vector:     4.36411025
 CPU time [min]:  3486.189                   Wall time [min]:   246.064
 
 Iteration  1  CC energy:   -98.94562877  Energy decrease:   0.14900851
 ======================================================================
 Norm of residual vector:     0.28239094
 CPU time [min]:  7060.707                   Wall time [min]:   513.676
 
 Iteration  2  CC energy:   -98.95972044  Energy decrease:   0.01409167
 ======================================================================
 Norm of residual vector:     0.03972603
 CPU time [min]: 10578.882                   Wall time [min]:   759.819
 
 Iteration  3  CC energy:   -98.96268547  Energy decrease:   0.00296504
 ======================================================================
 Norm of residual vector:     0.01256610
 CPU time [min]: 14045.386                   Wall time [min]:   997.947
 
 Iteration  4  CC energy:   -98.96298064  Energy decrease:   0.00029516
 ======================================================================
 Norm of residual vector:     0.00400263
 CPU time [min]: 17569.072                   Wall time [min]:  1247.790
 
 Iteration  5  CC energy:   -98.96296756  Energy decrease:   0.00001307
 ======================================================================
 Norm of residual vector:     0.00167973
 CPU time [min]: 21025.429                   Wall time [min]:  1481.722
 
 Iteration  6  CC energy:   -98.96297996  Energy decrease:   0.00001240
 ======================================================================
 Norm of residual vector:     0.00066371
 CPU time [min]: 24540.053                   Wall time [min]:  1729.683
 
 Iteration  7  CC energy:   -98.96298807  Energy decrease:   0.00000810
 ======================================================================
 Norm of residual vector:     0.00024857
 CPU time [min]: 28020.941                   Wall time [min]:  1970.895
 
 Iteration  8  CC energy:   -98.96298836  Energy decrease:   0.00000030
 ======================================================================
 Norm of residual vector:     0.00009114
 CPU time [min]: 31541.645                   Wall time [min]:  2220.662
 
 Iteration  9  CC energy:   -98.96298805  Energy decrease:   0.00000032
 ======================================================================
 Norm of residual vector:     0.00003569
 CPU time [min]: 35006.955                   Wall time [min]:  2454.859
 
 Iteration 10  CC energy:   -98.96298796  Energy decrease:   0.00000008
 ======================================================================
 Norm of residual vector:     0.00001227
 CPU time [min]: 38518.619                   Wall time [min]:  2700.480
 
 Iteration 11  CC energy:   -98.96298794  Energy decrease:   0.00000003
 ======================================================================
 Norm of residual vector:     0.00000402
 CPU time [min]: 42094.034                   Wall time [min]:  2971.710
 
 Iteration 12  CC energy:   -98.96298793  Energy decrease:   0.00000001
 ======================================================================
 Norm of residual vector:     0.00000110
 CPU time [min]: 45604.853                   Wall time [min]:  3218.856
 
 Iteration 13  CC energy:   -98.96298793  Energy decrease:   6.2789E-10
 ======================================================================
 Norm of residual vector:     0.00000030
 CPU time [min]: 49085.368                   Wall time [min]:  3456.452
 
 Iteration 14  CC energy:   -98.96298793  Energy decrease:   7.7458E-10
 ======================================================================
 Norm of residual vector:     0.00000009
 CPU time [min]: 52542.564                   Wall time [min]:  3687.736
 
 Iteration 15  CC energy:   -98.96298793  Energy decrease:   2.3333E-10
 ======================================================================
 
 Iteration has converged in 15 steps.
 
 Final results:
 Total CC(8) energy [au]:            -98.962987929522
 
 Dominant cluster amplitudes
 Printing threshold:  1.00E-02
 
    1.000000  Reference determinant                                     
   -0.013129  2b -> 18b                                                 
    0.010230  2b -> 19b                                                 
   -0.015107  3b -> 17b                                                 
    0.012800  2a -> 18a                                                 
   -0.012613  2a -> 23a                                                 
    0.016313  2b -> 6b                                                  
    0.012491  2b -> 10b                                                 
   -0.016273  3b -> 9b                                                  
   -0.013902  2a -> 14a                                                 
    0.011215  2b 3b -> 17b 18b                                          
   -0.015862  2a 2b -> 18a 18b                                          
   -0.014159  3a 3b -> 23a 19b                                          
   -0.010938  3a 3b -> 21a 21b                                          
   -0.010938  3a 3b -> 22a 22b                                          
   -0.020287  2a 3b -> 18a 17b                                          
   -0.018788  3a 2b -> 22a 4b                                           
   -0.019289  5a 2b -> 20a 4b                                           
   -0.010780  4a 2b -> 18a 4b                                           
   -0.019289  4a 2b -> 19a 4b                                           
    0.010368  4a 2b -> 23a 4b                                           
   -0.011047  4a 5a -> 19a 20a                                          
   -0.012966  2b 3b -> 12b 4b                                           
   -0.018788  3a 2b -> 21a 5b                                           
   -0.010780  5a 2b -> 18a 5b                                           
    0.019289  5a 2b -> 19a 5b                                           
    0.010368  5a 2b -> 23a 5b                                           
   -0.010037  5a 2b -> 18a 16b                                          
   -0.010037  4a 2b -> 18a 15b                                          
   -0.019289  4a 2b -> 20a 5b                                           
   -0.010184  3a 3b -> 14a 19b                                          
   -0.015448  3a 3b -> 9a 17b                                           
   -0.034768  3a 3b -> 17a 17b                                          
    0.011521  2a 3b -> 6a 17b                                           
   -0.020095  3a 2b -> 17a 18b                                          
    0.023164  3a 2b -> 12a 4b                                           
   -0.019553  5a 2b -> 16a 18b                                          
    0.023901  5a 2b -> 11a 4b                                           
   -0.011302  5a 3b -> 8a 17b                                           
   -0.025340  5a 3b -> 16a 17b                                          
    0.011312  4a 2b -> 6a 4b                                            
    0.023901  4a 2b -> 10a 4b                                           
    0.012738  4a 2b -> 14a 4b                                           
   -0.019553  4a 2b -> 15a 18b                                          
   -0.011302  4a 3b -> 7a 17b                                           
   -0.025340  4a 3b -> 15a 17b                                          
    0.011735  2a 3a -> 17a 18a                                          
    0.011625  2a 5a -> 16a 18a                                          
    0.011625  2a 4a -> 15a 18a                                          
    0.012966  2b 3b -> 5b 13b                                           
   -0.014893  3a 3b -> 14a 10b                                          
   -0.015926  3a 3b -> 17a 9b                                           
   -0.011517  3a 3b -> 13a 13b                                          
   -0.011517  3a 3b -> 12a 12b                                          
    0.011726  3a 2b -> 17a 6b                                           
    0.023164  3a 2b -> 13a 5b                                           
    0.011312  5a 2b -> 6a 5b                                            
   -0.023901  5a 2b -> 10a 5b                                           
    0.012738  5a 2b -> 14a 5b                                           
    0.011346  5a 2b -> 16a 6b                                           
   -0.011937  5a 3b -> 16a 9b                                           
    0.011346  4a 2b -> 15a 6b                                           
    0.023901  4a 2b -> 11a 5b                                           
   -0.011937  4a 3b -> 15a 9b                                           
   -0.010905  3a 5a -> 13a 14a                                          
    0.020153  3a 5a -> 16a 17a                                          
   -0.010905  3a 4a -> 12a 14a                                          
    0.020153  3a 4a -> 15a 17a                                          
   -0.011349  4a 5a -> 10a 11a                                          
   -0.019881  4a 5a -> 15a 16a                                          
 
 ************************ 2019-02-15 09:57:43 *************************
                      Normal termination of mrcc.
 **********************************************************************
--- SharcNET Job Epilogue ---
Job completed successfully.
               jobid: 1661310
               resid: 3137607
         exit status: 0
      allocated time: 222006
           user time: 3089400
         system time: 63873.1
peak rss=14568644608; peak vsz=14568644608 (bytes)
atime=222006; utime=3089400; stime=63873.1; exit=0
