 --invoking executable--
/home/nike/cfour_v2.00beta/bin/xjoda


   *************************************************************************
         <<<     CCCCCC     CCCCCC   |||     CCCCCC     CCCCCC   >>>
       <<<      CCC        CCC       |||    CCC        CCC         >>>
      <<<      CCC        CCC        |||   CCC        CCC            >>>
    <<<        CCC        CCC        |||   CCC        CCC              >>>
      <<<      CCC        CCC        |||   CCC        CCC            >>>
       <<<      CCC        CCC       |||    CCC        CCC         >>>
         <<<     CCCCCC     CCCCCC   |||     CCCCCC     CCCCCC   >>>
   *************************************************************************

     ****************************************************************
     * CFOUR Coupled-Cluster techniques for Computational Chemistry *
     ****************************************************************
 

   Department of Chemistry                Institut fuer Physikalische Chemie
   University of Texas at Austin          Universitaet Mainz
   Austin, TX  78712, USA                 D-55099 Mainz, Germany
 
                       Version 2.00beta
 
                     wob127                                            
                     Tue Jan  1 20:12:10 EST 2019                      
                     integer*8 version is running
 
********************************************************************************
*                          Input from ZMAT file                                *
********************************************************************************
TITLE                                                                           
F                                                                               
                                                                                
*ACES2(CALC=CCSD                                                                
FROZEN_CORE=ON                                                                  
#DROPMO=1                                                                       
INPUT_MRCC=OFF                                                                  
CC_PROG=MRCC                                                                    
XFORM_TOL=18                                                                    
SAVE_INTS=ON                                                                    
SCF_EXPORDER=6                                                                  
SCF_EXPSTART=5                                                                  
#SCF_DAMPING=1000                                                               
SCF_EXTRAPOLATION=ON                                                            
SCF_CONV=10                                                                     
SCF_MAXCYC=9999                                                                 
CC_CONV=10                                                                      
CC_MAXCYC=999                                                                   
T3_EXTRAPOL=ON                                                                  
REFERENCE=ROHF                                                                  
CHARGE=+1                                                                       
MULT=3                                                                          
ABCDTYPE=STANDARD                                                               
OCCUPATION=2-1-1-0-1-0-0-0/2-1-0-0-0-0-0-0                                      
MEM=31                                                                          
MEM_UNIT=GB                                                                     
BASIS=SPECIAL)                                                                  
                                                                                
F:aVQZ-EMSL                                                                     
                                                                                
********************************************************************************
  @GTFLGS-W, Keyword #DROPMO not known and is ignored.
  @GTFLGS-W, Keyword #SCF_DAMPING not known and is ignored.
    -------------------------------------------------------------------
                    CFOUR Control Parameters 
    -------------------------------------------------------------------
        External           Internal           Value            Units
          Name               Name
    -------------------------------------------------------------------
       ABCDTYPE             IABCDT         STANDARD     [  0]   ***   
       ANHARMONIC           IANHAR         OFF          [  0]   ***   
       ANH_ALGORIT          IANALG         STANDARD     [  0]   ***   
       ANH_DERIVAT          IANDER         SECOND       [  1]   ***   
       ANH_STEPSIZ          ICUBST             50000          x 10-6  
       ANH_SYMMETR          IANHSM         ABELIAN      [  0]   ***   
       AO_LADDERS           IAOLAD         SINGLEPASS   [  1]   ***   
       BASIS                IBASIS         SPECIAL      [  0]   ***   
       BREIT                IBREIT         OFF          [  0]   ***   
       BRUCK_CONV           IBRTOL          10D-  4             ***   
       BRUECKNER            IBRKNR             OFF      [  0]   ***   
       BUFFERSIZE           IBUFFS            600               ***   
       CACHE_RECS           ICHREC             10               ***   
       CALCLEVEL            ICLLVL           CCSD       [ 10]   ***   
       CCORBOPT             ICCORB             OFF      [  0] x 0.01  
       CC_CONV              ICCCNV          10D- 10             ***   
       CC_EXPORDER          ICCEOR              5               ***   
       CC_EXTRAPOL          ICCEXT             DIIS     [  1]   ***   
       CC_MAXCYC            ICCCYC            999              cycles 
       CC_PROGRAM           ICCPRO         MRCC         [  2]   ***   
       CHARGE               ICHRGE              1               ***   
       CHOLESKY             ICHOLE         OFF          [  0]   ***   
       CIS_CONV             ICISTL              5               ***   
       COMM_SIZE            IPSIZE            ***               ***   
       CONSTANT             ICONST         OLD          [  1]   ***   
       CONTINUUM            ICONTU         NONE         [  0]   ***   
       CONTRACTION          ICNTYP          GENERAL     [  1]   ***   
       COORDINATES          ICOORD         INTERNAL     [  0]   ***   
       CPHF_CONVER          ICPHFT          10D- 16             ***   
       CPHF_MAXCYC          ICPHFC             64              cycles 
       CUBIC                ICUBIC         OFF          [  0]   ***   
       CURVILINEAR          ICURVY            OFF       [  0]   ***   
       DBOC                 IDBOC          OFF          [  0]   ***   
       DCT                  IDCT           OFF          [  0]   ***   
       DERIV_LEV            IDRLVL            ZERO      [  0]   ***   
       DIAG_MRCC            IEOMST          10D-  0             ***   
       DIFF_TYPE            IDIFTY         RELAXED      [  0]   ***   
       DIRECT               IDIRCT         OFF          [  0]   ***   
       DROPMO               IDRPMO      NONE         
       ECP                  IECP           OFF          [  0]   ***   
       EIGENVECTOR          IVEC                1               ***   
       EL_ANHARM            IELANH         OFF          [  0]   ***   
       EOMFOLLOW            IEOMSR         ENERGY       [  0]   ***   
       EOM_MRCC             IMRCCE         NEW          [  1]   ***   
       EOM_NONIT            EOMNON         OFF          [  0]   ***   
       EOM_NSING            IEOMSI          10D-  0             ***   
       EOM_NSTATES          IMRCCD         DAVIDSON     [  0]   ***   
       EOM_NTRIP            IEOMTR          10D-  0             ***   
       EOM_ORDER            IEXORD         ENERGY       [  0]   ***   
       ESTATE_CONV          IEXTOL          10D-  5             ***   
       ESTATE_DIAG          IEXDIG         ITERATIVE    [  0]   ***   
       ESTATE_LOCK          IESLOC         ON           [  1]   ***   
       ESTATE_MAXC          IEXMXC             20               ***   
       ESTATE_PROP          IEXPRP         OFF          [  0]   ***   
       EVAL_HESS            IRECAL              0            # of cyc.
       EXCITATION           IEXCIT              0               ***   
       EXCITE               IEXCIT         NONE         [  0]   ***   
       FCGRADNEW            IFCGNW         OFF          [  0]   ***   
       FC_FIELD             IFINFC              0             x 10-6  
       FD_CALTYPE           IFDCAL         GRADONLY     [  0]   ***   
       FD_PROJECT           IFDPRJ         OFF          [  1]   ***   
       FD_STEPSIZE          IDISFD              0            10-4 bohr
       FD_USEGROUP          IFDGRP         FULL         [  0]   ***   
       FILE_RECSIZ          IFLREC              4096           words  
       FINITE_PERT          IFIPER              0             x 10-6  
       FIXGEOM              IFIXGM         OFF          [  0]   ***   
       FOCK                 IFOCK          AO           [  1]   ***   
       FREQ_ALGORI          IVIALG         STANDARD     [  0]   ***   
       FROZEN_CORE          IFROCO         ON           [  1]   ***   
       FROZEN_VIRT          IFROVI         OFF          [  0]   ***   
       GAMMA_ABCD           IGABCD         STORE        [  0]   ***   
       GAMMA_ABCI           IGABCI         STORE        [  0]   ***   
       GENBAS_1             IGNBS1              0               ***   
       GENBAS_2             IGNBS2              0               ***   
       GENBAS_3             IGNBS3              0               ***   
       GENBAS_4             IGNBS4              0               ***   
       GEO_CONV             ICONTL              5              H/bohr 
       GEO_MAXCYC           IOPTCY             50               ***   
       GEO_MAXSTEP          IMXSTP            300            millibohr
       GEO_METHOD           INR            SINGLE_POINT [  5]   ***   
       GIAO                 IGIAO          OFF          [  1]   ***   
       GIMIC                IGIMIC         OFF          [  0]   ***   
       GRID                 IGRID          OFF          [  0]   ***   
       GRID_ALGO            IGALGO         SERIAL       [  0]   ***   
       GUESS                IGUESS            MOREAD    [  0]   ***   
       HBAR                 IHBAR              OFF      [  0]   ***   
       HESS_TYPE            IHESTP         SCF          [  0]   ***   
       HF2_FILE             IHF2Fl         USE          [  1]   ***   
       HFSTABILITY          ISTABL         OFF          [  0]   ***   
       INCORE               INCORE             OFF      [  0]   ***   
       INPUT_MRCC           IMRCC          OFF          [  0]   ***   
       INTEGRALS            INTTYP             VMOL     [  1]   ***   
       JODA_PRINT           IJPRNT              0               ***   
       LINDEP_TOL           ILINDP              8               ***   
       LINEQ_CONV           IZTACN          10D-  7           cycles  
       LINEQ_EXPOR          ILMAXD              5               ***   
       LINEQ_MAXCY          ILMAXC             50               ***   
       LINEQ_TYPE           ILTYPE         DIIS         [  1]   ***   
       LOCK_ORBOCC          ILOCOC             OFF      [  0]   ***   
       MEMORY_SIZE          IMEMSZ         *********           words  
       MEM_UNIT             IMEMU          GB           [  3]   ***   
       MRCC                 IMRCCC         OFF          [  0]   ***   
       MULTIPLICTY          IMULTP              3               ***   
       NEGEVAL              IDIE             ABORT      [  0]   ***   
       NEWNORM              INEWNO         OFF          [  0]   ***   
       NON-HF               INONHF              ON      [  1]   ***   
       NTOP_TAMP            ITOPT2             15               ***   
       NUC_MODEL            INUCMO         POINT        [  0]   ***   
       OCCUPATION           IOCCU  A   2,  1,  1,  0,  1,  0,  0,  0,
                                   B   2,  1,  0,  0,  0,  0,  0,  0,
       OPEN-SHELL           IOPEN          SPIN-ORBITAL [  0]   ***   
       ORBITALS             IORBTP         SEMICANONICAL[  1]   ***   
       PARALLEL             IPARAL         ON           [  1]   ***   
       PARA_INT             IPINTS         ON           [  1]   ***   
       PARA_PRINT           IPPRIN              0               ***   
       PERT_ORB             IPTORB         STANDARD     [  0]   ***   
       POINTS               IGRDFD              0               ***   
       PRINT                IPRNT               0               ***   
       PROPS                IPROPS             OFF      [  0]   ***   
       PROP_INTEGR          IINTYP         INTERNAL     [  0]   ***   
       PSI                  IPSI           OFF          [  0]   ***   
       QUARTIC              IQUART         OFF          [  0]   ***   
       RAMAN_INT            IRAMIN         OFF          [  0]   ***   
       RAMAN_ORB            IRAMRE         UNRELAXED    [  0]   ***   
       RDO                  IRDOFM             OFF      [  0]   ***   
       REFERENCE            IREFNC             ROHF     [  2]   ***   
       RELATIVIST           IRELAT         OFF          [  0]   ***   
       RELAX_DENS           IRDENS             OFF      [  0]   ***   
       RESET_FLAGS          IRESET             OFF      [  0]   ***   
       RESTART_CC           ICCRES         OFF          [  0]   ***   
       ROT_EVEC             ROTVEC              0               ***   
       SAVE_INTS            ISVINT              ON      [  1]   ***   
       SCALE_ON             ISTCRT              0               ***   
       SCF_CONV             ISCFCV          10D- 10             ***   
       SCF_DAMPING          IDAMP               0             x 10-3  
       SCF_EXPORDE          IRPPOR              6               ***   
       SCF_EXPSTAR          IRPPLS              5               ***   
       SCF_EXTRAPO          IRPP                ON      [  1]   ***   
       SCF_MAXCYC           ISCFCY            ***              cycles 
       SCF_NOSTOP           ISCFST         OFF          [  0]   ***   
       SCF_PRINT            ISCFPR              0               ***   
       SD_FIELD             IFINSD              0             x 10-6  
       SEQUENCE             ISEQUE         OFF          [  0]   ***   
       SOPERT               IPERSO         OFF          [  0]   ***   
       SPHERICAL            IDFGHI             ON       [  1]   ***   
       SPINORBIT            ISOCAL         OFF          [  0]   ***   
       SPINROTATIO          ISRCON         OFF          [  0]   ***   
       SPIN_FLIP            ISPFLP         OFF          [  0]   ***   
       SPIN_ORBIT           ISPORB         OFF          [  0]   ***   
       SPIN_SCAL            ISCSMP         OFF          [  0]   ***   
       SUBGROUP             ISUBGP         DEFAULT      [  0]   ***   
       SUBGRPAXIS           ISBXYZ         X            [  0]   ***   
       SYMMETRY             ISYM             ON         [  0]   ***   
       SYM_CHECK            ISYMCK         OVERRIDE     [  1]   ***   
       T3_EXTRAPOL          IT3EXT         ON           [  1]   ***   
       TAMP_SUM             IEVERY              5               ***   
       TESTSUITE            ITESTS         OFF          [  0]   ***   
       THERMOCH             ITHERM         OFF          [  0]   ***   
       TOL_CHOLESK          ITOLCH          10D-  4             ***   
       TRANGRAD             IRESRM         OFF          [  0]   ***   
       TRANS_INV            ITRAIN         USE          [  0]   ***   
       TREAT_PERT           ITREAT         SIMULTANEOUS [  0]   ***   
       UIJ_THRESHO          IUIJTH              1               ***   
       UNITS                IUNITS         ANGSTROM     [  0]   ***   
       UNOS                 IUNOS          OFF          [  0]   ***   
       UPDATE_HESS          IHUPDT         ON           [  1]   ***   
       VIBPHASE             ISETPH         STANDARD     [  0]   ***   
       VIBRATION            IVIB              NO        [  0]   ***   
       VIB_ALGORIT          IGEALG         STANDARD     [  0]   ***   
       VNATORB              IVNORB         OFF          [  0]   ***   
       VTRAN                IVTRAN         FULL/PARTIAL [  0]   ***   
       XFIELD               IXEFLD              0             x 10-6  
       XFORM_TOL            IXFTOL          10D- 18             ***   
       YFIELD               IYEFLD              0             x 10-6  
       ZFIELD               IZEFLD              0             x 10-6  
    -------------------------------------------------------------------
   1 entries found in Z-matrix 
   Job Title : TITLE                                                                           
  1  F          9    18.99840
 factor:   60.1997200000000     
   Rotational constants (in cm-1): 

   Rotational constants (in MHz): 

********************************************************************************
   The full molecular point group is I h .
   The largest Abelian subgroup of the full molecular point group is D2h .
   The computational point group is D2h .
********************************************************************************
  @GTFLGS-W, Keyword #DROPMO not known and is ignored.
  @GTFLGS-W, Keyword #SCF_DAMPING not known and is ignored.
  There is   1 frozen-core orbital.
  There is   1 frozen-core orbital.
  There are   80 basis functions.
 @GEOPT-W, Archive file not created for single-point calculation.
  @CHECKOUT-I, Total execution time (CPU/WALL):        0.26/       1.83 seconds.
--executable xjoda finished with status     0 in        2.63 seconds (walltime).
 --invoking executable--
/home/nike/cfour_v2.00beta/bin/xvmol
 Serial version of molecule started
********************************************************************************
                    Input from MOL file
********************************************************************************
INTGRL        1    0    1    0    0    0    0    0    0                         
         *** CFOUR Program System (Release V0.1) ***                            
TITLE                                                                           
    1    3 X  Y   Z   0.10E-08              0    0                              
   9999.00      3.00                                                            
          9.00000000    1    5    1    1    1    1    1                         
F #1   0.000000000000000   0.000000000000000   0.000000000000000                
   13    6                                                                      
   74530.0000000000       9.500000000000001E-005 -2.200000000000000E-005        
  0.000000000000000E+000  0.000000000000000E+000  0.000000000000000E+000        
  0.000000000000000E+000                                                        
   11170.0000000000       7.380000000000000E-004 -1.720000000000000E-004        
  0.000000000000000E+000  0.000000000000000E+000  0.000000000000000E+000        
  0.000000000000000E+000                                                        
   2543.00000000000       3.858000000000000E-003 -8.910000000000000E-004        
  0.000000000000000E+000  0.000000000000000E+000  0.000000000000000E+000        
  0.000000000000000E+000                                                        
   721.000000000000       1.592600000000000E-002 -3.748000000000000E-003        
  0.000000000000000E+000  0.000000000000000E+000  0.000000000000000E+000        
  0.000000000000000E+000                                                        
   235.900000000000       5.428900000000000E-002 -1.286200000000000E-002        
  0.000000000000000E+000  0.000000000000000E+000  0.000000000000000E+000        
  0.000000000000000E+000                                                        
   85.6000000000000       0.149513000000000      -3.806100000000000E-002        
  0.000000000000000E+000  0.000000000000000E+000  0.000000000000000E+000        
  0.000000000000000E+000                                                        
   33.5500000000000       0.308252000000000      -8.623900000000000E-002        
  0.000000000000000E+000  0.000000000000000E+000  0.000000000000000E+000        
  0.000000000000000E+000                                                        
   13.9300000000000       0.394853000000000      -0.155865000000000             
  0.000000000000000E+000  0.000000000000000E+000  0.000000000000000E+000        
  0.000000000000000E+000                                                        
   5.91500000000000       0.211031000000000      -0.110914000000000             
  0.000000000000000E+000  0.000000000000000E+000  0.000000000000000E+000        
  0.000000000000000E+000                                                        
   1.84300000000000       1.715100000000000E-002  0.298761000000000             
   1.00000000000000       0.000000000000000E+000  0.000000000000000E+000        
  0.000000000000000E+000                                                        
  0.712400000000000      -2.015000000000000E-003  0.585013000000000             
  0.000000000000000E+000   1.00000000000000       0.000000000000000E+000        
  0.000000000000000E+000                                                        
  0.263700000000000       8.690000000000000E-004  0.271159000000000             
  0.000000000000000E+000  0.000000000000000E+000   1.00000000000000             
  0.000000000000000E+000                                                        
  8.594000000000000E-002  0.000000000000000E+000  0.000000000000000E+000        
  0.000000000000000E+000  0.000000000000000E+000  0.000000000000000E+000        
   1.00000000000000                                                             
    7    5                                                                      
   80.3900000000000       6.347000000000000E-003  0.000000000000000E+000        
  0.000000000000000E+000  0.000000000000000E+000  0.000000000000000E+000        
   18.6300000000000       4.420400000000000E-002  0.000000000000000E+000        
  0.000000000000000E+000  0.000000000000000E+000  0.000000000000000E+000        
   5.69400000000000       0.168514000000000       0.000000000000000E+000        
  0.000000000000000E+000  0.000000000000000E+000  0.000000000000000E+000        
   1.95300000000000       0.361563000000000        1.00000000000000             
  0.000000000000000E+000  0.000000000000000E+000  0.000000000000000E+000        
  0.670200000000000       0.442178000000000       0.000000000000000E+000        
   1.00000000000000       0.000000000000000E+000  0.000000000000000E+000        
  0.216600000000000       0.243435000000000       0.000000000000000E+000        
  0.000000000000000E+000   1.00000000000000       0.000000000000000E+000        
  6.568000000000000E-002  0.000000000000000E+000  0.000000000000000E+000        
  0.000000000000000E+000  0.000000000000000E+000   1.00000000000000             
    4    4                                                                      
   5.01400000000000        1.00000000000000       0.000000000000000E+000        
  0.000000000000000E+000  0.000000000000000E+000                                
   1.72500000000000       0.000000000000000E+000   1.00000000000000             
  0.000000000000000E+000  0.000000000000000E+000                                
  0.586000000000000       0.000000000000000E+000  0.000000000000000E+000        
   1.00000000000000       0.000000000000000E+000                                
  0.207000000000000       0.000000000000000E+000  0.000000000000000E+000        
  0.000000000000000E+000   1.00000000000000                                     
    3    3                                                                      
   3.56200000000000        1.00000000000000       0.000000000000000E+000        
  0.000000000000000E+000                                                        
   1.14800000000000       0.000000000000000E+000   1.00000000000000             
  0.000000000000000E+000                                                        
  0.460000000000000       0.000000000000000E+000  0.000000000000000E+000        
   1.00000000000000                                                             
    2    2                                                                      
   2.37600000000000        1.00000000000000       0.000000000000000E+000        
  0.924000000000000       0.000000000000000E+000   1.00000000000000             
FINISH                                                                          
 
********************************************************************************
 One- and two-electron integrals over symmetry-adapted AOs are calculated.

  Spherical harmonics are used.
  
  Integrals less than  0.10E-13 are neglected.

  Nuclear repulsion energy :    0.0000000000 a.u.
  required memory for a1 array                5661596  words 
  required memory for a2 array                3638123  words 
 @GETMEM-I,  Allocated      86 MB of main memory.
  @MOLECU-I, One electron integrals (CPU/WALL):        0.04/       0.19 seconds.
  @TWOEL-I,      19553 integrals of symmetry type  I I I I
  @TWOEL-I,     132478 integrals of symmetry type  I J I J
  @TWOEL-I,      82912 integrals of symmetry type  I I J J
  @TWOEL-I,     287031 integrals of symmetry type  I J K L
  @TWOEL-I, Total number of 2-e integrals     521974.
  @MOLECU-I, Two electron integrals (CPU/WALL):        1.67/       3.95 seconds.
  @CHECKOUT-I, Total execution time (CPU/WALL):        1.74/       4.38 seconds.
--executable xvmol finished with status     0 in        4.77 seconds (walltime).
 --invoking executable--
/home/nike/cfour_v2.00beta/bin/xvmol2ja
 @GETMEM-I,  Allocated   29563 MB of main memory.
  @CHECKOUT-I, Total execution time (CPU/WALL):        0.01/       0.04 seconds.
--executable xvmol2ja finished with status     0 in        0.24 seconds (walltime).
 --invoking executable--
/home/nike/cfour_v2.00beta/bin/xvscf
  There are   80 functions in the AO basis.

  There are 8 irreducible representations.

       Irrep        # of functions
         1                 20
         2                 11
         3                 11
         4                  8
         5                 11
         6                  8
         7                  8
         8                  3


  Parameters for SCF calculation: 
        SCF reference function: ROHF  
  Maximum number of iterations: 9999
     Full symmetry point group: I h 
     Computational point group: D2h 
        Initial density matrix: MOREAD                 
     SCF convergence tolerance: 10**(-10)
  DIIS convergence acceleration:  ON
          Latest start for DIIS:   5
                     DIIS order:   6

     Alpha population by irrep:   2    1    1    0    1    0    0    0
      Beta population by irrep:   2    1    0    0    0    0    0    0


  Memory information:     390598 words required.
  Fock matrices are constructed from AO integral file.
 @GETMEM-I,  Allocated       2 MB of main memory.
  Initialization and symmetry analysis required      0.002 seconds.

 total no. of electrons in initial guess :  0.000000000000000E+000
 total no. of electrons in initial guess :  0.000000000000000E+000
  --------------------------------------------------------------------
  Iteration         Total Energy            Largest Density Difference
  --------------------------------------------------------------------
       0             0.000000000000000              0.0000000000D+00
   current occupation vector 
     2  1  1  0  1  0  0  0
     2  1  0  0  0  0  0  0
       1           -91.071968749650750              0.7905015267D+01
   current occupation vector 
     2  1  1  0  1  0  0  0
     2  1  0  0  0  0  0  0
       2           -95.088027828358108              0.7851831687D+01
   current occupation vector 
     2  1  1  0  1  0  0  0
     2  1  0  0  0  0  0  0
       3           -98.408073554156289              0.1863727813D+01
   current occupation vector 
     2  1  1  0  1  0  0  0
     2  1  0  0  0  0  0  0
       4           -98.775285817075897              0.9404717466D+00
   current occupation vector 
     2  1  1  0  1  0  0  0
     2  1  0  0  0  0  0  0
       5           -98.827024953885754              0.3110223283D+00
   current occupation vector 
     2  1  1  0  1  0  0  0
     2  1  0  0  0  0  0  0
       6           -98.832011469049519              0.6652753382D-01
   current occupation vector 
     2  1  1  0  1  0  0  0
     2  1  0  0  0  0  0  0
       7           -98.832057460407157              0.5515478923D-02
   current occupation vector 
     2  1  1  0  1  0  0  0
     2  1  0  0  0  0  0  0
       8           -98.832060061430184              0.1240725415D-02
   current occupation vector 
     2  1  1  0  1  0  0  0
     2  1  0  0  0  0  0  0
       9           -98.832060150797318              0.2506377143D-03
   current occupation vector 
     2  1  1  0  1  0  0  0
     2  1  0  0  0  0  0  0
      10           -98.832060151293675              0.1762532269D-04
   current occupation vector 
     2  1  1  0  1  0  0  0
     2  1  0  0  0  0  0  0
      11           -98.832060151303580              0.2039609286D-05
   current occupation vector 
     2  1  1  0  1  0  0  0
     2  1  0  0  0  0  0  0
      12           -98.832060151303750              0.1843719086D-06
   current occupation vector 
     2  1  1  0  1  0  0  0
     2  1  0  0  0  0  0  0
      13           -98.832060151303622              0.4950827852D-08
   current occupation vector 
     2  1  1  0  1  0  0  0
     2  1  0  0  0  0  0  0
      14           -98.832060151303693              0.6247051765D-09
   current occupation vector 
     2  1  1  0  1  0  0  0
     2  1  0  0  0  0  0  0

  SCF has converged.

 Density matrix saved to file den.dat
 total alpha spin electron number:   5.00000000000000     
 total  beta spin electron number:   3.00000000000000     
     E(ROHF)=       -98.832060151303679              0.2371544107D-10

  Eigenvector printing suppressed.


       The average multiplicity is    3.0000000
  The expectation value of S**2 is    2.0000000

 @PUTMOS-I, Writing converged MOs to NEWMOS. 
 @PUTMOS-I, Symmetry   1 Full Blocks  5 Partial Blocksize   0
 @PUTMOS-I, Symmetry   2 Full Blocks  2 Partial Blocksize   3
 @PUTMOS-I, Symmetry   3 Full Blocks  2 Partial Blocksize   3
 @PUTMOS-I, Symmetry   4 Full Blocks  2 Partial Blocksize   0
 @PUTMOS-I, Symmetry   5 Full Blocks  2 Partial Blocksize   3
 @PUTMOS-I, Symmetry   6 Full Blocks  2 Partial Blocksize   0
 @PUTMOS-I, Symmetry   7 Full Blocks  2 Partial Blocksize   0
 @PUTMOS-I, Symmetry   8 Full Blocks  0 Partial Blocksize   3
  @DMPJOB-I, Rotating orbitals to semicanonical basis.
             *** Eigenvalues correspond to new basis. ***



 
  ORBITAL EIGENVALUES (ALPHA)  (1H = 27.2113838 eV)

       MO #        E(hartree)               E(eV)           FULLSYM    COMPSYM
       ----   --------------------   --------------------   -------   ---------
    1     1         -27.1929845743        -739.9587404509      Ag        Ag (1)
    2     2          -2.3886619414         -64.9987969034      Ag        Ag (1)
    3    32          -1.5292395015         -41.6127230287       u       B3u (3)
    4    51          -1.5292395015         -41.6127230287       u       B1u (5)
    5    21          -1.4141835870         -38.4818923762      Au       B2u (2)
  +++++++++++++++++++++++++++++++++++++++++++++++++++++++++++++++++++++++++++++
    6     3          -0.1317887128          -3.5861532460      Ag        Ag (1)
    7    33          -0.0800915750          -2.1794025887       u       B3u (3)
    8    52          -0.0800915750          -2.1794025887       u       B1u (5)
    9    22          -0.0720776952          -1.9613338285      Au       B2u (2)
   10    70           0.2712746140           7.3817576421       g       B2g (7)
   11     4           0.2712746140           7.3817576421       g        Ag (1)
   12    43           0.2832382294           7.7073041728       g       B1g (4)
   13    62           0.2832382294           7.7073041728       g       B3g (6)
   14     5           0.2869039177           7.8070526249      Ag        Ag (1)
   15    34           0.4294374661          11.6855877160       u       B3u (3)
   16    53           0.4294374661          11.6855877160       u       B1u (5)
   17    23           0.4594540639          12.5023808808      Au       B2u (2)
   18     6           0.6616736535          18.0050557484      Ag        Ag (1)
   19    54           1.4104662589          38.3807387363       u       B1u (5)
   20    35           1.4104662589          38.3807387363       u       B3u (3)
   21    24           1.4257908668          38.7977425219       u       B2u (2)
   22    78           1.4257908668          38.7977425219       u        Au (8)
   23    36           1.4349618199          39.0472968468       u       B3u (3)
   24    55           1.4349618199          39.0472968468       u       B1u (5)
   25    25           1.4379991528          39.1299468787      Au       B2u (2)
   26    71           1.4437979793          39.2877409738       g       B2g (7)
   27     7           1.4437979793          39.2877409738       g        Ag (1)
   28    44           1.4822048158          40.3328441414       g       B1g (4)
   29    63           1.4822048158          40.3328441414       g       B3g (6)
   30     8           1.4935675278          40.6420392601      Ag        Ag (1)
   31    56           2.7013018986          73.5061627743       u       B1u (5)
   32    37           2.7013018986          73.5061627743       u       B3u (3)
   33    26           2.7778048506          75.5879139653      Au       B2u (2)
   34    72           4.1276509752         112.3190949589       g       B2g (7)
   35     9           4.1276509752         112.3190949589       g        Ag (1)
   36    45           4.1493182474         112.9086914203       g       B1g (4)
   37    64           4.1493182474         112.9086914203       g       B3g (6)
   38    73           4.1648048687         113.3301038159       g       B2g (7)
   39    10           4.1648048687         113.3301038159       g        Ag (1)
   40    46           4.1741011806         113.5830693268       g       B1g (4)
   41    65           4.1741011806         113.5830693268       g       B3g (6)
   42    11           4.1772006817         113.6674110399      Ag        Ag (1)
   43    12           4.3140051446         117.3900497885      Ag        Ag (1)
   44    38           4.8013091028         130.6502648316       u       B3u (3)
   45    57           4.8013091028         130.6502648316       u       B1u (5)
   46    27           4.8418192900         131.7526030841       u       B2u (2)
   47    79           4.8418192900         131.7526030841       u        Au (8)
   48    39           4.8659908099         132.4103435902       u       B3u (3)
   49    58           4.8659908099         132.4103435902       u       B1u (5)
   50    28           4.8739502409         132.6269307219      Au       B2u (2)
   51    13           4.9355332627         134.3026899656       g        Ag (1)
   52    74           4.9355332627         134.3026899656       g       B2g (7)
   53    47           5.0060188621         136.2207006634       g       B1g (4)
   54    66           5.0060188621         136.2207006634       g       B3g (6)
   55    14           5.0284627360         136.8314295331      Ag        Ag (1)
   56    59          12.1434647989         330.4404815428       u       B1u (5)
   57    40          12.1434647989         330.4404815428       u       B3u (3)
   58    29          12.2350777564         332.9333968905      Au       B2u (2)
   59    75          12.8426447930         349.4661367218       g       B2g (7)
   60    15          12.8426447930         349.4661367218       g        Ag (1)
   61    67          12.8881659027         350.7048291083       g       B3g (6)
   62    48          12.8881659027         350.7048291083       g       B1g (4)
   63    76          12.9206236050         351.5880481030       g        Ag (7)
   64    16          12.9206236050         351.5880481030       g       B2g (1)
   65    49          12.9400748559         352.1173435589       g       B1g (4)
   66    68          12.9400748559         352.1173435589       g       B3g (6)
   67    17          12.9465547183         352.2936695816      Ag        Ag (1)
   68    60          14.9433380572         406.6289074206       u       B1u (5)
   69    41          14.9433380572         406.6289074206       u       B3u (3)
   70    30          15.0086672516         408.4066052032       u       B2u (2)
   71    80          15.0086672516         408.4066052032       u        Au (8)
   72    42          15.0477687242         409.4706103823       u       B3u (3)
   73    61          15.0477687242         409.4706103823       u       B1u (5)
   74    31          15.0607428126         409.8236532818      Au       B2u (2)
   75    77          15.8083661908         430.1675199795       g       B2g (7)
   76    18          15.8083661908         430.1675199795       g        Ag (1)
   77    50          15.8900446561         432.3901040473       g       B1g (4)
   78    69          15.8900446561         432.3901040473       g       B3g (6)
   79    19          15.9170389827         433.1246570308      Ag        Ag (1)
   80    20          52.2192735177        1420.9586944698      Ag        Ag (1)


 
  ORBITAL EIGENVALUES ( BETA)  (1H = 27.2113838 eV)

       MO #        E(hartree)               E(eV)           FULLSYM    COMPSYM
       ----   --------------------   --------------------   -------   ---------
    1     1         -27.0917845613        -737.2049480544      Ag        Ag (1)
    2     2          -2.0019218419         -54.4750636175      Ag        Ag (1)
    3    21          -1.3116385893         -35.6915010866      Au       B2u (2)
  +++++++++++++++++++++++++++++++++++++++++++++++++++++++++++++++++++++++++++++
    4    51          -0.4984516026         -13.5635578728       u       B1u (5)
    5    32          -0.4984516026         -13.5635578728       u       B3u (3)
    6     3          -0.1200206281          -3.2659273777      Ag        Ag (1)
    7    22          -0.0698050742          -1.8994926659      Au       B2u (2)
    8    33          -0.0565627379          -1.5391503704       u       B3u (3)
    9    52          -0.0565627379          -1.5391503704       u       B1u (5)
   10     4           0.2908073147           7.9132694588       g        Ag (1)
   11    70           0.2908073147           7.9132694588       g       B2g (7)
   12    43           0.2940838027           8.0024272297       g       B1g (4)
   13    62           0.2940838027           8.0024272297       g       B3g (6)
   14     5           0.2954769666           8.0403371493      Ag        Ag (1)
   15    23           0.4733782232          12.8812765222      Au       B2u (2)
   16    34           0.5281508714          14.3717160771       u       B3u (3)
   17    53           0.5281508714          14.3717160771       u       B1u (5)
   18     6           0.7085493337          19.2806078750      Ag        Ag (1)
   19    54           1.4280414407          38.8589837522       u       B1u (5)
   20    35           1.4280414407          38.8589837522       u       B3u (3)
   21    24           1.4380370165          39.1309772032       u       B2u (2)
   22    78           1.4380370165          39.1309772032       u        Au (8)
   23    36           1.4442239445          39.2993320758       u       B3u (3)
   24    55           1.4442239445          39.2993320758       u       B1u (5)
   25    25           1.4462925607          39.3556219843      Au       B2u (2)
   26     7           1.5453834864          42.0520231967      Ag        Ag (1)
   27    44           1.5482887613          42.1310797485       g       B1g (4)
   28    63           1.5482887613          42.1310797485       g       B3g (6)
   29    71           1.5612657372          42.4842012191       g       B2g (7)
   30     8           1.5612657372          42.4842012191       g        Ag (1)
   31    26           2.8173821281          76.6648664533      Au       B2u (2)
   32    56           2.8828632280          78.4466977953       u       B1u (5)
   33    37           2.8828632280          78.4466977953       u       B3u (3)
   34    72           4.1541641423         113.0405549244       g       B2g (7)
   35     9           4.1541641423         113.0405549244       g        Ag (1)
   36    64           4.1697069717         113.4634968226       g       B3g (6)
   37    45           4.1697069717         113.4634968226       g       B1g (4)
   38    10           4.1809642188         113.7698220933       g        Ag (1)
   39    73           4.1809642188         113.7698220933       g       B2g (7)
   40    46           4.1877805261         113.9553032487       g       B1g (4)
   41    65           4.1877805261         113.9553032487       g       B3g (6)
   42    11           4.1900626679         114.0174034847      Ag        Ag (1)
   43    12           4.4180434126         120.2210750306      Ag        Ag (1)
   44    57           4.8837373874         132.8932525223       u       B1u (5)
   45    38           4.8837373874         132.8932525223       u       B3u (3)
   46    27           4.8997365501         133.3286118786       u       B2u (2)
   47    79           4.8997365501         133.3286118786       u        Au (8)
   48    39           4.9098978120         133.6051138762       u       B3u (3)
   49    58           4.9098978120         133.6051138762       u       B1u (5)
   50    28           4.9132929503         133.6975002874      Au       B2u (2)
   51    13           5.1191260842         139.2985046966      Ag        Ag (1)
   52    47           5.1231462734         139.4078996094       g       B1g (4)
   53    66           5.1231462734         139.4078996094       g       B3g (6)
   54    14           5.1407856189         139.8878906105       g        Ag (1)
   55    74           5.1407856189         139.8878906105       g       B2g (7)
   56    29          12.2762761898         334.0544632769      Au       B2u (2)
   57    59          12.2962154173         334.5970372489       u       B1u (5)
   58    40          12.2962154173         334.5970372489       u       B3u (3)
   59    75          12.9224471918         351.6376704245       g       B2g (7)
   60    15          12.9224471918         351.6376704245       g        Ag (1)
   61    67          12.9498711339         352.3839138386       g       B3g (6)
   62    48          12.9498711339         352.3839138386       g       B1g (4)
   63    76          12.9697744890         352.9255116743       g       B2g (7)
   64    16          12.9697744890         352.9255116743       g        Ag (1)
   65    68          12.9818427165         353.2539048434       g       B3g (6)
   66    49          12.9818427165         353.2539048434       g       B1g (4)
   67    17          12.9858865388         353.3639428457      Ag        Ag (1)
   68    60          15.0812920103         410.3828253887       u       B1u (5)
   69    41          15.0812920103         410.3828253887       u       B3u (3)
   70    30          15.1063556171         411.0648408112       u       B2u (2)
   71    80          15.1063556171         411.0648408112       u        Au (8)
   72    61          15.1219859072         411.4901626339       u       B1u (5)
   73    42          15.1219859072         411.4901626339       u       B3u (3)
   74    31          15.1272462232         411.6333031119      Au       B2u (2)
   75    77          15.9815615639         434.8804057504       g       B2g (7)
   76    18          15.9815615639         434.8804057504       g        Ag (1)
   77    50          15.9910784796         435.1393741983       g       B1g (4)
   78    69          15.9910784796         435.1393741983       g       B3g (6)
   79    19          15.9949216321         435.2439516950      Ag        Ag (1)
   80    20          52.2763634768        1422.5121912584      Ag        Ag (1)


  VSCF finished.

  @CHECKOUT-I, Total execution time (CPU/WALL):        0.88/       1.54 seconds.
--executable xvscf finished with status     0 in        1.79 seconds (walltime).
 --invoking executable--
/home/nike/cfour_v2.00beta/bin/xvtran
 @GETMEM-I,  Allocated   29563 MB of main memory.
  Full UHF integral transformation
  The following   1 alpha MOs will be dropped.
    1
  There are  79 active alpha molecular orbitals.
  The following   1 beta MOs will be dropped.
    1
  There are  79 active beta molecular orbitals.
  Transformation of IIII integrals :
  2 passes through the AO integral file were required.
       19553 AO integrals were read.
       26797 MO integrals (Spin case AAAA) were written to HF2AA.
       26797 MO integrals (Spin case BBBB) were written to HF2BB.
       53091 MO integrals (Spin case AABB) were written to HF2AB.
  Transformation of IIJJ integrals :
  2 passes through the AO integral file were required.
       82912 AO integrals were read.
       99452 MO integrals (Spin case AAAA) were written to HF2AA.
       99454 MO integrals (Spin case BBBB) were written to HF2BB.
      198907 MO integrals (Spin case AABB) were written to HF2AB.
  Transformation of IJIJ integrals :
  2 passes through the AO integral file were required.
      132478 AO integrals were read.
      168581 MO integrals (Spin case AAAA) were written to HF2AA.
      168580 MO integrals (Spin case BBBB) were written to HF2BB.
      334503 MO integrals (Spin case AABB) were written to HF2AB.
  Transformation of IJKL integrals :
  2 passes through the AO integral file were required.
      287031 AO integrals were read.
      340531 MO integrals (Spin case AAAA) were written to HF2AA.
      340536 MO integrals (Spin case BBBB) were written to HF2BB.
      681077 MO integrals (Spin case AABB) were written to HF2AB.
  Summary of active molecular orbitals: 
------------------------------------------------------------------------
                         * Spin case alpha *
 
  Index      Eigenvalue    Symmetry    Index      Eigenvalue    Symmetry
------------------------------------------------------------------------
     1        -2.3886619        1        41        14.9433381        3
     2        -1.4141836        2        42        15.0477687        3
     3        -1.5292395        3        43         0.2832382        4
     4        -1.5292395        5        44         1.4822048        4
     5        -0.1317887        1        45         4.1493182        4
     6         0.2712746        1        46         4.1741012        4
     7         0.2869039        1        47         5.0060189        4
     8         0.6616737        1        48        12.8881659        4
     9         1.4437980        1        49        12.9400749        4
    10         1.4935675        1        50        15.8900447        4
    11         4.1276510        1        51        -0.0800916        5
    12         4.1648049        1        52         0.4294375        5
    13         4.1772007        1        53         1.4104663        5
    14         4.3140051        1        54         1.4349618        5
    15         4.9355333        1        55         2.7013019        5
    16         5.0284627        1        56         4.8013091        5
    17        12.8426448        1        57         4.8659908        5
    18        12.9206236        1        58        12.1434648        5
    19        12.9465547        1        59        14.9433381        5
    20        15.8083662        1        60        15.0477687        5
    21        15.9170390        1        61         0.2832382        6
    22        52.2192735        1        62         1.4822048        6
    23        -0.0720777        2        63         4.1493182        6
    24         0.4594541        2        64         4.1741012        6
    25         1.4257909        2        65         5.0060189        6
    26         1.4379992        2        66        12.8881659        6
    27         2.7778049        2        67        12.9400749        6
    28         4.8418193        2        68        15.8900447        6
    29         4.8739502        2        69         0.2712746        7
    30        12.2350778        2        70         1.4437980        7
    31        15.0086673        2        71         4.1276510        7
    32        15.0607428        2        72         4.1648049        7
    33        -0.0800916        3        73         4.9355333        7
    34         0.4294375        3        74        12.8426448        7
    35         1.4104663        3        75        12.9206236        7
    36         1.4349618        3        76        15.8083662        7
    37         2.7013019        3        77         1.4257909        8
    38         4.8013091        3        78         4.8418193        8
    39         4.8659908        3        79        15.0086673        8
    40        12.1434648        3
------------------------------------------------------------------------
------------------------------------------------------------------------
                         * Spin case beta *
 
  Index      Eigenvalue    Symmetry    Index      Eigenvalue    Symmetry
------------------------------------------------------------------------
     1        -2.0019218        1        41        15.1219859        3
     2        -1.3116386        2        42         0.2940838        4
     3        -0.1200206        1        43         1.5482888        4
     4         0.2908073        1        44         4.1697070        4
     5         0.2954770        1        45         4.1877805        4
     6         0.7085493        1        46         5.1231463        4
     7         1.5453835        1        47        12.9498711        4
     8         1.5612657        1        48        12.9818427        4
     9         4.1541641        1        49        15.9910785        4
    10         4.1809642        1        50        -0.4984516        5
    11         4.1900627        1        51        -0.0565627        5
    12         4.4180434        1        52         0.5281509        5
    13         5.1191261        1        53         1.4280414        5
    14         5.1407856        1        54         1.4442239        5
    15        12.9224472        1        55         2.8828632        5
    16        12.9697745        1        56         4.8837374        5
    17        12.9858865        1        57         4.9098978        5
    18        15.9815616        1        58        12.2962154        5
    19        15.9949216        1        59        15.0812920        5
    20        52.2763635        1        60        15.1219859        5
    21        -0.0698051        2        61         0.2940838        6
    22         0.4733782        2        62         1.5482888        6
    23         1.4380370        2        63         4.1697070        6
    24         1.4462926        2        64         4.1877805        6
    25         2.8173821        2        65         5.1231463        6
    26         4.8997366        2        66        12.9498711        6
    27         4.9132930        2        67        12.9818427        6
    28        12.2762762        2        68        15.9910785        6
    29        15.1063556        2        69         0.2908073        7
    30        15.1272462        2        70         1.5612657        7
    31        -0.4984516        3        71         4.1541641        7
    32        -0.0565627        3        72         4.1809642        7
    33         0.5281509        3        73         5.1407856        7
    34         1.4280414        3        74        12.9224472        7
    35         1.4442239        3        75        12.9697745        7
    36         2.8828632        3        76        15.9815616        7
    37         4.8837374        3        77         1.4380370        8
    38         4.9098978        3        78         4.8997366        8
    39        12.2962154        3        79        15.1063556        8
    40        15.0812920        3
------------------------------------------------------------------------
  @CHECKOUT-I, Total execution time (CPU/WALL):        0.73/      17.96 seconds.
--executable xvtran finished with status     0 in       18.15 seconds (walltime).
 --invoking executable--
/home/nike/cfour_v2.00beta/bin/xintprc
 @GETMEM-I,  Allocated   29563 MB of main memory.
  Processing integrals for CCSD calculation.
  @GMOIAA-I, Processing MO integrals for spin case AA.
  @GMOIAA-I, Generation of integral list completed.
                      TYPE                NUMBER
                      ----               --------
                      PPPP                515994
                      PPPH                109018
                      PPHH                  6010
                      PHPH                  3906
                      PHHH                   417
                      HHHH                    16

                     TOTAL                635361
  @GMOIAA-I, Processing MO integrals for spin case BB.
  @GMOIAA-I, Generation of integral list completed.
                      TYPE                NUMBER
                      ----               --------
                      PPPP                572882
                      PPPH                 59373
                      PPHH                  1702
                      PHPH                  1322
                      PHHH                    84
                      HHHH                     4

                     TOTAL                635367
  @GMOIAB-I, Processing MO integrals for spin case AB.
                      TYPE                NUMBER
                      ----               --------
                      PPPP               1084389
                      PPPH1H              114957
                      PPPH2H               56419
                      PPHH                  6064
                      PHPH1P                1264
                      PHPH2P                4109
                      PHHH1P                 140
                      PHHH2P                 227
                      HHHH                     9

                     TOTAL               1267578
            ----------------------------------------------
                     Projected spin multiplicities: 
            ----------------------------------------------
             <0|S^2|0>                  =    2.0000000000.
             <0|S^2 T2|0>               =    0.0000000000.
             Projected <0|S^2 exp(T)|0> =    2.0000000000.
             Approximate spin mult.     =    3.0000000000.
            ----------------------------------------------
   Largest T2 amplitudes for spin case AA:
   i   j   a   b             i   j   a   b             i   j   a   b
-----------------------------------------------------------------------------
[  4   3  70   9] 0.01146 [  4   2  52  24]-0.01119 [  3   2  34  24]-0.01119
[  4   3  52  34]-0.01040 [  4   3  55  37]-0.01039 [  4   2  55  27]-0.01037
[  3   2  37  27]-0.01037 [  4   2  62  10]-0.00991 [  3   2  44  10]-0.00991
[  4   2  55  24]-0.00945 [  3   2  37  24]-0.00945 [  4   3  55  34]-0.00891
[  4   3  52  37]-0.00891 [  4   2  52  27]-0.00887 [  3   2  34  27]-0.00887
-----------------------------------------------------------------------------
   Norm of T2AA vector (     2106 symmetry allowed elements):  0.0637720258.
-----------------------------------------------------------------------------
   Largest T2 amplitudes for spin case BB:
   i   j   a   b             i   j   a   b             i   j   a   b
-----------------------------------------------------------------------------
[  2   1  43  31]-0.01041 [  2   1  62  50]-0.01041 [  2   1  22   6] 0.00756
[  2   1  46  31] 0.00673 [  2   1  65  50] 0.00673 [  2   1  25   6] 0.00639
[  2   1  25  12]-0.00618 [  2   1  61  50] 0.00569 [  2   1  42  31] 0.00569
[  2   1  22  12]-0.00509 [  2   1  22   3]-0.00461 [  2   1  21   6] 0.00373
[  2   1  25   3]-0.00349 [  2   1  28  12]-0.00302 [  2   1  62  52]-0.00279
-----------------------------------------------------------------------------
   Norm of T2BB vector (      380 symmetry allowed elements):  0.0267649764.
-----------------------------------------------------------------------------
   Largest T2 amplitudes for spin case AB:
       _       _                 _       _                 _       _
   i   j   a   b             i   j   a   b             i   j   a   b
-----------------------------------------------------------------------------
[  2   1  44  31]-0.01877 [  2   1  62  50]-0.01877 [  3   1   9  31] 0.01840
[  4   1  70  31]-0.01840 [  3   1  70  50]-0.01840 [  4   1   9  50]-0.01840
[  2   2  24  22]-0.01806 [  2   2  27  25]-0.01751 [  2   2  24  25]-0.01388
[  2   2  27  22]-0.01373 [  4   2  52  22]-0.01319 [  3   2  34  22]-0.01319
[  2   2  10   7]-0.01306 [  4   1  15  50] 0.01294 [  4   1  73  31] 0.01294
-----------------------------------------------------------------------------
   Norm of T2AB vector (     6064 symmetry allowed elements):  0.1265378135.
-----------------------------------------------------------------------------
  @CHECKOUT-I, Total execution time (CPU/WALL):        0.56/       6.73 seconds.
--executable xintprc finished with status     0 in        9.35 seconds (walltime).
 --invoking executable--
/home/nike/cfour_v2.00beta/bin/xint
 @GETMEM-I,  Allocated   29563 MB of main memory.
  @CHECKOUT-I, Total execution time (CPU/WALL):       10.45/      10.48 seconds.
--executable xint finished with status     0 in       15.49 seconds (walltime).
 --invoking executable--
/home/nike/MRCC/dmrcc
 **********************************************************************
                          MRCC program system
 **********************************************************************
 
                              Written by
    Mihaly Kallay, Zoltan Rolik, Jozsef Csontos, Istvan Ladjanszki,
       Lorant Szegedy, Bence Ladoczki, Gyula Samu, Klara Petrov,
        Mate Farkas, Peter Nagy, David Mester, and Bence Hegely
 
        Department of Physical Chemistry and Materials Science
            Budapest University of Technology and Economics
                  Budapest P.O.Box 91, H-1521 Hungary
 
                              www.mrcc.hu

 ************************ 2019-01-01 20:13:01 *************************
 Executing minp...

 Reading input from MINP...
 
 Input file:
 
# F+ 4Z
basis=aVQZ-EMSL
iface=cfour
uncontract=off
calc=CC(6)
mem=31GB
core=1
itol=18
scftol=13
cctol=7
ccmaxit=999
scfmaxit=9999
scfiguess=ao
scftype=ROHF
rohftype=semicanonical
rest=2
charge=+1
refdet=serialno
1,2
3,4

symm=4
mult=3
#occ=3,0,0,0,0,1,0,0/1,0,0,0,0,1,0,0
geom
F

#Li 1 R

#R=3.065

#unit=angstroms

tprint=0.01
verbosity=4
nstate=4

 
 
 Checking keyword combinations...
 
 Keywords:
 
 active=none
 agrid=ld0006-ld0590
 basis=avqz-emsl
 basopt=off
 bpcompo=0.985
 bpcompv=0.98
 bpdfo=0.985
 bpocc=0.985
 bppdo=0.985
 bppdv=0.98
 bpedo=0.985
 bpedv=0.98
 calc=cc(6)
 ccmaxit=999
 ccprog=mrcc
 cctol=7
 charge=+1
 cialg=disk
 ciguess=off
 cmpgrp=auto
 core=1
 corembed=off
 dboc=off
 dendec=cholesky
 dens=0
 dfalg=invsqrt
 dfbasis_cor=none
 dfbasis_scf=none
 dfintran=ovirt
 dft=off
 diag=david
 domrad=10.d0
 drpaalg=fit
 ecp=auto
 edisp=off
 embed=off
 epert=none
 eps=0.975
 excrad=0.d0
 excrad_fin=0.000000000D+00
 freq=off
 gauss=spher
 geom=zmat
 gopt=off
 ghost=none
 gtol=7
 grtol=10
 hamilton=dc
 iface=cfour
 intalg=auto
 itol=18
 lcorthr=loose
 lccrest=off
 lmp2dens=on
 lnoepso=3e-5
 lnoepsv=1e-6
 localcc=off
 locintrf=disk
 maxact=off
 maxex=0
 bfbasis=none
 mem=31gb
 molden=on
 mulmet=0
 mult=3
 nacto=0
 nactv=0
 naf_cor=off
 naf_scf=off
 nafalg=albe
 naftyp=
 nchol=auto
 ndeps=1e-3
 nstate=4
 nsing=0
 ntrip=0
 occ=
 optalg=
 optmaxit=50
 optetol=1e-6
 optgtol=1e-4
 optstol=1e-3
 orblocc=off
 orbloco=off
 orblocv=off
 osveps=1e-3
 ovirt=off
 ovosnorb=80.0
 ptfreq=0.0
 popul=off
 pressure=100000
 qmmm=off
 refdet=serialno
 rest=2
 rgrid=log3
 rohftype=semicanonical
 scspe=1.d0
 scsps=1.2d0
 scspt=0.33333333333333
 scfalg=auto
 scfdamp=off
 scfdiis=on
 scfdiis_end=9999
 scfdiis_start=1
 scfdiis_step=1
 scfdtol=17
 scfext=10
 scfiguess=ao
 scflshift=off
 scfmaxit=9999
 scftype=rohf
 scftol=13
 spairtol=1e-4
 symm=4
 talg=occ
 temp=298.15
 test=off
 tprint=0.01
 uncontract=off
 unit=angs
 verbosity=4
 wpairtol=0.100000000E-05

 ************************ 2019-01-01 20:13:03 *************************
 Executing goldstone...

 Generation of CC equations in terms of H and T...
 Generation of antisymmetrized Goldstone diagrams...
 Number of diagrams in T^1 equations:    15
 Number of diagrams in T^2 equations:    38
 Number of diagrams in T^3 equations:    54
 Number of diagrams in T^4 equations:    81
 Number of diagrams in T^5 equations:   105
 Number of diagrams in T^6 equations:   135
 Translation of diagrams to factorized equations...
 Optimizing intermediate calculation...
 Optimizing right-hand EOMCC calculation...
 Number of floating-point operations per iteration step:   1.7872E+14
 Probable CPU time per iteration step (hours):   1787.15
 Required memory (Mbytes):  695225.1
 Number of intermediates:                                 480
 Number of intermediates to be stored:                    179
 Length of intermediate file (Mbytes):  787641.9

 ************************ 2019-01-01 20:13:11 *************************
 Executing xmrcc...

 **********************************************************************
 CC(                     6 ) calculation 
 
 
 Allocation of****** Mbytes of memory...
 Number of spinorbitals:                   158
 Number of alpha electrons:                        4
 Number of beta electrons:                         2
 z-component of spin:  1.0
 Spatial symmetry:                      4
 Convergence criterion:  1.0E-07
 Spatial symmetry of ground state:                      7
 Construction of occupation graphs...
 Number of                     0 -fold excitations:                      0
 Number of                     1 -fold excitations:                     50
 Number of                     2 -fold excitations:                   8238
 Number of                     3 -fold excitations:                 464549
 Number of                     4 -fold excitations:               11441264
 Number of                     5 -fold excitations:              122178973
 Number of                     6 -fold excitations:              444574806
 Total number of configurations:              578667880
 Number of ground state excitations: 
 Number of                     0 -fold excitations:                      1
 Number of                     1 -fold excitations:                     76
 Number of                     2 -fold excitations:                   8550
 Number of                     3 -fold excitations:                 464089
 Number of                     4 -fold excitations:               11438859
 Number of                     5 -fold excitations:              122192443
 Number of                     6 -fold excitations:              444563862
 Total number of configurations:              578667880
 Calculation of coupling coefficients...
 Length of intermediate file (Mbytes):  314009.1
 
 ======================================================================
 
 ======================================================================
 
 ======================================================================
 
 ======================================================================
 
 Memory requirements /Mbyte/: 
               Minimal        Optimal
 Real*8:    1860510.7356   1860510.7356
 Integer:       476.1690
 Total:     1860986.9046   1860986.9046
 

 ************************ 2019-01-01 20:14:06 *************************
 Executing goldstone...

 Generation of MRCC equations in terms of H and T...
 Generation of antisymmetrized Goldstone diagrams...
 Number of diagrams in T^1 equations:    15
 Number of diagrams in T^2 equations:    38
 Number of diagrams in T^3 equations:    54
 Number of diagrams in T^4 equations:    81
 Number of diagrams in T^5 equations:   105
 Number of diagrams in T^6 equations:   135
 Translation of diagrams to factorized equations...
 Number of restricted diagrams in T^1 equations:     30
 Number of restricted diagrams in T^2 equations:    129
 Number of restricted diagrams in T^3 equations:    306
 Number of restricted diagrams in T^4 equations:    674
 Number of restricted diagrams in T^5 equations:   1282
 Number of restricted diagrams in T^6 equations:   2288
 Optimizing intermediate calculation...
 Optimizing right-hand EOMCC calculation...
 Number of floating-point operations per iteration step:   1.1612E+14
 Probable CPU time per iteration step (hours):   1161.23
 Required memory (Mbytes):   10147.1
 Number of intermediates:                                3322
 Number of intermediates to be stored:                   1015
 Length of intermediate file (Mbytes):  150881.0

 ************************ 2019-01-01 20:14:25 *************************
 Executing xmrcc...

 **********************************************************************
 MRCC(                     6 ) calculation 
 
 
 Allocation of****** Mbytes of memory...
 Number of spinorbitals:                   158
 Number of alpha electrons:                        4
 Number of beta electrons:                         2
 Number of active particles:                    76
 Number of active holes:                         0
 z-component of spin:  1.0
 Spatial symmetry:                      4
 Convergence criterion:  1.0E-07
 Spatial symmetry of ground state:                      7
 Construction of occupation graphs...
 Number of                     0 -fold excitations:                      0
 Number of                     1 -fold excitations:                     50
 Number of                     2 -fold excitations:                   8238
 Number of                     3 -fold excitations:                 464549
 Number of                     4 -fold excitations:               11441264
 Number of                     5 -fold excitations:              122178973
 Number of                     6 -fold excitations:              444574806
 Total number of configurations:              578667880
 Number of ground state excitations: 
 Number of                     0 -fold excitations:                      1
 Number of                     1 -fold excitations:                     76
 Number of                     2 -fold excitations:                   8550
 Number of                     3 -fold excitations:                 464089
 Number of                     4 -fold excitations:               11438859
 Number of                     5 -fold excitations:              122192443
 Number of                     6 -fold excitations:              444563862
 Total number of configurations:              578667880
 Calculation of coupling coefficients...
 Length of intermediate file (Mbytes):  118431.9
 
 ======================================================================
 
 ======================================================================
 
 ======================================================================
 
 ======================================================================
 
 Memory requirements /Mbyte/: 
               Minimal        Optimal
 Real*8:      27619.9405     27619.9405
 Integer:       527.2123
 Total:       28147.1528     28147.1528
 

 ************************ 2019-01-01 20:23:25 *************************
 Executing goldstone...

 Generation of MRCC equations in terms of H and T...
 Generation of antisymmetrized Goldstone diagrams...
 Number of diagrams in T^1 equations:     8
 Translation of diagrams to factorized equations...
 Number of restricted diagrams in T^1 equations:     12
 Optimizing intermediate calculation...
 Optimizing right-hand EOMCC calculation...
 Number of floating-point operations per iteration step:   3.9985E+03
 Probable CPU time per iteration step (hours):      0.00
 Required memory (Mbytes):    4369.9
 Number of intermediates:                                  52
 Number of intermediates to be stored:                     34
 Length of intermediate file (Mbytes):      43.5

 ************************ 2019-01-01 20:23:26 *************************
 Executing xmrcc...

 **********************************************************************
 MRCC(                     1 ) calculation 
 
 
 Allocation of4369.9 Mbytes of memory...
 Number of spinorbitals:                   158
 Number of alpha electrons:                        4
 Number of beta electrons:                         2
 Number of active particles:                    76
 Number of active holes:                         0
 z-component of spin:  1.0
 Spatial symmetry:                      4
 Convergence criterion:  1.0E-07
 Spatial symmetry of ground state:                      7
 Construction of occupation graphs...
 Number of                     0 -fold excitations:                      0
 Number of                     1 -fold excitations:                     50
 Total number of configurations:                     50
 Number of ground state excitations: 
 Number of                     0 -fold excitations:                      1
 Number of                     1 -fold excitations:                     76
 Total number of configurations:                     77
 Calculation of coupling coefficients...
 Length of intermediate file (Mbytes):      36.2
 
 ======================================================================
 
 ======================================================================
 
 ======================================================================
 
 ======================================================================
 
 Memory requirements /Mbyte/: 
               Minimal        Optimal
 Real*8:          3.8568       297.2647
 Integer:         4.0435
 Total:           7.9003       301.3081
 

 ************************ 2019-01-01 20:23:27 *************************
 Executing mrcc...

 **********************************************************************
 LR-CCS calculation                                                     
 
 
 OpenMP parallel version is running.
 Number of CPUs:  16
 Allocation of  297.3 Mbytes of memory...
 Number of spinorbitals: 158
 Number of alpha electrons:  4
 Number of beta  electrons:  2
 Number of active particles:                    76
 Number of active holes:                         0
 z-component of spin:  1.0
 Spatial symmetry: 4
 Convergence criterion:  1.0E-07
 Spatial symmetry of ground state:                      7
 Construction of occupation graphs...
 Number of excitations for irrep 1: 
 Number of 0-fold excitations: 1
 Number of 1-fold excitations: 76
 Total number of determinants: 77
 Number of excitations for irrep 6: 
 Number of 0-fold excitations: 0
 Number of 1-fold excitations: 50
 Total number of determinants: 50
 Calculation of coupling coefficients...
 Initial cluster amplitudes are generated.
 Length of intermediate file (Mbytes):      36.2
 Reading integral list from unit 55...
 Sorting integrals...
 Sorting integrals...
 Sorting integrals...
 Sorting integrals...
 Energy of reference determinant [au]:     -98.832060151304
 Calculation of diagonal elements of Hamiltonian...
 Calculation of MP denominators...
 
 Starting CC iteration...
 ======================================================================
 Norm of residual vector:     0.15757976
 CPU time [min]:     0.653                   Wall time [min]:     0.520
 
 Iteration  1  CC energy:   -98.83697119  Energy decrease:   0.00491103
 ======================================================================
 Norm of residual vector:     0.03176013
 CPU time [min]:     0.657                   Wall time [min]:     0.520
 
 Iteration  2  CC energy:   -98.83838477  Energy decrease:   0.00141359
 ======================================================================
 Norm of residual vector:     0.00334440
 CPU time [min]:     0.661                   Wall time [min]:     0.521
 
 Iteration  3  CC energy:   -98.83841293  Energy decrease:   0.00002816
 ======================================================================
 Norm of residual vector:     0.00033277
 CPU time [min]:     0.666                   Wall time [min]:     0.521
 
 Iteration  4  CC energy:   -98.83841351  Energy decrease:   0.00000059
 ======================================================================
 Norm of residual vector:     0.00002044
 CPU time [min]:     0.670                   Wall time [min]:     0.521
 
 Iteration  5  CC energy:   -98.83841340  Energy decrease:   0.00000012
 ======================================================================
 Norm of residual vector:     0.00000149
 CPU time [min]:     0.674                   Wall time [min]:     0.522
 
 Iteration  6  CC energy:   -98.83841339  Energy decrease:   0.00000001
 ======================================================================
 Norm of residual vector:     0.00000012
 CPU time [min]:     0.679                   Wall time [min]:     0.522
 
 Iteration  7  CC energy:   -98.83841339  Energy decrease:   7.0428E-10
 ======================================================================
 Norm of residual vector:     0.00000001
 CPU time [min]:     0.683                   Wall time [min]:     0.522
 
 Iteration  8  CC energy:   -98.83841339  Energy decrease:   9.5696E-11
 ======================================================================
 
 Iteration has converged in  8 steps.
 
 Final results:
 Total CCS energy [au]:              -98.838413387901
 Spin multiplicity:                     2
 
 
 
 Dominant cluster amplitudes
 Printing threshold:  1.00E-02
 
    1.000000  Reference determinant                                     
   -0.011465  1b -> 50b                                                 
    0.010617  1a -> 54a                                                 
   -0.013549  1b -> 5b                                                  
   -0.010367  1b -> 13b                                                 
    0.016719  1b -> 17b                                                 
    0.018596  1b -> 26b                                                 
   -0.011563  2b -> 16b                                                 
    0.011649  1a -> 5a                                                  
   -0.014758  1a -> 17a                                                 
   -0.016752  1a -> 29a                                                 
    0.010709  2a -> 16a                                                 
 
 Starting right-hand LR-CC iteration for root                      2 ...
 ======================================================================
 Norm of residual vector:     0.28505195      Convergence:   1.00000000
 CPU time [min]:     0.698                   Wall time [min]:     0.523
 
 Iteration  1  CI energy:   -98.78323374  Energy decrease:   0.05517965
 ======================================================================
 Norm of residual vector:     0.02516161      Convergence:   0.21431185
 CPU time [min]:     0.705                   Wall time [min]:     0.524
 
 Iteration  2  CI energy:   -98.83744419  Energy decrease:   0.05421045
 ======================================================================
 Norm of residual vector:     0.00155020      Convergence:   0.00716221
 CPU time [min]:     0.713                   Wall time [min]:     0.524
 
 Iteration  3  CI energy:   -98.83760428  Energy decrease:   0.00016009
 ======================================================================
 Norm of residual vector:     0.00013062      Convergence:   0.00059381
 CPU time [min]:     0.717                   Wall time [min]:     0.524
 
 Iteration  4  CI energy:   -98.83760515  Energy decrease:   0.00000087
 ======================================================================
 Norm of residual vector:     0.00001075      Convergence:   0.00006816
 CPU time [min]:     0.722                   Wall time [min]:     0.525
 
 Iteration  5  CI energy:   -98.83760518  Energy decrease:   0.00000003
 ======================================================================
 Norm of residual vector:     0.0000E+00      Convergence:   2.2475E-06
 CPU time [min]:     0.726                   Wall time [min]:     0.525
 
 Iteration  6  CI energy:   -98.83760518  Energy decrease:   3.4787E-10
 ======================================================================
 
 Iteration has converged in  6 steps.
 
 Final results:
 Total LR-CCS energy [au]:           -98.837605177266
 Excitation energy [eV]:           0.0220
 Excitation energy [cm^-1]:      177.38
 Absorption wavelength [nm]:   56375.59
 Spin multiplicity:                     2
 
 
 
 Dominant CI coefficients
 Printing threshold:  1.00E-02
 
    0.977121  2b -> 4b                                                  
    0.143819  2b -> 7b                                                  
    0.145594  2b -> 15b                                                 
    0.045937  2b -> 30b                                                 
   -0.010881  1b -> 12b                                                 
    0.017609  1b -> 28b                                                 
   -0.012759  1a -> 28a                                                 
 
 Starting right-hand LR-CC iteration for root                      3 ...
 ======================================================================
 Norm of residual vector:     0.18477041      Convergence:   1.00000000
 CPU time [min]:     0.730                   Wall time [min]:     0.525
 
 Iteration  1  CI energy:   -97.85295107  Energy decrease:   0.98546231
 ======================================================================
 Norm of residual vector:     0.10235225      Convergence:   0.21189017
 CPU time [min]:     0.735                   Wall time [min]:     0.525
 
 Iteration  2  CI energy:   -97.86786586  Energy decrease:   0.01491479
 ======================================================================
 Norm of residual vector:     0.01658069      Convergence:   0.08078411
 CPU time [min]:     0.739                   Wall time [min]:     0.526
 
 Iteration  3  CI energy:   -97.86191165  Energy decrease:   0.00595421
 ======================================================================
 Norm of residual vector:     0.00209240      Convergence:   0.01062492
 CPU time [min]:     0.744                   Wall time [min]:     0.526
 
 Iteration  4  CI energy:   -97.86201338  Energy decrease:   0.00010173
 ======================================================================
 Norm of residual vector:     0.00090519      Convergence:   0.00344105
 CPU time [min]:     0.748                   Wall time [min]:     0.526
 
 Iteration  5  CI energy:   -97.86201914  Energy decrease:   0.00000576
 ======================================================================
 Norm of residual vector:     0.00027188      Convergence:   0.00115921
 CPU time [min]:     0.753                   Wall time [min]:     0.527
 
 Iteration  6  CI energy:   -97.86201963  Energy decrease:   0.00000049
[...]
 Number of 6-fold excitations: 444563862
 Total number of determinants: 578667880
 Number of excitations for irrep 6: 
 Number of 0-fold excitations: 0
 Number of 1-fold excitations: 50
 Number of 2-fold excitations: 8238
 Number of 3-fold excitations: 464549
 Number of 4-fold excitations: 11441264
 Number of 5-fold excitations: 122178973
 Number of 6-fold excitations: 444574806
 Total number of determinants: 578667880
 Calculation of coupling coefficients...
 Initial cluster amplitudes are read from unit 16.
 Length of intermediate file (Mbytes):  118431.9
 Reading integral list from unit 55...
 Sorting integrals...
 Sorting integrals...
 Sorting integrals...
 Sorting integrals...
 Energy of reference determinant [au]:     -98.832060151304
 Calculation of diagonal elements of Hamiltonian...
 Calculation of MP denominators...
 
 Starting CC iteration...
 ======================================================================
 Norm of residual vector:     0.00043801
 CPU time [min]: 14264.065                   Wall time [min]:  1791.223
 
 Iteration  1  CC energy:   -99.01551359  Energy decrease:   8.1812E-11
 ======================================================================
 Norm of residual vector:     0.00007573
 CPU time [min]: 28792.102                   Wall time [min]:  3601.857
 
 Iteration  2  CC energy:   -99.01551359  Energy decrease:   4.8132E-11
 ======================================================================
 Norm of residual vector:     0.00001812
 CPU time [min]: 42810.658                   Wall time [min]:  5243.242
 
 Iteration  3  CC energy:   -99.01551359  Energy decrease:   2.8955E-09
 ======================================================================
 Norm of residual vector:     0.00000367
 CPU time [min]: 56777.095                   Wall time [min]:  6887.560
 
 Iteration  4  CC energy:   -99.01551358  Energy decrease:   0.00000001
 ======================================================================
 Norm of residual vector:     0.00000080
 CPU time [min]: 70865.131                   Wall time [min]:  8581.313
 
 Iteration  5  CC energy:   -99.01551358  Energy decrease:   9.5150E-10
 ======================================================================
 Norm of residual vector:     0.00000020
 CPU time [min]: 85232.828                   Wall time [min]: 10360.881
 
 Iteration  6  CC energy:   -99.01551358  Energy decrease:   9.1305E-10
 ======================================================================
 Norm of residual vector:     0.00000006
 CPU time [min]: 98809.306                   Wall time [min]: 11829.442
 
 Iteration  7  CC energy:   -99.01551358  Energy decrease:   9.4673E-11
 ======================================================================
 
 Iteration has converged in  7 steps.
 
 Final results:
 Total CC(6) energy [au]:            -99.015513582894
 Spin multiplicity:                     2
 
 
 
 Dominant cluster amplitudes
 Printing threshold:  1.00E-02
 
    1.000000  Reference determinant                                     
   -0.012735  1b -> 5b                                                  
    0.014748  1b -> 17b                                                 
    0.013065  1b -> 26b                                                 
   -0.010094  2b -> 8b                                                  
   -0.013528  2b -> 16b                                                 
   -0.012374  1a -> 17a                                                 
   -0.014631  1a -> 29a                                                 
   -0.010364  2a 2b -> 54a 50b                                          
    0.014617  2a 1b -> 52a 3b                                           
   -0.014822  3a 1b -> 50a 3b                                           
    0.014822  4a 1b -> 51a 3b                                           
    0.012341  1b 2b -> 27b 3b                                           
    0.014617  2a 1b -> 53a 4b                                           
    0.014822  3a 1b -> 51a 4b                                           
    0.014822  4a 1b -> 50a 4b                                           
   -0.010632  2a 1b -> 32a 42b                                          
   -0.010239  1a 2b -> 27a 3b                                           
    0.012484  2a 1b -> 11a 3b                                           
   -0.023068  2a 1b -> 27a 3b                                           
   -0.012806  3a 1b -> 10a 3b                                           
    0.011612  3a 1b -> 17a 3b                                           
    0.023528  3a 1b -> 26a 3b                                           
    0.013066  3a 1b -> 29a 3b                                           
   -0.010463  3a 1b -> 31a 42b                                          
   -0.010463  4a 1b -> 30a 42b                                          
    0.012806  4a 1b -> 9a 3b                                            
   -0.023528  4a 1b -> 25a 3b                                           
   -0.012341  1b 2b -> 4b 28b                                           
   -0.010317  1a 1b -> 17a 17b                                          
   -0.014717  2a 2b -> 29a 26b                                          
   -0.010206  2a 2b -> 16a 8b                                           
   -0.010110  2a 2b -> 8a 16b                                           
   -0.020522  2a 2b -> 16a 16b                                          
   -0.016114  2a 2b -> 32a 16b                                          
   -0.015607  2a 2b -> 16a 32b                                          
   -0.019058  2a 2b -> 32a 32b                                          
   -0.011415  2a 2b -> 27a 27b                                          
   -0.011415  2a 2b -> 28a 28b                                          
    0.012607  1a 2b -> 17a 16b                                          
    0.010800  1a 2b -> 17a 32b                                          
   -0.010875  1a 2b -> 42a 32b                                          
    0.012588  2a 1b -> 16a 17b                                          
    0.011047  2a 1b -> 32a 17b                                          
   -0.010239  1a 2b -> 28a 4b                                           
    0.012484  2a 1b -> 12a 4b                                           
   -0.023068  2a 1b -> 28a 4b                                           
    0.012026  3a 1b -> 14a 17b                                          
    0.010873  3a 1b -> 31a 17b                                          
    0.012806  3a 1b -> 9a 4b                                            
   -0.023528  3a 1b -> 25a 4b                                           
   -0.014974  3a 2b -> 14a 16b                                          
   -0.012220  3a 2b -> 31a 16b                                          
   -0.011358  3a 2b -> 14a 32b                                          
   -0.013604  3a 2b -> 31a 32b                                          
    0.012806  4a 1b -> 10a 4b                                           
    0.011612  4a 1b -> 17a 4b                                           
   -0.023528  4a 1b -> 26a 4b                                           
    0.013066  4a 1b -> 29a 4b                                           
    0.012026  4a 1b -> 15a 17b                                          
    0.010873  4a 1b -> 30a 17b                                          
   -0.014974  4a 2b -> 15a 16b                                          
   -0.012220  4a 2b -> 30a 16b                                          
   -0.011358  4a 2b -> 15a 32b                                          
   -0.013604  4a 2b -> 30a 32b                                          
    0.011863  2a 3a -> 14a 16a                                          
    0.010715  2a 3a -> 27a 29a                                          
    0.010798  2a 3a -> 31a 32a                                          
    0.011863  2a 4a -> 15a 16a                                          
    0.010715  2a 4a -> 28a 29a                                          
    0.010798  2a 4a -> 30a 32a                                          
   -0.011365  3a 4a -> 14a 15a                                          
   -0.011537  3a 4a -> 25a 26a                                          
    0.010980  3a 4a -> 30a 31a                                          
 
 Starting right-hand LR-CC iteration for root                      2 ...
 ======================================================================
 Norm of residual vector:     0.00049818      Convergence:   1.00000000
 CPU time [min]:123058.806                   Wall time [min]: 14297.890
 
 Iteration  1  CI energy:   -99.01549402  Energy decrease:   0.00001956
 ======================================================================
 Norm of residual vector:     0.00006692      Convergence:   0.00002839
 CPU time [min]:147687.047                   Wall time [min]: 16784.349
 
 Iteration  2  CI energy:   -99.01549404  Energy decrease:   0.00000001
 ======================================================================
 Norm of residual vector:     0.00001355      Convergence:   0.00000457
 CPU time [min]:171819.754                   Wall time [min]: 19141.017
 
 Iteration  3  CI energy:   -99.01549403  Energy decrease:   3.7148E-09
 ======================================================================
 Norm of residual vector:     0.00000317      Convergence:   0.00000108
 CPU time [min]:197153.597                   Wall time [min]: 21805.726
 
 Iteration  4  CI energy:   -99.01549403  Energy decrease:   1.6874E-10
 ======================================================================
 Norm of residual vector:     0.00000089      Convergence:   0.00000032
 CPU time [min]:221691.485                   Wall time [min]: 24306.505
 
 Iteration  5  CI energy:   -99.01549402  Energy decrease:   0.00000001
 ======================================================================
 Norm of residual vector:     0.00000050      Convergence:   0.00000012
 CPU time [min]:245773.022                   Wall time [min]: 26608.783
 
 Iteration  6  CI energy:   -99.01549402  Energy decrease:   1.3811E-09
 ======================================================================
 Norm of residual vector:     0.0000E+00      Convergence:   6.5322E-08
 CPU time [min]:271746.774                   Wall time [min]: 29324.977
 
 Iteration  7  CI energy:   -99.01549402  Energy decrease:   2.3004E-09
 ======================================================================
 
 Iteration has converged in  7 steps.
 
 Final results:
 Total LR-CC(6) energy [au]:         -99.015494023054
 Excitation energy [eV]:           0.0005
 Excitation energy [cm^-1]:        4.29
 Absorption wavelength [nm]: 2329433.63
 Spin multiplicity:                     2
 
 
 
 Dominant CI coefficients
 Printing threshold:  1.00E-02
 
   -0.969683  2b -> 4b                                                  
   -0.139790  2b -> 7b                                                  
   -0.140913  2b -> 15b                                                 
   -0.046753  2b -> 30b                                                 
   -0.012851  1b -> 28b                                                 
    0.010407  2a -> 15a                                                 
    0.010654  1a -> 28a                                                 
   -0.012219  1b 2b -> 25b 3b                                           
    0.012194  1b 2b -> 4b 50b                                           
   -0.010811  4a 2b -> 47a 4b                                           
    0.015530  4a 1b -> 53a 4b                                           
    0.013797  1a 2b -> 54a 4b                                           
    0.018313  2a 1b -> 54a 4b                                           
   -0.011340  2a 2b -> 49a 4b                                           
    0.015851  3a 1b -> 52a 4b                                           
    0.010148  1a 2b -> 25a 3b                                           
    0.013588  1b 2b -> 4b 13b                                           
   -0.021625  1b 2b -> 4b 26b                                           
    0.012219  1b 2b -> 4b 29b                                           
    0.011290  4a 2b -> 26a 29b                                          
    0.011439  4a 2b -> 15a 4b                                           
    0.010726  4a 2b -> 15a 7b                                           
    0.012013  4a 2b -> 7a 15b                                           
    0.022315  4a 2b -> 15a 15b                                          
    0.015906  4a 2b -> 30a 15b                                          
    0.016904  4a 2b -> 15a 30b                                          
    0.019388  4a 2b -> 30a 30b                                          
    0.011340  4a 2b -> 28a 28b                                          
    0.011290  4a 2b -> 25a 25b                                          
    0.012403  4a 1b -> 12a 4b                                           
   -0.023405  4a 1b -> 28a 4b                                           
    0.010148  1a 2b -> 26a 4b                                           
   -0.017849  1a 2b -> 29a 4b                                           
   -0.012256  1a 2b -> 17a 15b                                          
   -0.011070  1a 2b -> 17a 30b                                          
    0.011019  1a 2b -> 42a 30b                                          
   -0.010638  2a 1b -> 5a 4b                                            
    0.014426  2a 1b -> 13a 4b                                           
    0.012568  2a 1b -> 17a 4b                                           
   -0.027281  2a 1b -> 29a 4b                                           
   -0.010671  1a 1b -> 16a 4b                                           
   -0.013241  2a 2b -> 8a 4b                                            
   -0.020969  2a 2b -> 16a 4b                                           
    0.012196  2a 2b -> 16a 15b                                          
    0.011103  2a 2b -> 32a 15b                                          
    0.010857  2a 2b -> 16a 30b                                          
    0.013676  2a 2b -> 32a 30b                                          
    0.014585  3a 2b -> 14a 15b                                          
    0.011710  3a 2b -> 31a 15b                                          
    0.011686  3a 2b -> 14a 30b                                          
    0.013800  3a 2b -> 31a 30b                                          
    0.012561  3a 1b -> 11a 4b                                           
   -0.023926  3a 1b -> 27a 4b                                           
 
 Starting right-hand LR-CC iteration for root                      3 ...
 ======================================================================
 Norm of residual vector:     0.00321565      Convergence:   1.00000000
 CPU time [min]:296875.387                   Wall time [min]: 31922.573
 
 Iteration  1  CI energy:   -98.07242535  Energy decrease:   0.94308823
 ======================================================================
 Norm of residual vector:     0.00052075      Convergence:   0.00023596
 CPU time [min]:321724.102                   Wall time [min]: 34556.459
 
 Iteration  2  CI energy:   -98.07242568  Energy decrease:   0.00000032
 ======================================================================
 Norm of residual vector:     0.00011741      Convergence:   0.00004442
 CPU time [min]:346056.971                   Wall time [min]: 37053.374
 
 Iteration  3  CI energy:   -98.07242542  Energy decrease:   0.00000026
 ======================================================================
 Norm of residual vector:     0.00003145      Convergence:   0.00001481
 CPU time [min]:370802.791                   Wall time [min]: 39690.050
 
 Iteration  4  CI energy:   -98.07242516  Energy decrease:   0.00000026
 ======================================================================
 Norm of residual vector:     0.00001787      Convergence:   0.00000794
 CPU time [min]:397102.214                   Wall time [min]: 42613.988
 
 Iteration  5  CI energy:   -98.07242509  Energy decrease:   0.00000006
 ======================================================================
 Norm of residual vector:     0.00000742      Convergence:   0.00000395
 CPU time [min]:422717.307                   Wall time [min]: 45395.648
 
 Iteration  6  CI energy:   -98.07242499  Energy decrease:   0.00000010
 ======================================================================
 Norm of residual vector:     0.00000332      Convergence:   0.00000188
 CPU time [min]:447947.609                   Wall time [min]: 48102.094
 
 Iteration  7  CI energy:   -98.07242498  Energy decrease:   0.00000001
 ======================================================================
 Norm of residual vector:     0.00000319      Convergence:   0.00000203
 CPU time [min]:474137.675                   Wall time [min]: 51200.026
 
 Iteration  8  CI energy:   -98.07242497  Energy decrease:   0.00000001
 ======================================================================
 Norm of residual vector:     0.00000991      Convergence:   0.00000590
 CPU time [min]:502095.424                   Wall time [min]: 55052.318
 
 Iteration  9  CI energy:   -98.07242493  Energy decrease:   0.00000004
 ======================================================================
 Norm of residual vector:     0.00000920      Convergence:   0.00000429
 CPU time [min]:528389.476                   Wall time [min]: 58078.020
 
 Iteration 10  CI energy:   -98.07242500  Energy decrease:   0.00000007
 ======================================================================
 Norm of residual vector:     0.00000255      Convergence:   0.00000143
 CPU time [min]:557324.927                   Wall time [min]: 62985.038
 
 Iteration 11  CI energy:   -98.07242497  Energy decrease:   0.00000004
 ======================================================================
 Norm of residual vector:     0.00000123      Convergence:   0.00000067
 CPU time [min]:588460.986                   Wall time [min]: 68082.913
 
 Iteration 12  CI energy:   -98.07242496  Energy decrease:   4.5566E-09
 ======================================================================
 Norm of residual vector:     0.00000079      Convergence:   0.00000037
 CPU time [min]:620437.684                   Wall time [min]: 74867.441
 
 Iteration 13  CI energy:   -98.07242496  Energy decrease:   2.0928E-10
 ======================================================================
 Norm of residual vector:     0.00000039      Convergence:   0.00000027
 CPU time [min]:653472.909                   Wall time [min]: 81711.691
 
 Iteration 14  CI energy:   -98.07242497  Energy decrease:   2.6730E-09
 ======================================================================
 Norm of residual vector:     0.00000139      Convergence:   0.00000037
 CPU time [min]:685630.376                   Wall time [min]: 88642.327
 
 Iteration 15  CI energy:   -98.07242497  Energy decrease:   3.5316E-09
 ======================================================================
 
 Fatal error in mrcc.
 Program will stop.
 
 ************************ 2019-03-20 07:40:53 *************************
                   Error at the termination of mrcc.
 **********************************************************************
--executable dmrcc finished with status   256 in  6694072.19 seconds (walltime).
  This computation required                      6694125.50 seconds (walltime).
--- SharcNET Job Epilogue ---
Job completed successfully.
               jobid: 1652352
               resid: 3131368
         exit status: 0
      allocated time: 6690530
           user time: 54340400
         system time: 936820
peak rss=33176858624; peak vsz=48884531200 (bytes)
atime=6690530; utime=54340400; stime=936820; exit=0
