 --invoking executable--
/home/nike/cfour_v2.00beta/bin/xjoda


   *************************************************************************
         <<<     CCCCCC     CCCCCC   |||     CCCCCC     CCCCCC   >>>
       <<<      CCC        CCC       |||    CCC        CCC         >>>
      <<<      CCC        CCC        |||   CCC        CCC            >>>
    <<<        CCC        CCC        |||   CCC        CCC              >>>
      <<<      CCC        CCC        |||   CCC        CCC            >>>
       <<<      CCC        CCC       |||    CCC        CCC         >>>
         <<<     CCCCCC     CCCCCC   |||     CCCCCC     CCCCCC   >>>
   *************************************************************************

     ****************************************************************
     * CFOUR Coupled-Cluster techniques for Computational Chemistry *
     ****************************************************************
 

   Department of Chemistry                Institut fuer Physikalische Chemie
   University of Texas at Austin          Universitaet Mainz
   Austin, TX  78712, USA                 D-55099 Mainz, Germany
 
                       Version 2.00beta
 
                     wob149                                            
                     Tue Nov 21 23:02:08 EST 2017                      
                     integer*8 version is running
 
********************************************************************************
*                          Input from ZMAT file                                *
********************************************************************************
Li2                                                                             
Li                                                                              
Li 1 R                                                                          
                                                                                
R=4.17                                                                          
                                                                                
*ACES2(CALC=CCSDT(Q)                                                            
SAVE_INTS=ON                                                                    
XFORM_TOL=18                                                                    
SCF_CONV=9                                                                      
CC_CONV=9                                                                       
REFERENCE=UHF                                                                   
CC_MAXCYC=999                                                                   
SCF_MAXCYC=9999                                                                 
MULT=3                                                                          
T3_EXTRAPOL=ON                                                                  
CC_PROG=MRCC                                                                    
MEM=500                                                                         
MEM_UNIT=GB                                                                     
OCCUPATION=2-0-0-0-2-0-0-0/1-0-0-0-1-0-0-0                                      
BASIS=SPECIAL)                                                                  
                                                                                
LI:aug-cc-pCV7Zi                                                                
LI:aug-cc-pCV7Zi                                                                
                                                                                
********************************************************************************
    -------------------------------------------------------------------
                    CFOUR Control Parameters 
    -------------------------------------------------------------------
        External           Internal           Value            Units
          Name               Name
    -------------------------------------------------------------------
       ABCDTYPE             IABCDT         STANDARD     [  0]   ***   
       ANHARMONIC           IANHAR         OFF          [  0]   ***   
       ANH_ALGORIT          IANALG         STANDARD     [  0]   ***   
       ANH_DERIVAT          IANDER         SECOND       [  1]   ***   
       ANH_STEPSIZ          ICUBST             50000          x 10-6  
       ANH_SYMMETR          IANHSM         ABELIAN      [  0]   ***   
       AO_LADDERS           IAOLAD         SINGLEPASS   [  1]   ***   
       BASIS                IBASIS         SPECIAL      [  0]   ***   
       BREIT                IBREIT         OFF          [  0]   ***   
       BRUCK_CONV           IBRTOL          10D-  4             ***   
       BRUECKNER            IBRKNR             OFF      [  0]   ***   
       BUFFERSIZE           IBUFFS            600               ***   
       CACHE_RECS           ICHREC             10               ***   
       CALCLEVEL            ICLLVL           CCSDT(Q)   [ 54]   ***   
       CCORBOPT             ICCORB             OFF      [  0] x 0.01  
       CC_CONV              ICCCNV          10D-  9             ***   
       CC_EXPORDER          ICCEOR              5               ***   
       CC_EXTRAPOL          ICCEXT             DIIS     [  1]   ***   
       CC_MAXCYC            ICCCYC            999              cycles 
       CC_PROGRAM           ICCPRO         MRCC         [  2]   ***   
       CHARGE               ICHRGE              0               ***   
       CHOLESKY             ICHOLE         OFF          [  0]   ***   
       CIS_CONV             ICISTL              5               ***   
       COMM_SIZE            IPSIZE            ***               ***   
       CONSTANT             ICONST         OLD          [  1]   ***   
       CONTINUUM            ICONTU         NONE         [  0]   ***   
       CONTRACTION          ICNTYP          GENERAL     [  1]   ***   
       COORDINATES          ICOORD         INTERNAL     [  0]   ***   
       CPHF_CONVER          ICPHFT          10D- 16             ***   
       CPHF_MAXCYC          ICPHFC             64              cycles 
       CUBIC                ICUBIC         OFF          [  0]   ***   
       CURVILINEAR          ICURVY            OFF       [  0]   ***   
       DBOC                 IDBOC          OFF          [  0]   ***   
       DCT                  IDCT           OFF          [  0]   ***   
       DERIV_LEV            IDRLVL            ZERO      [  0]   ***   
       DIAG_MRCC            IEOMST          10D-  0             ***   
       DIFF_TYPE            IDIFTY         RELAXED      [  0]   ***   
       DIRECT               IDIRCT         OFF          [  0]   ***   
       DROPMO               IDRPMO      NONE         
       ECP                  IECP           OFF          [  0]   ***   
       EIGENVECTOR          IVEC                1               ***   
       EL_ANHARM            IELANH         OFF          [  0]   ***   
       EOMFOLLOW            IEOMSR         ENERGY       [  0]   ***   
       EOM_MRCC             IMRCCE         NEW          [  1]   ***   
       EOM_NONIT            EOMNON         OFF          [  0]   ***   
       EOM_NSING            IEOMSI          10D-  0             ***   
       EOM_NSTATES          IMRCCD         DAVIDSON     [  0]   ***   
       EOM_NTRIP            IEOMTR          10D-  0             ***   
       EOM_ORDER            IEXORD         ENERGY       [  0]   ***   
       ESTATE_CONV          IEXTOL          10D-  5             ***   
       ESTATE_DIAG          IEXDIG         ITERATIVE    [  0]   ***   
       ESTATE_LOCK          IESLOC         ON           [  1]   ***   
       ESTATE_MAXC          IEXMXC             20               ***   
       ESTATE_PROP          IEXPRP         OFF          [  0]   ***   
       EVAL_HESS            IRECAL              0            # of cyc.
       EXCITATION           IEXCIT              0               ***   
       EXCITE               IEXCIT         NONE         [  0]   ***   
       FCGRADNEW            IFCGNW         OFF          [  0]   ***   
       FC_FIELD             IFINFC              0             x 10-6  
       FD_CALTYPE           IFDCAL         GRADONLY     [  0]   ***   
       FD_PROJECT           IFDPRJ         OFF          [  1]   ***   
       FD_STEPSIZE          IDISFD              0            10-4 bohr
       FD_USEGROUP          IFDGRP         FULL         [  0]   ***   
       FILE_RECSIZ          IFLREC              4096           words  
       FINITE_PERT          IFIPER              0             x 10-6  
       FIXGEOM              IFIXGM         OFF          [  0]   ***   
       FOCK                 IFOCK          AO           [  1]   ***   
       FREQ_ALGORI          IVIALG         STANDARD     [  0]   ***   
       FROZEN_CORE          IFROCO         OFF          [  0]   ***   
       FROZEN_VIRT          IFROVI         OFF          [  0]   ***   
       GAMMA_ABCD           IGABCD         STORE        [  0]   ***   
       GAMMA_ABCI           IGABCI         STORE        [  0]   ***   
       GENBAS_1             IGNBS1              0               ***   
       GENBAS_2             IGNBS2              0               ***   
       GENBAS_3             IGNBS3              0               ***   
       GENBAS_4             IGNBS4              0               ***   
       GEO_CONV             ICONTL              5              H/bohr 
       GEO_MAXCYC           IOPTCY             50               ***   
       GEO_MAXSTEP          IMXSTP            300            millibohr
       GEO_METHOD           INR            SINGLE_POINT [  5]   ***   
       GIAO                 IGIAO          OFF          [  1]   ***   
       GIMIC                IGIMIC         OFF          [  0]   ***   
       GRID                 IGRID          OFF          [  0]   ***   
       GRID_ALGO            IGALGO         SERIAL       [  0]   ***   
       GUESS                IGUESS            MOREAD    [  0]   ***   
       HBAR                 IHBAR              OFF      [  0]   ***   
       HESS_TYPE            IHESTP         SCF          [  0]   ***   
       HF2_FILE             IHF2Fl         USE          [  1]   ***   
       HFSTABILITY          ISTABL         OFF          [  0]   ***   
       INCORE               INCORE             OFF      [  0]   ***   
       INPUT_MRCC           IMRCC          ON           [  1]   ***   
       INTEGRALS            INTTYP             VMOL     [  1]   ***   
       JODA_PRINT           IJPRNT              0               ***   
       LINDEP_TOL           ILINDP              8               ***   
       LINEQ_CONV           IZTACN          10D-  7           cycles  
       LINEQ_EXPOR          ILMAXD              5               ***   
       LINEQ_MAXCY          ILMAXC             50               ***   
       LINEQ_TYPE           ILTYPE         DIIS         [  1]   ***   
       LOCK_ORBOCC          ILOCOC             OFF      [  0]   ***   
       MEMORY_SIZE          IMEMSZ         *********           words  
       MEM_UNIT             IMEMU          GB           [  3]   ***   
       MRCC                 IMRCCC         OFF          [  0]   ***   
       MULTIPLICTY          IMULTP              3               ***   
       NEGEVAL              IDIE             ABORT      [  0]   ***   
       NEWNORM              INEWNO         OFF          [  0]   ***   
       NON-HF               INONHF             OFF      [  0]   ***   
       NTOP_TAMP            ITOPT2             15               ***   
       NUC_MODEL            INUCMO         POINT        [  0]   ***   
       OCCUPATION           IOCCU  A   2,  0,  0,  0,  2,  0,  0,  0,
                                   B   1,  0,  0,  0,  1,  0,  0,  0,
       OPEN-SHELL           IOPEN          SPIN-ORBITAL [  0]   ***   
       ORBITALS             IORBTP           STANDARD   [  0]   ***   
       PARALLEL             IPARAL         ON           [  1]   ***   
       PARA_INT             IPINTS         ON           [  1]   ***   
       PARA_PRINT           IPPRIN              0               ***   
       PERT_ORB             IPTORB         STANDARD     [  0]   ***   
       POINTS               IGRDFD              0               ***   
       PRINT                IPRNT               0               ***   
       PROPS                IPROPS             OFF      [  0]   ***   
       PROP_INTEGR          IINTYP         INTERNAL     [  0]   ***   
       PSI                  IPSI           OFF          [  0]   ***   
       QUARTIC              IQUART         OFF          [  0]   ***   
       RAMAN_INT            IRAMIN         OFF          [  0]   ***   
       RAMAN_ORB            IRAMRE         UNRELAXED    [  0]   ***   
       RDO                  IRDOFM             OFF      [  0]   ***   
       REFERENCE            IREFNC             UHF      [  1]   ***   
       RELATIVIST           IRELAT         OFF          [  0]   ***   
       RELAX_DENS           IRDENS             OFF      [  0]   ***   
       RESET_FLAGS          IRESET             OFF      [  0]   ***   
       RESTART_CC           ICCRES         OFF          [  0]   ***   
       ROT_EVEC             ROTVEC              0               ***   
       SAVE_INTS            ISVINT              ON      [  1]   ***   
       SCALE_ON             ISTCRT              0               ***   
       SCF_CONV             ISCFCV          10D-  9             ***   
       SCF_DAMPING          IDAMP               0             x 10-3  
       SCF_EXPORDE          IRPPOR              6               ***   
       SCF_EXPSTAR          IRPPLS              8               ***   
       SCF_EXTRAPO          IRPP                ON      [  1]   ***   
       SCF_MAXCYC           ISCFCY            ***              cycles 
       SCF_NOSTOP           ISCFST         OFF          [  0]   ***   
       SCF_PRINT            ISCFPR              0               ***   
       SD_FIELD             IFINSD              0             x 10-6  
       SEQUENCE             ISEQUE         OFF          [  0]   ***   
       SOPERT               IPERSO         OFF          [  0]   ***   
       SPHERICAL            IDFGHI             ON       [  1]   ***   
       SPINORBIT            ISOCAL         OFF          [  0]   ***   
       SPINROTATIO          ISRCON         OFF          [  0]   ***   
       SPIN_FLIP            ISPFLP         OFF          [  0]   ***   
       SPIN_ORBIT           ISPORB         OFF          [  0]   ***   
       SPIN_SCAL            ISCSMP         OFF          [  0]   ***   
       SUBGROUP             ISUBGP         DEFAULT      [  0]   ***   
       SUBGRPAXIS           ISBXYZ         X            [  0]   ***   
       SYMMETRY             ISYM             ON         [  0]   ***   
       SYM_CHECK            ISYMCK         OVERRIDE     [  1]   ***   
       T3_EXTRAPOL          IT3EXT         ON           [  1]   ***   
       TAMP_SUM             IEVERY              5               ***   
       TESTSUITE            ITESTS         OFF          [  0]   ***   
       THERMOCH             ITHERM         OFF          [  0]   ***   
       TOL_CHOLESK          ITOLCH          10D-  4             ***   
       TRANGRAD             IRESRM         OFF          [  0]   ***   
       TRANS_INV            ITRAIN         USE          [  0]   ***   
       TREAT_PERT           ITREAT         SIMULTANEOUS [  0]   ***   
       UIJ_THRESHO          IUIJTH              1               ***   
       UNITS                IUNITS         ANGSTROM     [  0]   ***   
       UNOS                 IUNOS          OFF          [  0]   ***   
       UPDATE_HESS          IHUPDT         ON           [  1]   ***   
       VIBPHASE             ISETPH         STANDARD     [  0]   ***   
       VIBRATION            IVIB              NO        [  0]   ***   
       VIB_ALGORIT          IGEALG         STANDARD     [  0]   ***   
       VNATORB              IVNORB         OFF          [  0]   ***   
       VTRAN                IVTRAN         FULL/PARTIAL [  0]   ***   
       XFIELD               IXEFLD              0             x 10-6  
       XFORM_TOL            IXFTOL          10D- 18             ***   
       YFIELD               IYEFLD              0             x 10-6  
       ZFIELD               IZEFLD              0             x 10-6  
    -------------------------------------------------------------------
   2 entries found in Z-matrix 
   Job Title : Li2                                                                             
   There are  1 unique internal coordinates.
   Of these,  0 will be optimized.
   User supplied Z-matrix: 
--------------------------------------------------------------------------------
       SYMBOL    BOND      LENGTH    ANGLE     ANGLE     DIHED     ANGLE
                  TO      (ANGST)    WRT      (DEG)      WRT      (DEG)
--------------------------------------------------------------------------------
        Li   
        Li         1         R    
                  *Initial values for internal coordinates* 
                      Name             Value
                        R               4.1700000000
--------------------------------------------------------------------------------
  1  LI         3     7.01600
  2  LI         3     7.01600
 factor:   60.1997200000000     
   Rotational constants (in cm-1): 
          0.2763533126             0.2763533126
   Rotational constants (in MHz): 
       8284.8650478640          8284.8650478640
********************************************************************************
   The full molecular point group is DXh .
   The largest Abelian subgroup of the full molecular point group is D2h .
   The computational point group is D2h .
********************************************************************************
--------------------------------------------------------------------------------
   Analysis of internal coordinates specified by Z-matrix 
--------------------------------------------------------------------------------
   *The nuclear repulsion energy is    1.142108848920863 a.u.
   *There is   1 degree of freedom within the tot. symm. molecular subspace.
   *Z-matrix requests optimization of   0 coordinates.
   *The optimization is constrained.
   *The following   1 parameters can have non-zero 
    derivatives within the totally symmetric subspace:
             R    [ 1]
   *The following   0 parameters are to be optimized:

   *The following coordinates must be varied in an  unconstrained optimization.
             R    [ 1]
--------------------------------------------------------------------------------
 ----------------------------------------------------------------
 Z-matrix   Atomic            Coordinates (in bohr)
  Symbol    Number           X              Y              Z
 ----------------------------------------------------------------
     LI        3         0.00000000     0.00000000     3.94007980
     LI        3         0.00000000     0.00000000    -3.94007980
 ----------------------------------------------------------------
   Interatomic distance matrix (Angstroms) 
 
                 LI            LI   
                [ 1]        [ 2]
  LI   [ 1]     0.00000
  LI   [ 2]     4.17000     0.00000
   Rotational constants (in cm-1): 
          0.2763533126             0.0000000000
   Rotational constants (in MHz): 
       8284.8650478640             0.0000000000
  There are  754 basis functions.
 @GEOPT-W, Archive file not created for single-point calculation.
  @CHECKOUT-I, Total execution time (CPU/WALL):        0.12/       1.46 seconds.
--executable xjoda finished with status     0 in        1.61 seconds (walltime).
 --invoking executable--
/home/nike/cfour_v2.00beta/bin/xvmol
 Serial version of molecule started
********************************************************************************
                    Input from MOL file
********************************************************************************
INTGRL        1    0    1    0    0    0    0    0    0                         
         *** CFOUR Program System (Release V0.1) ***                            
Li2                                                                             
    1    3 X  Y   Z   0.10E-08              0    0                              
   9999.00      3.00                                                            
          3.00000000    1    7    2    2    2    2    2    2    2               
LI#1   0.000000000000000   0.000000000000000   3.940079795592062                
   19    9                                                                      
   245172.000000000       1.300000000000000E-006  2.000000000000000E-007        
  0.000000000000000E+000  0.000000000000000E+000  0.000000000000000E+000        
  0.000000000000000E+000  0.000000000000000E+000  0.000000000000000E+000        
  0.000000000000000E+000                                                        
   35782.1000000000       1.044000000000000E-005  1.630000000000000E-006        
  0.000000000000000E+000  0.000000000000000E+000  0.000000000000000E+000        
  0.000000000000000E+000  0.000000000000000E+000  0.000000000000000E+000        
  0.000000000000000E+000                                                        
   7999.22000000000       5.612000000000000E-005  8.770000000000001E-006        
  0.000000000000000E+000  0.000000000000000E+000  0.000000000000000E+000        
  0.000000000000000E+000  0.000000000000000E+000  0.000000000000000E+000        
  0.000000000000000E+000                                                        
   2229.05000000000       2.424600000000000E-004  3.788000000000000E-005        
  0.000000000000000E+000  0.000000000000000E+000  0.000000000000000E+000        
  0.000000000000000E+000  0.000000000000000E+000  0.000000000000000E+000        
  0.000000000000000E+000                                                        
   715.097000000000       9.036900000000000E-004  1.413600000000000E-004        
  0.000000000000000E+000  0.000000000000000E+000  0.000000000000000E+000        
  0.000000000000000E+000  0.000000000000000E+000  0.000000000000000E+000        
  0.000000000000000E+000                                                        
   254.300000000000       2.992260000000000E-003  4.682600000000000E-004        
  0.000000000000000E+000  0.000000000000000E+000  0.000000000000000E+000        
  0.000000000000000E+000  0.000000000000000E+000  0.000000000000000E+000        
  0.000000000000000E+000                                                        
   98.2097000000000       8.946040000000001E-003  1.406460000000000E-003        
  0.000000000000000E+000  0.000000000000000E+000  0.000000000000000E+000        
  0.000000000000000E+000  0.000000000000000E+000  0.000000000000000E+000        
  0.000000000000000E+000                                                        
   40.4968000000000       2.436390000000000E-002  3.854930000000000E-003        
  0.000000000000000E+000  0.000000000000000E+000  0.000000000000000E+000        
  0.000000000000000E+000  0.000000000000000E+000  0.000000000000000E+000        
  0.000000000000000E+000                                                        
   17.5830000000000       5.971695000000000E-002  9.622660000000000E-003        
  0.000000000000000E+000  0.000000000000000E+000  0.000000000000000E+000        
  0.000000000000000E+000  0.000000000000000E+000  0.000000000000000E+000        
  0.000000000000000E+000                                                        
   7.94333000000000       0.127610850000000       2.118297000000000E-002        
  0.000000000000000E+000  0.000000000000000E+000  0.000000000000000E+000        
  0.000000000000000E+000  0.000000000000000E+000  0.000000000000000E+000        
  0.000000000000000E+000                                                        
   3.68942000000000       0.227604550000000       4.028382000000000E-002        
  0.000000000000000E+000  0.000000000000000E+000  0.000000000000000E+000        
  0.000000000000000E+000  0.000000000000000E+000  0.000000000000000E+000        
  0.000000000000000E+000                                                        
   1.74673000000000       0.315915780000000       6.437613000000000E-002        
  0.000000000000000E+000  0.000000000000000E+000  0.000000000000000E+000        
  0.000000000000000E+000  0.000000000000000E+000  0.000000000000000E+000        
  0.000000000000000E+000                                                        
  0.839107000000000       0.000000000000000E+000  0.000000000000000E+000        
   1.00000000000000       0.000000000000000E+000  0.000000000000000E+000        
  0.000000000000000E+000  0.000000000000000E+000  0.000000000000000E+000        
  0.000000000000000E+000                                                        
  0.399736000000000       0.000000000000000E+000  0.000000000000000E+000        
  0.000000000000000E+000   1.00000000000000       0.000000000000000E+000        
  0.000000000000000E+000  0.000000000000000E+000  0.000000000000000E+000        
  0.000000000000000E+000                                                        
  0.120210000000000       0.000000000000000E+000  0.000000000000000E+000        
  0.000000000000000E+000  0.000000000000000E+000   1.00000000000000             
  0.000000000000000E+000  0.000000000000000E+000  0.000000000000000E+000        
  0.000000000000000E+000                                                        
  6.804520000000000E-002  0.000000000000000E+000  0.000000000000000E+000        
  0.000000000000000E+000  0.000000000000000E+000  0.000000000000000E+000        
   1.00000000000000       0.000000000000000E+000  0.000000000000000E+000        
  0.000000000000000E+000                                                        
  3.487700000000000E-002  0.000000000000000E+000  0.000000000000000E+000        
  0.000000000000000E+000  0.000000000000000E+000  0.000000000000000E+000        
  0.000000000000000E+000   1.00000000000000       0.000000000000000E+000        
  0.000000000000000E+000                                                        
  1.744200000000000E-002  0.000000000000000E+000  0.000000000000000E+000        
  0.000000000000000E+000  0.000000000000000E+000  0.000000000000000E+000        
  0.000000000000000E+000  0.000000000000000E+000   1.00000000000000             
  0.000000000000000E+000                                                        
  5.400000000000000E-003  0.000000000000000E+000  0.000000000000000E+000        
  0.000000000000000E+000  0.000000000000000E+000  0.000000000000000E+000        
  0.000000000000000E+000  0.000000000000000E+000  0.000000000000000E+000        
   1.00000000000000                                                             
    6    6                                                                      
   72.0571000000000        1.00000000000000       0.000000000000000E+000        
  0.000000000000000E+000  0.000000000000000E+000  0.000000000000000E+000        
  0.000000000000000E+000                                                        
   39.6354000000000       0.000000000000000E+000   1.00000000000000             
  0.000000000000000E+000  0.000000000000000E+000  0.000000000000000E+000        
  0.000000000000000E+000                                                        
   21.8016000000000       0.000000000000000E+000  0.000000000000000E+000        
   1.00000000000000       0.000000000000000E+000  0.000000000000000E+000        
  0.000000000000000E+000                                                        
   11.9921000000000       0.000000000000000E+000  0.000000000000000E+000        
  0.000000000000000E+000   1.00000000000000       0.000000000000000E+000        
  0.000000000000000E+000                                                        
   6.59630000000000       0.000000000000000E+000  0.000000000000000E+000        
  0.000000000000000E+000  0.000000000000000E+000   1.00000000000000             
  0.000000000000000E+000                                                        
   3.62830000000000       0.000000000000000E+000  0.000000000000000E+000        
  0.000000000000000E+000  0.000000000000000E+000  0.000000000000000E+000        
   1.00000000000000                                                             
   11    8                                                                      
   57.1550000000000       8.775000000000001E-005  0.000000000000000E+000        
  0.000000000000000E+000  0.000000000000000E+000  0.000000000000000E+000        
  0.000000000000000E+000  0.000000000000000E+000  0.000000000000000E+000        
   13.5136000000000       7.332100000000000E-004  0.000000000000000E+000        
  0.000000000000000E+000  0.000000000000000E+000  0.000000000000000E+000        
  0.000000000000000E+000  0.000000000000000E+000  0.000000000000000E+000        
   4.32567000000000       3.530080000000000E-003  0.000000000000000E+000        
  0.000000000000000E+000  0.000000000000000E+000  0.000000000000000E+000        
  0.000000000000000E+000  0.000000000000000E+000  0.000000000000000E+000        
   1.58025000000000       1.153326000000000E-002  0.000000000000000E+000        
  0.000000000000000E+000  0.000000000000000E+000  0.000000000000000E+000        
  0.000000000000000E+000  0.000000000000000E+000  0.000000000000000E+000        
  0.610225000000000       0.000000000000000E+000   1.00000000000000             
  0.000000000000000E+000  0.000000000000000E+000  0.000000000000000E+000        
  0.000000000000000E+000  0.000000000000000E+000  0.000000000000000E+000        
  0.250245000000000       0.000000000000000E+000  0.000000000000000E+000        
   1.00000000000000       0.000000000000000E+000  0.000000000000000E+000        
  0.000000000000000E+000  0.000000000000000E+000  0.000000000000000E+000        
  0.110681000000000       0.000000000000000E+000  0.000000000000000E+000        
  0.000000000000000E+000   1.00000000000000       0.000000000000000E+000        
  0.000000000000000E+000  0.000000000000000E+000  0.000000000000000E+000        
  5.198380000000000E-002  0.000000000000000E+000  0.000000000000000E+000        
  0.000000000000000E+000  0.000000000000000E+000   1.00000000000000             
  0.000000000000000E+000  0.000000000000000E+000  0.000000000000000E+000        
  2.539460000000000E-002  0.000000000000000E+000  0.000000000000000E+000        
  0.000000000000000E+000  0.000000000000000E+000  0.000000000000000E+000        
   1.00000000000000       0.000000000000000E+000  0.000000000000000E+000        
  1.245060000000000E-002  0.000000000000000E+000  0.000000000000000E+000        
  0.000000000000000E+000  0.000000000000000E+000  0.000000000000000E+000        
  0.000000000000000E+000   1.00000000000000       0.000000000000000E+000        
  3.900000000000000E-003  0.000000000000000E+000  0.000000000000000E+000        
  0.000000000000000E+000  0.000000000000000E+000  0.000000000000000E+000        
  0.000000000000000E+000  0.000000000000000E+000   1.00000000000000             
    6    6                                                                      
   78.7240000000000        1.00000000000000       0.000000000000000E+000        
  0.000000000000000E+000  0.000000000000000E+000  0.000000000000000E+000        
  0.000000000000000E+000                                                        
   41.3309000000000       0.000000000000000E+000   1.00000000000000             
  0.000000000000000E+000  0.000000000000000E+000  0.000000000000000E+000        
  0.000000000000000E+000                                                        
   21.6991000000000       0.000000000000000E+000  0.000000000000000E+000        
   1.00000000000000       0.000000000000000E+000  0.000000000000000E+000        
  0.000000000000000E+000                                                        
   11.3923000000000       0.000000000000000E+000  0.000000000000000E+000        
  0.000000000000000E+000   1.00000000000000       0.000000000000000E+000        
  0.000000000000000E+000                                                        
   5.98110000000000       0.000000000000000E+000  0.000000000000000E+000        
  0.000000000000000E+000  0.000000000000000E+000   1.00000000000000             
  0.000000000000000E+000                                                        
   3.14010000000000       0.000000000000000E+000  0.000000000000000E+000        
  0.000000000000000E+000  0.000000000000000E+000  0.000000000000000E+000        
   1.00000000000000                                                             
    7    7                                                                      
  0.990000000000000        1.00000000000000       0.000000000000000E+000        
  0.000000000000000E+000  0.000000000000000E+000  0.000000000000000E+000        
  0.000000000000000E+000  0.000000000000000E+000                                
  0.544500000000000       0.000000000000000E+000   1.00000000000000             
  0.000000000000000E+000  0.000000000000000E+000  0.000000000000000E+000        
  0.000000000000000E+000  0.000000000000000E+000                                
  0.299500000000000       0.000000000000000E+000  0.000000000000000E+000        
   1.00000000000000       0.000000000000000E+000  0.000000000000000E+000        
  0.000000000000000E+000  0.000000000000000E+000                                
  0.164800000000000       0.000000000000000E+000  0.000000000000000E+000        
  0.000000000000000E+000   1.00000000000000       0.000000000000000E+000        
  0.000000000000000E+000  0.000000000000000E+000                                
  9.060000000000000E-002  0.000000000000000E+000  0.000000000000000E+000        
  0.000000000000000E+000  0.000000000000000E+000   1.00000000000000             
  0.000000000000000E+000  0.000000000000000E+000                                
  4.980000000000000E-002  0.000000000000000E+000  0.000000000000000E+000        
  0.000000000000000E+000  0.000000000000000E+000  0.000000000000000E+000        
   1.00000000000000       0.000000000000000E+000                                
  2.740000000000000E-002  0.000000000000000E+000  0.000000000000000E+000        
  0.000000000000000E+000  0.000000000000000E+000  0.000000000000000E+000        
  0.000000000000000E+000   1.00000000000000                                     
    5    5                                                                      
   51.9421000000000        1.00000000000000       0.000000000000000E+000        
  0.000000000000000E+000  0.000000000000000E+000  0.000000000000000E+000        
   25.1052000000000       0.000000000000000E+000   1.00000000000000             
  0.000000000000000E+000  0.000000000000000E+000  0.000000000000000E+000        
   12.1341000000000       0.000000000000000E+000  0.000000000000000E+000        
   1.00000000000000       0.000000000000000E+000  0.000000000000000E+000        
   5.86480000000000       0.000000000000000E+000  0.000000000000000E+000        
  0.000000000000000E+000   1.00000000000000       0.000000000000000E+000        
   2.83460000000000       0.000000000000000E+000  0.000000000000000E+000        
  0.000000000000000E+000  0.000000000000000E+000   1.00000000000000             
    6    6                                                                      
  0.889900000000000        1.00000000000000       0.000000000000000E+000        
  0.000000000000000E+000  0.000000000000000E+000  0.000000000000000E+000        
  0.000000000000000E+000                                                        
  0.489500000000000       0.000000000000000E+000   1.00000000000000             
  0.000000000000000E+000  0.000000000000000E+000  0.000000000000000E+000        
  0.000000000000000E+000                                                        
  0.269200000000000       0.000000000000000E+000  0.000000000000000E+000        
   1.00000000000000       0.000000000000000E+000  0.000000000000000E+000        
  0.000000000000000E+000                                                        
  0.148100000000000       0.000000000000000E+000  0.000000000000000E+000        
  0.000000000000000E+000   1.00000000000000       0.000000000000000E+000        
  0.000000000000000E+000                                                        
  8.150000000000000E-002  0.000000000000000E+000  0.000000000000000E+000        
  0.000000000000000E+000  0.000000000000000E+000   1.00000000000000             
  0.000000000000000E+000                                                        
  4.480000000000000E-002  0.000000000000000E+000  0.000000000000000E+000        
  0.000000000000000E+000  0.000000000000000E+000  0.000000000000000E+000        
   1.00000000000000                                                             
    4    4                                                                      
   36.4855000000000        1.00000000000000       0.000000000000000E+000        
  0.000000000000000E+000  0.000000000000000E+000                                
   16.4805000000000       0.000000000000000E+000   1.00000000000000             
  0.000000000000000E+000  0.000000000000000E+000                                
   7.44420000000000       0.000000000000000E+000  0.000000000000000E+000        
   1.00000000000000       0.000000000000000E+000                                
   3.36260000000000       0.000000000000000E+000  0.000000000000000E+000        
  0.000000000000000E+000   1.00000000000000                                     
    5    5                                                                      
  0.695700000000000        1.00000000000000       0.000000000000000E+000        
  0.000000000000000E+000  0.000000000000000E+000  0.000000000000000E+000        
  0.382700000000000       0.000000000000000E+000   1.00000000000000             
  0.000000000000000E+000  0.000000000000000E+000  0.000000000000000E+000        
  0.210500000000000       0.000000000000000E+000  0.000000000000000E+000        
   1.00000000000000       0.000000000000000E+000  0.000000000000000E+000        
  0.115800000000000       0.000000000000000E+000  0.000000000000000E+000        
  0.000000000000000E+000   1.00000000000000       0.000000000000000E+000        
  6.390000000000000E-002  0.000000000000000E+000  0.000000000000000E+000        
  0.000000000000000E+000  0.000000000000000E+000   1.00000000000000             
    3    3                                                                      
   25.5554000000000        1.00000000000000       0.000000000000000E+000        
  0.000000000000000E+000                                                        
   10.4854000000000       0.000000000000000E+000   1.00000000000000             
  0.000000000000000E+000                                                        
   4.30220000000000       0.000000000000000E+000  0.000000000000000E+000        
   1.00000000000000                                                             
    4    4                                                                      
  0.496000000000000        1.00000000000000       0.000000000000000E+000        
  0.000000000000000E+000  0.000000000000000E+000                                
  0.272800000000000       0.000000000000000E+000   1.00000000000000             
  0.000000000000000E+000  0.000000000000000E+000                                
  0.150100000000000       0.000000000000000E+000  0.000000000000000E+000        
   1.00000000000000       0.000000000000000E+000                                
  8.250000000000000E-002  0.000000000000000E+000  0.000000000000000E+000        
  0.000000000000000E+000   1.00000000000000                                     
    2    2                                                                      
   18.4523000000000        1.00000000000000       0.000000000000000E+000        
   6.80970000000000       0.000000000000000E+000   1.00000000000000             
    3    3                                                                      
  0.392200000000000        1.00000000000000       0.000000000000000E+000        
  0.000000000000000E+000                                                        
  0.215700000000000       0.000000000000000E+000   1.00000000000000             
  0.000000000000000E+000                                                        
  0.118700000000000       0.000000000000000E+000  0.000000000000000E+000        
   1.00000000000000                                                             
    1    1                                                                      
   14.8820000000000        1.00000000000000                                     
FINISH                                                                          
 
********************************************************************************
 One- and two-electron integrals over symmetry-adapted AOs are calculated.

  Spherical harmonics are used.
  
  Integrals less than  0.10E-13 are neglected.

   Basis function not normalized: 
   Center (as ordered in MOL file):   1
   Angular Momentum type          : s
   Offset within angular momentum :  1
   <chi|chi>                      :    1.4499071260
   Basis function not normalized: 
   Center (as ordered in MOL file):   1
   Angular Momentum type          : s
   Offset within angular momentum :  2
   <chi|chi>                      :    7.8247826694
   Basis function not normalized: 
   Center (as ordered in MOL file):   1
   Angular Momentum type          : p
   Offset within angular momentum :  1
   <chi|chi>                      :   68.2192928525
  Nuclear repulsion energy :    1.1421088489 a.u.
  required memory for a1 array              371103280  words 
  required memory for a2 array              101813375  words 
 @GETMEM-I,  Allocated    3623 MB of main memory.
  @MOLECU-I, One electron integrals (CPU/WALL):        0.90/       0.91 seconds.
  @TWOEL-I,   75690353 integrals of symmetry type  I I I I
  @TWOEL-I,  865554696 integrals of symmetry type  I J I J
  @TWOEL-I,  462759106 integrals of symmetry type  I I J J
  @TWOEL-I, 2366886758 integrals of symmetry type  I J K L
  @TWOEL-I, Total number of 2-e integrals 3770890913.
  @MOLECU-I, Two electron integrals (CPU/WALL):     8915.94/    9279.52 seconds.
  @CHECKOUT-I, Total execution time (CPU/WALL):     8923.01/    9287.36 seconds.
--executable xvmol finished with status     0 in     9287.69 seconds (walltime).
 --invoking executable--
/home/nike/cfour_v2.00beta/bin/xvmol2ja
 @GETMEM-I,  Allocated  476837 MB of main memory.
  @CHECKOUT-I, Total execution time (CPU/WALL):        0.83/      19.55 seconds.
--executable xvmol2ja finished with status     0 in       21.22 seconds (walltime).
 --invoking executable--
/home/nike/cfour_v2.00beta/bin/xvscf
  There are  754 functions in the AO basis.

  There are 8 irreducible representations.

       Irrep        # of functions
         1                131
         2                 92
         3                 92
         4                 62
         5                131
         6                 92
         7                 92
         8                 62


  Parameters for SCF calculation: 
        SCF reference function:  UHF  
  Maximum number of iterations: 9999
     Full symmetry point group: DXh 
     Computational point group: D2h 
        Initial density matrix: MOREAD                 
     SCF convergence tolerance: 10**(- 9)
  DIIS convergence acceleration:  ON
          Latest start for DIIS:   8
                     DIIS order:   6

     Alpha population by irrep:   2    0    0    0    2    0    0    0
      Beta population by irrep:   1    0    0    0    1    0    0    0


  Memory information:   42758734 words required.
  Fock matrices are constructed from AO integral file.
 @GETMEM-I,  Allocated     326 MB of main memory.
  Initialization and symmetry analysis required      0.002 seconds.

 total no. of electrons in initial guess :  0.000000000000000E+000
 total no. of electrons in initial guess :  0.000000000000000E+000
  --------------------------------------------------------------------
  Iteration         Total Energy            Largest Density Difference
  --------------------------------------------------------------------
       0             1.142108848920863              0.0000000000D+00
   current occupation vector 
     2  0  0  0  2  0  0  0
     1  0  0  0  1  0  0  0
       1           -13.943651664140264              0.1358092360D+01
   current occupation vector 
     2  0  0  0  2  0  0  0
     1  0  0  0  1  0  0  0
       2           -14.760440024552876              0.3454157380D+01
   current occupation vector 
     2  0  0  0  2  0  0  0
     1  0  0  0  1  0  0  0
       3           -14.839651567966380              0.3385405505D+01
   current occupation vector 
     2  0  0  0  2  0  0  0
     1  0  0  0  1  0  0  0
       4           -14.858850065824573              0.1569502117D+00
   current occupation vector 
     2  0  0  0  2  0  0  0
     1  0  0  0  1  0  0  0
       5           -14.863379222639995              0.1924884593D-01
   current occupation vector 
     2  0  0  0  2  0  0  0
     1  0  0  0  1  0  0  0
       6           -14.864039852662962              0.1957269008D-01
   current occupation vector 
     2  0  0  0  2  0  0  0
     1  0  0  0  1  0  0  0
       7           -14.864066037570808              0.7178218722D-02
   current occupation vector 
     2  0  0  0  2  0  0  0
     1  0  0  0  1  0  0  0
       8           -14.864067498688243              0.7361918607D-03
   current occupation vector 
     2  0  0  0  2  0  0  0
     1  0  0  0  1  0  0  0
       9           -14.864067535537568              0.2781811902D-03
   current occupation vector 
     2  0  0  0  2  0  0  0
     1  0  0  0  1  0  0  0
      10           -14.864067538854716              0.5637823477D-04
   current occupation vector 
     2  0  0  0  2  0  0  0
     1  0  0  0  1  0  0  0
      11           -14.864067539047817              0.1997541062D-04
   current occupation vector 
     2  0  0  0  2  0  0  0
     1  0  0  0  1  0  0  0
      12           -14.864067539053082              0.7240652026D-05
   current occupation vector 
     2  0  0  0  2  0  0  0
     1  0  0  0  1  0  0  0
      13           -14.864067539053679              0.2407202771D-05
   current occupation vector 
     2  0  0  0  2  0  0  0
     1  0  0  0  1  0  0  0
      14           -14.864067539054581              0.1636104378D-06
   current occupation vector 
     2  0  0  0  2  0  0  0
     1  0  0  0  1  0  0  0
      15           -14.864067539058240              0.8213771260D-07
   current occupation vector 
     2  0  0  0  2  0  0  0
     1  0  0  0  1  0  0  0
      16           -14.864067539053700              0.8193404649D-07
   current occupation vector 
     2  0  0  0  2  0  0  0
     1  0  0  0  1  0  0  0
      17           -14.864067539054112              0.1647292721D-08
   current occupation vector 
     2  0  0  0  2  0  0  0
     1  0  0  0  1  0  0  0
      18           -14.864067539054236              0.1051187560D-07
   current occupation vector 
     2  0  0  0  2  0  0  0
     1  0  0  0  1  0  0  0
      19           -14.864067539053792              0.4210462701D-08
   current occupation vector 
     2  0  0  0  2  0  0  0
     1  0  0  0  1  0  0  0
      20           -14.864067539058262              0.8192652581D-07
   current occupation vector 
     2  0  0  0  2  0  0  0
     1  0  0  0  1  0  0  0
      21           -14.864067539054183              0.8215377806D-07
   current occupation vector 
     2  0  0  0  2  0  0  0
     1  0  0  0  1  0  0  0
      22           -14.864067539054229              0.7298507999D-08
   current occupation vector 
     2  0  0  0  2  0  0  0
     1  0  0  0  1  0  0  0
      23           -14.864067539054272              0.5195118634D-08
   current occupation vector 
     2  0  0  0  2  0  0  0
     1  0  0  0  1  0  0  0
      24           -14.864067539054879              0.2675158817D-08
   current occupation vector 
     2  0  0  0  2  0  0  0
     1  0  0  0  1  0  0  0
      25           -14.864067539058194              0.8199184387D-07
   current occupation vector 
     2  0  0  0  2  0  0  0
     1  0  0  0  1  0  0  0
      26           -14.864067539054670              0.8155928768D-07
   current occupation vector 
     2  0  0  0  2  0  0  0
     1  0  0  0  1  0  0  0
      27           -14.864067539053714              0.1475292867D-08
   current occupation vector 
     2  0  0  0  2  0  0  0
     1  0  0  0  1  0  0  0
      28           -14.864067539054190              0.1839817493D-08
   current occupation vector 
     2  0  0  0  2  0  0  0
     1  0  0  0  1  0  0  0
      29           -14.864067539054162              0.1955469120D-08
   current occupation vector 
     2  0  0  0  2  0  0  0
     1  0  0  0  1  0  0  0
      30           -14.864067539058205              0.8202910162D-07
   current occupation vector 
     2  0  0  0  2  0  0  0
     1  0  0  0  1  0  0  0
      31           -14.864067539054513              0.8181511843D-07
   current occupation vector 
     2  0  0  0  2  0  0  0
     1  0  0  0  1  0  0  0
      32           -14.864067539053920              0.1293470706D-08
   current occupation vector 
     2  0  0  0  2  0  0  0
     1  0  0  0  1  0  0  0
      33           -14.864067539054126              0.1519717470D-08
   current occupation vector 
     2  0  0  0  2  0  0  0
     1  0  0  0  1  0  0  0
      34           -14.864067539054027              0.1657613047D-08
   current occupation vector 
     2  0  0  0  2  0  0  0
     1  0  0  0  1  0  0  0
      35           -14.864067539058251              0.8172730923D-07
   current occupation vector 
     2  0  0  0  2  0  0  0
     1  0  0  0  1  0  0  0
      36           -14.864067539053384              0.8116408476D-07
   current occupation vector 
     2  0  0  0  2  0  0  0
     1  0  0  0  1  0  0  0
      37           -14.864067539053529              0.1540108985D-08
   current occupation vector 
     2  0  0  0  2  0  0  0
     1  0  0  0  1  0  0  0
      38           -14.864067539053359              0.1971170414D-08
   current occupation vector 
     2  0  0  0  2  0  0  0
     1  0  0  0  1  0  0  0

  SCF has converged.

 Density matrix saved to file den.dat
 total alpha spin electron number:   3.99999999999895     
 total  beta spin electron number:   1.99999999999927     
     E(SCF)=       -14.864067539053739              0.3655908909D-09

  Eigenvector printing suppressed.


       The average multiplicity is    3.0000204
  The expectation value of S**2 is    2.0000306

 @PUTMOS-I, Writing converged MOs to NEWMOS. 
 @PUTMOS-I, Symmetry   1 Full Blocks 32 Partial Blocksize   3
 @PUTMOS-I, Symmetry   2 Full Blocks 23 Partial Blocksize   0
 @PUTMOS-I, Symmetry   3 Full Blocks 23 Partial Blocksize   0
 @PUTMOS-I, Symmetry   4 Full Blocks 15 Partial Blocksize   2
 @PUTMOS-I, Symmetry   5 Full Blocks 32 Partial Blocksize   3
 @PUTMOS-I, Symmetry   6 Full Blocks 23 Partial Blocksize   0
 @PUTMOS-I, Symmetry   7 Full Blocks 23 Partial Blocksize   0
 @PUTMOS-I, Symmetry   8 Full Blocks 15 Partial Blocksize   2
  @PRJDEN-I, Basis set contains h and/or higher angular momentum functions.
             Analysis of density matrix symmetry not available.
             Check irreps of the molecular orbitals in the full point group
             for presence of an asymmetric solution.

 
  ORBITAL EIGENVALUES (ALPHA)  (1H = 27.2113838 eV)

       MO #        E(hartree)               E(eV)           FULLSYM    COMPSYM
       ----   --------------------   --------------------   -------   ---------
    1     1          -2.4870693270         -67.6765980423    PI          Ag (1)
    2   378          -2.4870686114         -67.6765785692    PI         B1u (5)
    3     2          -0.2276874811          -6.1956914379    SGg+        Ag (1)
    4   379          -0.1706886007          -4.6446730272    SGu+       B1u (5)
  +++++++++++++++++++++++++++++++++++++++++++++++++++++++++++++++++++++++++++++
    5     3           0.0038679495           0.1052522592    SGg+        Ag (1)
    6   224           0.0045002668           0.1224584860    PIu        B3u (3)
    7   132           0.0045002668           0.1224584860    PIu        B2u (2)
    8   380           0.0069184545           0.1882607205    SGu+       B1u (5)
    9   601           0.0117730027           0.3203596955    PIg        B2g (7)
   10   509           0.0117730027           0.3203596955    PIg        B3g (6)
   11     4           0.0136855049           0.3724015279    SGg+        Ag (1)
   12   133           0.0152724808           0.4155853375    PIu        B2u (2)
   13   225           0.0152724808           0.4155853375    PIu        B3u (3)
   14     5           0.0155307843           0.4226141313    SGg+        Ag (1)
   15   381           0.0232457045           0.6325477876    SGu+       B1u (5)
   16   602           0.0317592927           0.8642143024    PIg        B2g (7)
   17   510           0.0317592927           0.8642143024    PIg        B3g (6)
   18   382           0.0421807837           1.1477974961    SGu+       B1u (5)
   19     6           0.0503345221           1.3696719998    SGg+        Ag (1)
   20   134           0.0548096909           1.4914475359    PIu        B2u (2)
   21   226           0.0548096909           1.4914475359    PIu        B3u (3)
   22     7           0.0617003415           1.6789516738    SGg+        Ag (1)
   23     8           0.0633894399           1.7249143780    DEg         Ag (1)
   24   316           0.0633894399           1.7249143780    DEg        B1g (4)
   25   603           0.0664369772           1.8078420867    PIg        B2g (7)
   26   511           0.0664369772           1.8078420868    PIg        B3g (6)
   27   383           0.0699906653           1.9045428583    SGu+       B1u (5)
   28   227           0.0814761220           2.2170780270    PIu        B3u (3)
   29   135           0.0814761220           2.2170780270    PIu        B2u (2)
   30   384           0.0849490822           2.3115820796    DEu        B1u (5)
   31   693           0.0849490822           2.3115820796    DEu         Au (8)
   32   385           0.0910347846           2.4771824650    SGu+       B1u (5)
   33     9           0.1076764927           2.9300263711    SGg+        Ag (1)
   34   512           0.1087158906           2.9583098253    PIg        B3g (6)
   35   604           0.1087158906           2.9583098253    PIg        B2g (7)
   36    10           0.1333265511           3.6279999555    SGg+        Ag (1)
   37   386           0.1341168724           3.6495056912    SGu+       B1u (5)
   38   513           0.1473355924           4.0092053563    PIg        B3g (6)
   39   605           0.1473355924           4.0092053563    PIg        B2g (7)
   40   228           0.1482480756           4.0340352869    PHu        B3u (3)
   41   136           0.1482480756           4.0340352869    PHu        B2u (2)
   42   137           0.1499696007           4.0808803647    PIu        B2u (2)
   43   229           0.1499696007           4.0808803647    PIu        B3u (3)
   44   387           0.1598407664           4.3494884456    SGu+       B1u (5)
   45    11           0.1628698364           4.4319136309    DEg         Ag (1)
   46   317           0.1628698364           4.4319136309    DEg        B1g (4)
   47   606           0.1777972122           4.8381081828    PHg        B2g (7)
   48   514           0.1777972122           4.8381081828    PHg        B3g (6)
   49    12           0.1827653703           4.9732986390    DEg         Ag (1)
   50   318           0.1827653703           4.9732986391    DEg        B1g (4)
   51    13           0.1833974516           4.9904984474    SGg+        Ag (1)
   52   138           0.1837692396           5.0006153135    PIu        B2u (2)
   53   230           0.1837692396           5.0006153135    PIu        B3u (3)
   54   388           0.2018874218           5.4936361241    DEu        B1u (5)
   55   694           0.2018874218           5.4936361241    DEu         Au (8)
   56   231           0.2078184890           5.6550286699    PIu        B3u (3)
   57   139           0.2078184890           5.6550286699    PIu        B2u (2)
   58   695           0.2096473017           5.7047931927    DEu         Au (8)
   59   389           0.2096473017           5.7047931927    DEu        B1u (5)
   60   390           0.2121093465           5.7717888405    SGu+       B1u (5)
   61    14           0.2224535689           6.0532694449    SGg+        Ag (1)
   62   515           0.2253450667           6.1319511030    PIg        B3g (6)
   63   607           0.2253450667           6.1319511030    PIg        B2g (7)
   64   516           0.2604401298           7.0869363331    PIg        B3g (6)
   65   608           0.2604401298           7.0869363333    PIg        B2g (7)
   66   391           0.2661024009           7.2410145665    SGu+       B1u (5)
   67    15           0.2684472389           7.3048208522    SGg+        Ag (1)
   68    16           0.2770525927           7.5389844373    GAg         Ag (1)
   69   319           0.2770525927           7.5389844373    GAg        B1g (4)
   70   392           0.2803895219           7.6297868984    SGu+       B1u (5)
   71   232           0.2884256869           7.8484620697    PHu        B3u (3)
   72   140           0.2884256869           7.8484620697    PHu        B2u (2)
   73   393           0.3106103829           8.4521383487    GAu        B1u (5)
   74   696           0.3106103829           8.4521383487    GAu         Au (8)
   75    17           0.3182591971           8.6602731655    SGg+        Ag (1)
   76   320           0.3354479101           9.1280018320    DEg        B1g (4)
   77    18           0.3354479101           9.1280018320    DEg         Ag (1)
   78   141           0.3376416157           9.1876955991    PIu        B2u (2)
   79   233           0.3376416157           9.1876955991    PIu        B3u (3)
   80   517           0.3417648901           9.2998956010    PIg        B3g (6)
   81   609           0.3417648901           9.2998956010    PIg        B2g (7)
   82   518           0.3602598956           9.8031702938    PHg        B3g (6)
   83   610           0.3602598956           9.8031702938    PHg        B2g (7)
   84   142           0.3617301849           9.8431788996    PIu        B2u (2)
   85   234           0.3617301849           9.8431788996    PIu        B3u (3)
   86   235           0.3884772886          10.5710046052    PHu        B3u (3)
   87   143           0.3884772886          10.5710046052    PHu        B2u (2)
   88    19           0.3921724222          10.6715543051    DEg         Ag (1)
   89   321           0.3921724222          10.6715543051    DEg        B1g (4)
   90   394           0.3954414479          10.7605090181    DEu        B1u (5)
   91   697           0.3954414479          10.7605090181    DEu         Au (8)
   92    20           0.4056841436          11.0392269421    SGg+        Ag (1)
   93    21           0.4068584556          11.0711815943    DEg         Ag (1)
   94   322           0.4068584556          11.0711815943    DEg        B1g (4)
   95   519           0.4131895377          11.2434591000    PHg        B3g (6)
   96   611           0.4131895377          11.2434591000    PHg        B2g (7)
   97   395           0.4136676292          11.2564686316    DEu        B1u (5)
   98   698           0.4136676292          11.2564686316    DEu         Au (8)
   99   396           0.4159856044          11.3195439441    SGu+       B1u (5)
  100   236           0.4209806984          11.4554673657    PIu        B3u (3)
  101   144           0.4209806984          11.4554673657    PIu        B2u (2)
  102   520           0.4337125199          11.8019178471    PIg        B3g (6)
  103   612           0.4337125199          11.8019178472    PIg        B2g (7)
  104    22           0.4390988178          11.9484864653    SGg+        Ag (1)
  105   397           0.4393125900          11.9543035040    SGu+       B1u (5)
  106   237           0.4472141019          12.1693145770    PHu        B3u (3)
  107   145           0.4472141019          12.1693145770    PHu        B2u (2)
  108   323           0.4485608898          12.2059625397    GAg        B1g (4)
  109    23           0.4485608898          12.2059625397    GAg         Ag (1)
  110   146           0.4536071008          12.3432769220    PIu        B2u (2)
  111   238           0.4536071008          12.3432769220    PIu        B3u (3)
  112   398           0.4612355104          12.5508565038    DEu        B1u (5)
  113   699           0.4612355104          12.5508565038    DEu         Au (8)
  114   521           0.4702608749          12.7964491623    PIg        B3g (6)
  115   613           0.4702608749          12.7964491634    PIg        B2g (7)
  116   399           0.4742053089          12.9037826695    SGu+       B1u (5)
  117   614           0.4802873421          13.0692832096    PHg        B2g (7)
  118   522           0.4802873421          13.0692832096    PHg        B3g (6)
  119   400           0.5007594215          13.6263568191    SGu+       B1u (5)
  120   147           0.5048290378          13.7370967120    PHu        B2u (2)
  121   239           0.5048290378          13.7370967120    PHu        B3u (3)
  122    24           0.5231548675          14.2357678953    SGg+        Ag (1)
  123   401           0.5356893199          14.5768476923    GAu        B1u (5)
  124   700           0.5356893199          14.5768476923    GAu         Au (8)
  125    25           0.5630561941          15.3215382106    SGg+        Ag (1)
  126   523           0.5752754675          15.6540415475    PIg        B3g (6)
  127   615           0.5752754675          15.6540415476    PIg        B2g (7)
  128    26           0.5922201773          16.1151305502    DEg         Ag (1)
  129   324           0.5922201773          16.1151305502    DEg        B1g (4)
  130   148           0.6010215888          16.3546291380    PIu        B2u (2)
  131   240           0.6010215888          16.3546291380    PIu        B3u (3)
  132   524           0.6205516786          16.8860699052    PHg        B3g (6)
  133   616           0.6205516786          16.8860699052    PHg        B2g (7)
  134    27           0.6300736905          17.1451770270    SGg+        Ag (1)
  135   525           0.6555959131          17.8396720216    PIg        B3g (6)
  136   617           0.6555959131          17.8396720230    PIg        B2g (7)
  137   402           0.6573487772          17.8873698784    DEu        B1u (5)
  138   701           0.6573487772          17.8873698784    DEu         Au (8)
  139   403           0.6738698253          18.3369304599    SGu+       B1u (5)
  140   149           0.6769441237          18.4205863753    PHu        B2u (2)
  141   241           0.6769441237          18.4205863753    PHu        B3u (3)
  142    28           0.6797179326          18.4960655527    GAg         Ag (1)
  143   325           0.6797179326          18.4960655527    GAg        B1g (4)
  144   404           0.7044702662          19.1696108026    GAu        B1u (5)
  145   702           0.7044702662          19.1696108026    GAu         Au (8)
  146    29           0.7156875299          19.4748480710    DEg         Ag (1)
  147   326           0.7156875299          19.4748480710    DEg        B1g (4)
  148    30           0.7263253864          19.7643188665    SGg+        Ag (1)
  149   150           0.7321135574          19.9218230104    PIu        B2u (2)
  150   242           0.7321135574          19.9218230104    PIu        B3u (3)
  151   526           0.7427099255          20.2101648501    PHg        B3g (6)
  152   618           0.7427099255          20.2101648501    PHg        B2g (7)
  153   405           0.7549375877          20.5428964594    SGu+       B1u (5)
  154   243           0.7586840710          20.6448434528    PHu        B3u (3)
  155   151           0.7586840710          20.6448434528    PHu        B2u (2)
  156    31           0.7801027611          21.2276756516    XXXX      XXXX (1)
  157   327           0.7801027611          21.2276756516    XXXX      XXXX (4)
  158   527           0.7881392154          21.4463586942    PIg        B3g (6)
  159   619           0.7881392155          21.4463586951    PIg        B2g (7)
  160   152           0.7962992402          21.6684042596    PIu        B2u (2)
  161   244           0.7962992402          21.6684042596    PIu        B3u (3)
  162   328           0.8006684403          21.7872962409    GAg        B1g (4)
  163    32           0.8006684403          21.7872962409    GAg         Ag (1)
  164   406           0.8019328112          21.8217015241    DEu        B1u (5)
  165   703           0.8019328112          21.8217015241    DEu         Au (8)
  166   407           0.8043342242          21.8870472928    XXXX      XXXX (5)
  167   704           0.8043342242          21.8870472928    XXXX      XXXX (8)
  168    33           0.8111885459          22.0735628723    DEg         Ag (1)
  169   329           0.8111885459          22.0735628723    DEg        B1g (4)
  170    34           0.8172599127          22.2387731639    DEg         Ag (1)
  171   330           0.8172599127          22.2387731639    DEg        B1g (4)
  172   153           0.8234034276          22.4059467055    PHu        B2u (2)
  173   245           0.8234034276          22.4059467055    PHu        B3u (3)
  174   408           0.8272785756          22.5113948467    SGu+       B1u (5)
  175   409           0.8388111785          22.8252129304    DEu        B1u (5)
  176   705           0.8388111785          22.8252129304    DEu         Au (8)
  177   620           0.8421780700          22.9168307072    PHg        B2g (7)
  178   528           0.8421780700          22.9168307072    PHg        B3g (6)
  179   529           0.8583755847          23.3575874978    PHg        B3g (6)
  180   621           0.8583755847          23.3575874978    PHg        B2g (7)
  181   246           0.8599604703          23.4007144259    PIu        B3u (3)
  182   154           0.8599604703          23.4007144259    PIu        B2u (2)
  183    35           0.8652426657          23.5444502731    SGg+        Ag (1)
  184   530           0.8920827631          24.2748064668    PIg        B3g (6)
  185   622           0.8920827632          24.2748064676    PIg        B2g (7)
  186   410           0.8959851484          24.3809957690    SGu+       B1u (5)
  187   155           0.9032396437          24.5784006257    PIu        B2u (2)
  188   247           0.9032396437          24.5784006257    PIu        B3u (3)
  189   156           0.9074740760          24.6936253896    PHu        B2u (2)
  190   248           0.9074740760          24.6936253896    PHu        B3u (3)
  191   411           0.9155777760          24.9141382798    DEu        B1u (5)
  192   706           0.9155777760          24.9141382798    DEu         Au (8)
  193    36           0.9201963153          25.0398151248    SGg+        Ag (1)
  194   412           0.9228301419          25.1114851908    SGu+       B1u (5)
  195   413           0.9627072931          26.1965976595    GAu        B1u (5)
  196   707           0.9627072931          26.1965976595    GAu         Au (8)
  197   531           0.9634276815          26.2162004234    PIg        B3g (6)
  198   623           0.9634276816          26.2162004262    PIg        B2g (7)
  199   331           1.0399674575          28.2989536447    GAg        B1g (4)
  200    37           1.0399674575          28.2989536447    GAg         Ag (1)
  201    38           1.0415035496          28.3407528373    DEg         Ag (1)
  202   332           1.0415035496          28.3407528373    DEg        B1g (4)
  203    39           1.0456785093          28.4543592688    SGg+        Ag (1)
  204   157           1.0458835815          28.4599395661    PHu        B2u (2)
  205   249           1.0458835815          28.4599395661    PHu        B3u (3)
  206   532           1.0639245631          28.9508596428    PHg        B3g (6)
  207   624           1.0639245631          28.9508596428    PHg        B2g (7)
  208   158           1.0676205749          29.0514332367    PHu        B2u (2)
  209   250           1.0676205749          29.0514332367    PHu        B3u (3)
  210   533           1.0818679187          29.4391231771    PIg        B3g (6)
  211   625           1.0818679187          29.4391231772    PIg        B2g (7)
  212   534           1.0883610836          29.6158111806    PHg        B3g (6)
  213   626           1.0883610836          29.6158111806    PHg        B2g (7)
  214   159           1.0963433103          29.8330186137    PIu        B2u (2)
  215   251           1.0963433103          29.8330186138    PIu        B3u (3)
  216   414           1.1007008644          29.9515936921    GAu        B1u (5)
  217   708           1.1007008644          29.9515936921    GAu         Au (8)
  218    40           1.1007472421          29.9528556941    SGg+        Ag (1)
  219   415           1.1037607358          30.0348570270    SGu+       B1u (5)
  220   416           1.1224253799          30.5427478214    DEu        B1u (5)
  221   709           1.1224253799          30.5427478215    DEu         Au (8)
  222    41           1.1285239129          30.7086973427    DEg         Ag (1)
  223   333           1.1285239129          30.7086973427    DEg        B1g (4)
  224   535           1.1289900768          30.7213823096    PIg        B3g (6)
  225   627           1.1289900770          30.7213823136    PIg        B2g (7)
  226   417           1.1587223054          31.5304373936    SGu+       B1u (5)
  227    42           1.1748427775          31.9690977453    SGg+        Ag (1)
  228   536           1.1787013562          32.0740950129    PHg        B3g (6)
  229   628           1.1787013562          32.0740950129    PHg        B2g (7)
  230   160           1.1997780459          32.6476209052    PIu        B2u (2)
  231   252           1.1997780459          32.6476209054    PIu        B3u (3)
  232   418           1.3141788224          35.7606243437    DEu        B1u (5)
  233   710           1.3141788224          35.7606243437    DEu         Au (8)
  234    43           1.3681910232          37.2303710696    SGg+        Ag (1)
  235    44           1.3930705143          37.9073764527    GAg         Ag (1)
  236   334           1.3930705143          37.9073764527    GAg        B1g (4)
  237   161           1.4000727173          38.0979160848    PHu        B2u (2)
  238   253           1.4000727173          38.0979160848    PHu        B3u (3)
  239   419           1.4041836369          38.2097798964    SGu+       B1u (5)
  240   420           1.4104974992          38.3815888277    GAu        B1u (5)
  241   711           1.4104974992          38.3815888277    GAu         Au (8)
  242   537           1.4240857748          38.7513446095    PIg        B3g (6)
  243   629           1.4240857751          38.7513446171    PIg        B2g (7)
  244    45           1.4470992518          39.3775731661    DEg         Ag (1)
  245   335           1.4470992518          39.3775731661    DEg        B1g (4)
  246   538           1.4580539139          39.6756646803    PIg        B3g (6)
  247   630           1.4580539139          39.6756646804    PIg        B2g (7)
  248   631           1.4621380594          39.7867999306    PHg        B2g (7)
  249   539           1.4621380594          39.7867999306    PHg        B3g (6)
  250   162           1.4818768058          40.3239185348    PIu        B2u (2)
  251   254           1.4818768058          40.3239185349    PIu        B3u (3)
  252   712           1.5342336119          41.7486196811    DEu         Au (8)
  253   421           1.5342336119          41.7486196811    DEu        B1u (5)
  254    46           1.5385555294          41.8662250379    SGg+        Ag (1)
  255   422           1.5413431435          41.9420798747    SGu+       B1u (5)
  256    47           1.5565994815          42.3572259457    DEg         Ag (1)
  257   336           1.5565994815          42.3572259457    DEg        B1g (4)
  258   255           1.6078174070          43.7509365750    PHu        B3u (3)
  259   163           1.6078174070          43.7509365750    PHu        B2u (2)
  260   632           1.6266515562          44.2634398356    PHg        B2g (7)
  261   540           1.6266515562          44.2634398356    PHg        B3g (6)
  262   337           1.6308663587          44.3781304448    DEg        B1g (4)
  263    48           1.6308663587          44.3781304448    DEg         Ag (1)
  264   164           1.6412918047          44.6618212581    PIu        B2u (2)
  265   256           1.6412918047          44.6618212581    PIu        B3u (3)
  266   423           1.6473003803          44.8253229158    SGu+       B1u (5)
  267   424           1.6636560161          45.2703823968    DEu        B1u (5)
  268   713           1.6636560161          45.2703823968    DEu         Au (8)
  269    49           1.6874221173          45.9170908983    SGg+        Ag (1)
  270   165           1.6959732018          46.1497777412    PIu        B2u (2)
  271   257           1.6959732018          46.1497777412    PIu        B3u (3)
  272   166           1.7350075657          47.2119567992    PHu        B2u (2)
  273   258           1.7350075657          47.2119567992    PHu        B3u (3)
  274   425           1.7352360259          47.2181735190    DEu        B1u (5)
  275   714           1.7352360259          47.2181735191    DEu         Au (8)
  276   259           1.7466500839          47.5287658306    PHu        B3u (3)
  277   167           1.7466500839          47.5287658306    PHu        B2u (2)
  278   338           1.7499840478          47.6194876018    GAg        B1g (4)
  279    50           1.7499840478          47.6194876018    GAg         Ag (1)
  280    51           1.7508455812          47.6429311183    DEg         Ag (1)
  281   339           1.7508455812          47.6429311183    DEg        B1g (4)
  282   340           1.7541588479          47.7330896911    XXXX      XXXX (4)
  283    52           1.7541588479          47.7330896911    XXXX      XXXX (1)
  284   541           1.7609325877          47.9174125246    PIg        B3g (6)
  285   633           1.7609325877          47.9174125255    PIg        B2g (7)
  286   715           1.7653500831          48.0376186872    XXXX      XXXX (8)
  287   426           1.7653500831          48.0376186872    XXXX      XXXX (5)
  288    53           1.7779374492          48.3801383365    SGg+        Ag (1)
  289   542           1.7891612664          48.6855539340    PHg        B3g (6)
  290   634           1.7891612664          48.6855539340    PHg        B2g (7)
  291   427           1.8193343196          49.5066044669    SGu+       B1u (5)
  292   168           1.8381165374          50.0176946050    PIu        B2u (2)
  293   260           1.8381165374          50.0176946050    PIu        B3u (3)
  294   428           1.8436702089          50.1688176916    GAu        B1u (5)
  295   716           1.8436702089          50.1688176916    GAu         Au (8)
  296   543           1.8540306295          50.4507390717    PIg        B3g (6)
  297   635           1.8540306298          50.4507390809    PIg        B2g (7)
  298   429           1.8570597636          50.5331660038    SGu+       B1u (5)
  299   544           1.9518713441          53.1131203104    PHg        B3g (6)
  300   636           1.9518713441          53.1131203104    PHg        B2g (7)
  301   545           2.0072116200          54.6190057987    PIg        B3g (6)
  302   637           2.0072116200          54.6190057990    PIg        B2g (7)
  303    54           2.0262838968          55.1379888422    SGg+        Ag (1)
  304   430           2.0724413642          56.3939974046    DEu        B1u (5)
  305   717           2.0724413642          56.3939974046    DEu         Au (8)
  306   341           2.1049456153          57.2784830572    GAg        B1g (4)
  307    55           2.1049456153          57.2784830573    GAg         Ag (1)
  308   169           2.1078066430          57.3563355796    PHu        B2u (2)
  309   261           2.1078066430          57.3563355796    PHu        B3u (3)
  310   431           2.1126746477          57.4888007245    SGu+       B1u (5)
  311   546           2.1214140165          57.7266110426    PHg        B3g (6)
  312   638           2.1214140165          57.7266110426    PHg        B2g (7)
  313   170           2.1254536046          57.8365338255    PIu        B2u (2)
  314   262           2.1254536046          57.8365338258    PIu        B3u (3)
  315   171           2.1379246532          58.1758883153    PHu        B2u (2)
  316   263           2.1379246532          58.1758883153    PHu        B3u (3)
  317   718           2.1512061685          58.5372967256    GAu         Au (8)
  318   432           2.1512061685          58.5372967257    GAu        B1u (5)
  319   547           2.2087369975          60.1027901943    PHg        B3g (6)
  320   639           2.2087369975          60.1027901943    PHg        B2g (7)
  321   548           2.2249928631          60.5451347931    PIg        B3g (6)
  322   640           2.2249928631          60.5451347937    PIg        B2g (7)
  323    56           2.2255319497          60.5598040852    DEg         Ag (1)
  324   342           2.2255319497          60.5598040852    DEg        B1g (4)
  325   719           2.2445494642          61.0772969726    DEu         Au (8)
  326   433           2.2445494642          61.0772969726    DEu        B1u (5)
  327    57           2.2452694229          61.0968880442    SGg+        Ag (1)
  328    58           2.2688700874          61.7390947848    SGg+        Ag (1)
  329   434           2.2776551800          61.9781493121    SGu+       B1u (5)
  330   549           2.2949842197          62.4496964634    PIg        B3g (6)
  331   641           2.2949842198          62.4496964661    PIg        B2g (7)
  332   264           2.2981251658          62.5351659527    PIu        B3u (3)
  333   172           2.2981251658          62.5351659527    PIu        B2u (2)
  334   435           2.5441124162          69.2288194374    SGu+       B1u (5)
  335   343           2.7045970012          73.5958270759    GAg        B1g (4)
  336    59           2.7045970012          73.5958270759    GAg         Ag (1)
  337   173           2.7097602710          73.7363267938    PHu        B2u (2)
  338   265           2.7097602710          73.7363267938    PHu        B3u (3)
  339   436           2.7181176429          73.9637424482    GAu        B1u (5)
  340   720           2.7181176429          73.9637424482    GAu         Au (8)
  341    60           2.7403048216          74.5674862822    DEg         Ag (1)
  342   344           2.7403048216          74.5674862822    DEg        B1g (4)
  343    61           2.7482299670          74.7831404578    SGg+        Ag (1)
  344   550           2.7532056503          74.9185356843    PHg        B3g (6)
  345   642           2.7532056503          74.9185356843    PHg        B2g (7)
  346   266           2.7704778351          75.3885357356    PIu        B3u (3)
  347   174           2.7704778351          75.3885357356    PIu        B2u (2)
  348   437           2.8359944493          77.1713334700    DEu        B1u (5)
  349   721           2.8359944493          77.1713334700    DEu         Au (8)
[...]
  531    92          23.6241170950         642.8449176707    SGg+        Ag (1)
  532   469          23.8354306588         648.5950521613    SGu+       B1u (5)
  533   360          26.8224471212         729.8759035961    DEg        B1g (4)
  534    93          26.8224471212         729.8759035961    DEg         Ag (1)
  535   737          26.8412046575         730.3863221148    DEu         Au (8)
  536   470          26.8412046575         730.3863221149    DEu        B1u (5)
  537   197          26.8516847283         730.6714993432    PIu        B2u (2)
  538   289          26.8516847283         730.6714993436    PIu        B3u (3)
  539    94          26.8790585497         731.4163789052    SGg+        Ag (1)
  540   471          26.9626615009         733.6913308981    SGu+       B1u (5)
  541   666          26.9688852793         733.8606885200    PIg        B2g (7)
  542   574          26.9688852793         733.8606885207    PIg        B3g (6)
  543   198          38.2555404591        1040.9861946570    PHu        B2u (2)
  544   290          38.2555404591        1040.9861946570    PHu        B3u (3)
  545   361          38.2618994652        1041.1592320138    DEg        B1g (4)
  546    95          38.2618994652        1041.1592320138    DEg         Ag (1)
  547   575          38.2620831980        1041.1642316371    PHg        B3g (6)
  548   667          38.2620831980        1041.1642316372    PHg        B2g (7)
  549   291          38.2976312423        1042.1315431147    PIu        B3u (3)
  550   199          38.2976312423        1042.1315431147    PIu        B2u (2)
  551   738          38.3029311615        1042.2757612506    DEu         Au (8)
  552   472          38.3029311615        1042.2757612506    DEu        B1u (5)
  553   473          38.3044651830        1042.3175040991    SGu+       B1u (5)
  554   576          38.3160766558        1042.6334683406    PIg        B3g (6)
  555   668          38.3160766558        1042.6334683407    PIg        B2g (7)
  556    96          38.3188845087        1042.7098739044    SGg+        Ag (1)
  557   200          41.5100547244        1129.5460314771    PHu        B2u (2)
  558   292          41.5100547244        1129.5460314771    PHu        B3u (3)
  559    97          41.5101001641        1129.5472679558    GAg         Ag (1)
  560   362          41.5101001641        1129.5472679559    GAg        B1g (4)
  561   577          41.5101258915        1129.5479680321    PHg        B3g (6)
  562   669          41.5101258915        1129.5479680321    PHg        B2g (7)
  563   201          41.5103061169        1129.5528722139    PHu        B2u (2)
  564   293          41.5103061169        1129.5528722139    PHu        B3u (3)
  565   474          41.5103426979        1129.5538676346    GAu        B1u (5)
  566   739          41.5103426979        1129.5538676348    GAu         Au (8)
  567    98          41.5105870810        1129.5605176367    SGg+        Ag (1)
  568   578          41.5106671691        1129.5626969461    PHg        B3g (6)
  569   670          41.5106671691        1129.5626969461    PHg        B2g (7)
  570    99          41.5107407974        1129.5647004720    DEg         Ag (1)
  571   363          41.5107407974        1129.5647004720    DEg        B1g (4)
  572   294          41.5108750408        1129.5683534211    PIu        B3u (3)
  573   202          41.5108750408        1129.5683534211    PIu        B2u (2)
  574   740          41.5109608875        1129.5706894288    DEu         Au (8)
  575   475          41.5109608875        1129.5706894292    DEu        B1u (5)
  576   671          41.5113042083        1129.5800316642    PIg        B2g (7)
  577   579          41.5113042083        1129.5800316642    PIg        B3g (6)
  578   476          41.5117852774        1129.5931222203    SGu+       B1u (5)
  579   100          43.3061093366        1178.4191628909    SGg+        Ag (1)
  580   477          43.3064463740        1178.4283341437    SGu+       B1u (5)
  581   295          48.5561094900        1321.2789321188    PIu        B3u (3)
  582   203          48.5561094901        1321.2789321213    PIu        B2u (2)
  583   672          48.5831275702        1322.0141314671    PIg        B2g (7)
  584   580          48.5831275702        1322.0141314681    PIg        B3g (6)
  585   101          48.6758073155        1324.5360755895    SGg+        Ag (1)
  586   478          48.8577604378        1329.4872718389    SGu+       B1u (5)
  587   102          58.4650766428        1590.9156405689    DEg         Ag (1)
  588   364          58.4650766428        1590.9156405689    DEg        B1g (4)
  589   741          58.4807579005        1591.3423492904    DEu         Au (8)
  590   479          58.4807579005        1591.3423492904    DEu        B1u (5)
  591   204          58.4896848229        1591.5852632033    PIu        B2u (2)
  592   296          58.4896848229        1591.5852632035    PIu        B3u (3)
  593   103          58.5113865947        1592.1757984452    SGg+        Ag (1)
  594   480          58.5795209725        1594.0298291486    SGu+       B1u (5)
  595   673          58.5878692552        1594.2569974758    PIg        B2g (7)
  596   581          58.5878692553        1594.2569974768    PIg        B3g (6)
  597   365          61.4834499637        1673.0497555145    GAg        B1g (4)
  598   104          61.4834499637        1673.0497555145    GAg         Ag (1)
  599   297          61.4839443442        1673.0632082924    PHu        B3u (3)
  600   205          61.4839443442        1673.0632082924    PHu        B2u (2)
  601   742          61.4847246125        1673.0844404716    GAu         Au (8)
  602   481          61.4847246125        1673.0844404716    GAu        B1u (5)
  603   366          61.4869001393        1673.1436395654    DEg        B1g (4)
  604   105          61.4869001393        1673.1436395654    DEg         Ag (1)
  605   582          61.4880713717        1673.1755104204    PHg        B3g (6)
  606   674          61.4880713717        1673.1755104204    PHg        B2g (7)
  607   106          61.4895829424        1673.2166423517    SGg+        Ag (1)
  608   206          61.4922310416        1673.2887007964    PIu        B2u (2)
  609   298          61.4922310416        1673.2887007964    PIu        B3u (3)
  610   743          61.4982150390        1673.4515336445    DEu         Au (8)
  611   482          61.4982150390        1673.4515336445    DEu        B1u (5)
  612   583          61.5047142610        1673.6283864702    PIg        B3g (6)
  613   675          61.5047142610        1673.6283864702    PIg        B2g (7)
  614   483          61.5145013661        1673.8947071421    SGu+       B1u (5)
  615   107          86.0188894697        2340.6930170928    SGg+        Ag (1)
  616   484          86.0259942566        2340.8863481777    SGu+       B1u (5)
  617   299          90.3205955430        2457.7483921349    PHu        B3u (3)
  618   207          90.3205955430        2457.7483921349    PHu        B2u (2)
  619   108          90.3252094244        2457.8739422326    DEg         Ag (1)
  620   367          90.3252094244        2457.8739422326    DEg        B1g (4)
  621   584          90.3253932064        2457.8789431946    PHg        B3g (6)
  622   676          90.3253932064        2457.8789431946    PHg        B2g (7)
  623   300          90.3511930790        2458.5809934306    PIu        B3u (3)
  624   208          90.3511930790        2458.5809934306    PIu        B2u (2)
  625   744          90.3553934401        2458.6952910687    DEu         Au (8)
  626   485          90.3553934401        2458.6952910687    DEu        B1u (5)
  627   486          90.3566013796        2458.7281607739    SGu+       B1u (5)
  628   585          90.3651388055        2458.9604759468    PIg        B3g (6)
  629   677          90.3651388055        2458.9604759469    PIg        B2g (7)
  630   109          90.3687973720        2459.0600306036    SGg+        Ag (1)
  631   301          98.0285498056        2667.4924940368    PIu        B3u (3)
  632   209          98.0285498057        2667.4924940390    PIu        B2u (2)
  633   678          98.0525159005        2668.1446446451    PIg        B2g (7)
  634   586          98.0525159007        2668.1446446487    PIg        B3g (6)
  635   110          98.1371208440        2670.4468622333    SGg+        Ag (1)
  636   487          98.2987429703        2674.8448239469    SGu+       B1u (5)
  637   111         108.9860463492        2965.6611381856    XXXX      XXXX (1)
  638   368         108.9860463492        2965.6611381856    XXXX      XXXX (4)
  639   745         108.9860463934        2965.6611393883    XXXX      XXXX (8)
  640   488         108.9860463934        2965.6611393884    XXXX      XXXX (5)
  641   302         108.9860759247        2965.6619429770               B3u (3)
  642   210         108.9860759247        2965.6619429770               B2u (2)
  643   587         108.9860761125        2965.6619480882               B3g (6)
  644   679         108.9860761125        2965.6619480882               B2g (7)
  645   112         108.9861002442        2965.6626047430                Ag (1)
  646   369         108.9861002442        2965.6626047430               B1g (4)
  647   489         108.9861006528        2965.6626158621               B1u (5)
  648   746         108.9861006528        2965.6626158621                Au (8)
  649   211         108.9861191976        2965.6631204915               B2u (2)
  650   303         108.9861191976        2965.6631204915               B3u (3)
  651   588         108.9861201064        2965.6631452223               B3g (6)
  652   680         108.9861201064        2965.6631452224               B2g (7)
  653   113         108.9861329963        2965.6634959743                Ag (1)
  654   370         108.9861329963        2965.6634959744               B1g (4)
  655   747         108.9861339720        2965.6635225256                Au (8)
  656   490         108.9861339721        2965.6635225256               B1u (5)
  657   212         108.9861416723        2965.6637320589               B2u (2)
  658   304         108.9861416723        2965.6637320589               B3u (3)
  659   681         108.9861421601        2965.6637453326               B2g (7)
  660   589         108.9861421601        2965.6637453326               B3g (6)
  661   114         108.9861447158        2965.6638148791    PI          Ag (1)
  662   491         108.9861447278        2965.6638152042    PI         B1u (5)
  663   305         126.9446140192        3454.3386159037    PHu        B3u (3)
  664   213         126.9446140192        3454.3386159037    PHu        B2u (2)
  665   371         126.9446320980        3454.3391078541               B1g (4)
  666   115         126.9446320980        3454.3391078543                Ag (1)
  667   590         126.9446392458        3454.3393023563               B3g (6)
  668   682         126.9446392458        3454.3393023563               B2g (7)
  669   214         126.9447064452        3454.3411309453    PHu        B2u (2)
  670   306         126.9447064452        3454.3411309453    PHu        B3u (3)
  671   748         126.9447183030        3454.3414536123    GAu         Au (8)
  672   492         126.9447183030        3454.3414536124    GAu        B1u (5)
  673   116         126.9448218872        3454.3442722809    SGg+        Ag (1)
  674   591         126.9448353440        3454.3446384589    PHg        B3g (6)
  675   683         126.9448353440        3454.3446384589    PHg        B2g (7)
  676   117         126.9448606843        3454.3453280028    DEg         Ag (1)
  677   372         126.9448606843        3454.3453280031    DEg        B1g (4)
  678   307         126.9448970346        3454.3463171445    PIu        B3u (3)
  679   215         126.9448970346        3454.3463171445    PIu        B2u (2)
  680   493         126.9449376229        3454.3474216107    DEu        B1u (5)
  681   749         126.9449376229        3454.3474216107    DEu         Au (8)
  682   684         126.9450103510        3454.3494006405    PIg        B2g (7)
  683   592         126.9450103510        3454.3494006405    PIg        B3g (6)
  684   494         126.9451751329        3454.3538845861    SGu+       B1u (5)
  685   373         127.0790691264        3457.9973254346    DEg        B1g (4)
  686   118         127.0790691264        3457.9973254346    DEg         Ag (1)
  687   750         127.0923496438        3458.3587066901    DEu         Au (8)
  688   495         127.0923496438        3458.3587066901    DEu        B1u (5)
  689   216         127.0999803022        3458.5663474644    PIu        B2u (2)
  690   308         127.0999803022        3458.5663474645    PIu        B3u (3)
  691   119         127.1177216918        3459.0491152265    SGg+        Ag (1)
  692   496         127.1758654205        3460.6312865447    SGu+       B1u (5)
  693   685         127.1834383994        3460.8373577790    PIg        B2g (7)
  694   593         127.1834383994        3460.8373577802    PIg        B3g (6)
  695   120         162.2080776243        4413.9062588719    GAg         Ag (1)
  696   374         162.2080776243        4413.9062588719    GAg        B1g (4)
  697   217         162.2083506443        4413.9136881229    PHu        B2u (2)
  698   309         162.2083506443        4413.9136881229    PHu        B3u (3)
  699   497         162.2087987935        4413.9258828824    GAu        B1u (5)
  700   751         162.2087987935        4413.9258828825    GAu         Au (8)
  701   375         162.2100282912        4413.9593392179    DEg        B1g (4)
  702   121         162.2100282912        4413.9593392179    DEg         Ag (1)
  703   594         162.2106839024        4413.9771793058    PHg        B3g (6)
  704   686         162.2106839024        4413.9771793059    PHg        B2g (7)
  705   122         162.2113966896        4413.9965752300    SGg+        Ag (1)
  706   310         162.2130203241        4414.0407565727    PIu        B3u (3)
  707   218         162.2130203241        4414.0407565728    PIu        B2u (2)
  708   752         162.2163858846        4414.1323381314    DEu         Au (8)
  709   498         162.2163858846        4414.1323381315    DEu        B1u (5)
  710   595         162.2198149148        4414.2256467877    PIg        B3g (6)
  711   687         162.2198149148        4414.2256467878    PIg        B2g (7)
  712   499         162.2252482138        4414.3734943734    SGu+       B1u (5)
  713   123         169.5794507203        4614.4915214638    SGg+        Ag (1)
  714   500         169.5885022161        4614.7378251910    SGu+       B1u (5)
  715   219         198.8429295620        5410.7912761204    PIu        B2u (2)
  716   311         198.8429295620        5410.7912761215    PIu        B3u (3)
  717   688         198.8643204958        5411.3733530319    PIg        B2g (7)
  718   596         198.8643204960        5411.3733530372    PIg        B3g (6)
  719   124         198.9419125165        5413.4847392873    SGg+        Ag (1)
  720   501         199.0865907116        5417.4216331863    SGu+       B1u (5)
  721   312         215.9788732173        5877.0840160377    PHu        B3u (3)
  722   220         215.9788732174        5877.0840160378    PHu        B2u (2)
  723   125         215.9822060933        5877.1747082045    DEg         Ag (1)
  724   376         215.9822060933        5877.1747082048    DEg        B1g (4)
  725   597         215.9823616613        5877.1789414239    PHg        B3g (6)
  726   689         215.9823616613        5877.1789414240    PHg        B2g (7)
  727   221         216.0012188926        5877.6920727834    PIu        B2u (2)
  728   313         216.0012188926        5877.6920727835    PIu        B3u (3)
  729   502         216.0041892735        5877.7729009581    DEu        B1u (5)
  730   753         216.0041892735        5877.7729009582    DEu         Au (8)
  731   503         216.0053471335        5877.8044079304    SGu+       B1u (5)
  732   598         216.0116276394        5877.9753091874    PIg        B3g (6)
  733   690         216.0116276394        5877.9753091874    PIg        B2g (7)
  734   126         216.0133383902        5878.0218610851    SGg+        Ag (1)
  735   127         285.7635720873        7776.0222417215    DEg         Ag (1)
  736   377         285.7635720873        7776.0222417216    DEg        B1g (4)
  737   754         285.7746269548        7776.3230599632    DEu         Au (8)
  738   504         285.7746269548        7776.3230599633    DEu        B1u (5)
  739   222         285.7809943459        7776.4963254869    PIu        B2u (2)
  740   314         285.7809943459        7776.4963254869    PIu        B3u (3)
  741   128         285.7955481070        7776.8923534664    SGg+        Ag (1)
  742   505         285.8440687300        7778.2126667630    SGu+       B1u (5)
  743   691         285.8505229941        7778.3882962210    PIg        B2g (7)
  744   599         285.8505229942        7778.3882962221    PIg        B3g (6)
  745   129         343.4899925097        9346.8380243664    SGg+        Ag (1)
  746   506         343.5006154970        9347.1270905509    SGu+       B1u (5)
  747   223         416.9718906939       11346.3821596473    PIu        B2u (2)
  748   315         416.9718906940       11346.3821596493    PIu        B3u (3)
  749   692         416.9911002710       11346.9048788232    PIg        B2g (7)
  750   600         416.9911002712       11346.9048788294    PIg        B3g (6)
  751   130         417.0612945018       11348.8149609803    SGg+        Ag (1)
  752   507         417.1909709612       11352.3436368887    SGu+       B1u (5)
  753   131        1013.1235935709       27568.4949613304    SGg+        Ag (1)
  754   508        1013.1476390652       27569.1492725047    SGu+       B1u (5)


  VSCF finished.

  @CHECKOUT-I, Total execution time (CPU/WALL):      931.14/     974.11 seconds.
--executable xvscf finished with status     0 in      974.20 seconds (walltime).
 --invoking executable--
/home/nike/cfour_v2.00beta/bin/xvtran
 @GETMEM-I,  Allocated  476837 MB of main memory.
  Full UHF integral transformation
forrtl: No space left on device
forrtl: severe (38): error during write, unit 79, file /gwork/nike/Li2/CFOUR/nr/CCSDT-aug-cc-pCV7Zi-NR-CFOUR/ta/lessSCF/HALFT
Image              PC                Routine            Line        Source             
xvtran             000000000051F18A  Unknown               Unknown  Unknown
xvtran             000000000051DC86  Unknown               Unknown  Unknown
xvtran             00000000004D4A50  Unknown               Unknown  Unknown
xvtran             0000000000490C0E  Unknown               Unknown  Unknown
xvtran             000000000049014F  Unknown               Unknown  Unknown
xvtran             00000000004C35AD  Unknown               Unknown  Unknown
xvtran             00000000004C0CD2  Unknown               Unknown  Unknown
xvtran             00000000004450C4  Unknown               Unknown  Unknown
xvtran             0000000000468F63  Unknown               Unknown  Unknown
xvtran             0000000000484C02  Unknown               Unknown  Unknown
xvtran             000000000040350C  Unknown               Unknown  Unknown
libc.so.6          00002B41D889CD5D  Unknown               Unknown  Unknown
xvtran             0000000000403409  Unknown               Unknown  Unknown
--executable xvtran finished with status  9728 in    25290.85 seconds (walltime).
  This computation required                        35576.21 seconds (walltime).
--- SharcNET Job Epilogue ---
Job completed successfully.
               jobid: 1491264
               resid: 2972518
         exit status: 0
      allocated time: 35577.8
           user time: 17065.8
         system time: 768.03
peak rss=188551491584; peak vsz=188551491584 (bytes)
atime=35577.8; utime=17065.8; stime=768.03; exit=0
