 --invoking executable--
/project1/nike/cfour_v2.00beta_May2019xnmol_noLABBASIS/bin/xjoda


   *************************************************************************
         <<<     CCCCCC     CCCCCC   |||     CCCCCC     CCCCCC   >>>
       <<<      CCC        CCC       |||    CCC        CCC         >>>
      <<<      CCC        CCC        |||   CCC        CCC            >>>
    <<<        CCC        CCC        |||   CCC        CCC              >>>
      <<<      CCC        CCC        |||   CCC        CCC            >>>
       <<<      CCC        CCC       |||    CCC        CCC         >>>
         <<<     CCCCCC     CCCCCC   |||     CCCCCC     CCCCCC   >>>
   *************************************************************************

     ****************************************************************
     * CFOUR Coupled-Cluster techniques for Computational Chemistry *
     ****************************************************************
 

   Department of Chemistry                Institut fuer Physikalische Chemie
   University of Texas at Austin          Universitaet Mainz
   Austin, TX  78712, USA                 D-55099 Mainz, Germany
 
                       Version 2.00beta
 
                     wob144                                            
                     Tue Mar 10 00:36:53 EDT 2020                      
                     integer*8 version is running
 
********************************************************************************
*                          Input from ZMAT file                                *
********************************************************************************
TITLE                                                                           
Al 1                                                                            
F 1 R                                                                           
F 1 R 2 A120                                                                    
F 1 R 2 A120 3 D180                                                             
                                                                                
R=3.08592276153                                                                 
A120=120                                                                        
D180=180                                                                        
                                                                                
*ACES2(CALC=CCSD(T)                                                             
UNITS=BOHR                                                                      
#GEOM=1.633*10/5.29177210903                                                    
#COORD=CARTESIAN                                                                
COORD=INTERNAL                                                                  
PRINT=4                                                                         
JODA_PRINT=4                                                                    
INPUT_MRCC=OFF                                                                  
#CC_PROG=MRCC                                                                   
#FROZEN_CORE=ON                                                                 
DROPMO=1>8                                                                      
CONTRACTION=GENERAL                                                             
#CONTRACTION=SEGMENTED                                                          
RELATIVISTIC=OFF                                                                
#EXCITE=EOMEE                                                                   
#ESTATE_CONV=5                                                                  
#ESTATE_SYM=2/2/2/2/2/2/2/2                                                     
XFORM_TOL=18                                                                    
SAVE_INTS=ON                                                                    
SCF_EXPORDER=6                                                                  
SCF_EXPSTART=5                                                                  
#SCF_DAMPING=1000                                                               
SCF_EXTRAPOLATION=ON                                                            
SCF_CONV=12                                                                     
SCF_MAXCYC=99999                                                                
CC_CONV=9                                                                       
CC_MAXCYC=999                                                                   
T3_EXTRAPOL=ON                                                                  
REFERENCE=ROHF                                                                  
CHARGE=+1                                                                       
MULT=2                                                                          
ABCDTYPE=STANDARD                                                               
#OCCUPATION=3-2-2-0-1-0-0-0/3-1-1-0-1-0-0-0                                     
MEM=4                                                                           
MEM_UNIT=GB                                                                     
BASIS=SPECIAL)                                                                  
                                                                                
AL:def2-TZVPP                                                                   
F:def2-TZVPP                                                                    
F:def2-TZVPP                                                                    
F:def2-TZVPP                                                                    
                                                                                
********************************************************************************
  @GTFLGS-W, Keyword #GEOM not known and is ignored.
  @GTFLGS-W, Keyword #COORD not known and is ignored.
  @GTFLGS-W, Keyword #CC_PROG not known and is ignored.
  @GTFLGS-W, Keyword #FROZEN_CORE not known and is ignored.
  @GTFLGS-W, Keyword #CONTRACTION not known and is ignored.
  @GTFLGS-W, Keyword #EXCITE not known and is ignored.
  @GTFLGS-W, Keyword #ESTATE_CONV not known and is ignored.
  @GTFLGS-W, Keyword #ESTATE_SYM not known and is ignored.
  @GTFLGS-W, Keyword #SCF_DAMPING not known and is ignored.
  @GTFLGS-W, Keyword #OCCUPATION not known and is ignored.
    -------------------------------------------------------------------
                    CFOUR Control Parameters 
    -------------------------------------------------------------------
        External           Internal           Value            Units
          Name               Name
    -------------------------------------------------------------------
       ABCDTYPE             IABCDT         STANDARD     [  0]   ***   
       ANHARMONIC           IANHAR         OFF          [  0]   ***   
       ANH_ALGORIT          IANALG         STANDARD     [  0]   ***   
       ANH_DERIVAT          IANDER         SECOND       [  1]   ***   
       ANH_STEPSIZ          ICUBST             50000          x 10-6  
       ANH_SYMMETR          IANHSM         ABELIAN      [  0]   ***   
       AO_LADDERS           IAOLAD         SINGLEPASS   [  1]   ***   
       BASIS                IBASIS         SPECIAL      [  0]   ***   
       BREIT                IBREIT         OFF          [  0]   ***   
       BRUCK_CONV           IBRTOL          10D-  4             ***   
       BRUECKNER            IBRKNR             OFF      [  0]   ***   
       BUFFERSIZE           IBUFFS            600               ***   
       CACHE_RECS           ICHREC             10               ***   
       CALCLEVEL            ICLLVL           CCSD(T)    [ 22]   ***   
       CCORBOPT             ICCORB             OFF      [  0] x 0.01  
       CC_CONV              ICCCNV          10D-  9             ***   
       CC_EXPORDER          ICCEOR              5               ***   
       CC_EXTRAPOL          ICCEXT             DIIS     [  1]   ***   
       CC_MAXCYC            ICCCYC            999              cycles 
       CC_PROGRAM           ICCPRO         VCC          [  0]   ***   
       CHARGE               ICHRGE              1               ***   
       CHOLESKY             ICHOLE         OFF          [  0]   ***   
       CIS_CONV             ICISTL              5               ***   
       COMM_SIZE            IPSIZE            ***               ***   
       CONSTANT             ICONST         OLD          [  1]   ***   
       CONTINUUM            ICONTU         NONE         [  0]   ***   
       CONTRACTION          ICNTYP          GENERAL     [  1]   ***   
       COORDINATES          ICOORD         INTERNAL     [  0]   ***   
       CPHF_CONVER          ICPHFT          10D- 16             ***   
       CPHF_MAXCYC          ICPHFC             64              cycles 
       CUBIC                ICUBIC         OFF          [  0]   ***   
       CURVILINEAR          ICURVY            OFF       [  0]   ***   
       DBOC                 IDBOC          OFF          [  0]   ***   
       DCT                  IDCT           OFF          [  0]   ***   
       DERIV_LEV            IDRLVL            ZERO      [  0]   ***   
       DIAG_MRCC            IEOMST          10D-  0             ***   
       DIFF_TYPE            IDIFTY         RELAXED      [  0]   ***   
       DIRECT               IDIRCT         OFF          [  0]   ***   
       DROPMO               IDRPMO A   1,  2,  3,  4,  5,  6,  7,  8,
                                   B   1,  2,  3,  4,  5,  6,  7,  8,
       ECP                  IECP           OFF          [  0]   ***   
       EIGENVECTOR          IVEC                1               ***   
       EL_ANHARM            IELANH         OFF          [  0]   ***   
       EOMFOLLOW            IEOMSR         ENERGY       [  0]   ***   
       EOM_MRCC             IMRCCE         NEW          [  1]   ***   
       EOM_NONIT            EOMNON         OFF          [  0]   ***   
       EOM_NSING            IEOMSI          10D-  0             ***   
       EOM_NSTATES          IMRCCD         DAVIDSON     [  0]   ***   
       EOM_NTRIP            IEOMTR          10D-  0             ***   
       EOM_ORDER            IEXORD         ENERGY       [  0]   ***   
       ESTATE_CONV          IEXTOL          10D-  5             ***   
       ESTATE_DIAG          IEXDIG         ITERATIVE    [  0]   ***   
       ESTATE_LOCK          IESLOC         ON           [  1]   ***   
       ESTATE_MAXC          IEXMXC             20               ***   
       ESTATE_PROP          IEXPRP         OFF          [  0]   ***   
       EVAL_HESS            IRECAL              0            # of cyc.
       EXCITATION           IEXCIT              0               ***   
       EXCITE               IEXCIT         NONE         [  0]   ***   
       FCGRADNEW            IFCGNW         OFF          [  0]   ***   
       FC_FIELD             IFINFC              0             x 10-6  
       FD_CALTYPE           IFDCAL         GRADONLY     [  0]   ***   
       FD_PROJECT           IFDPRJ         OFF          [  1]   ***   
       FD_STEPSIZE          IDISFD              0            10-4 bohr
       FD_USEGROUP          IFDGRP         FULL         [  0]   ***   
       FILE_RECSIZ          IFLREC              4096           words  
       FINITE_PERT          IFIPER              0             x 10-6  
       FIXGEOM              IFIXGM         OFF          [  0]   ***   
       FOCK                 IFOCK          AO           [  1]   ***   
       FREQ_ALGORI          IVIALG         STANDARD     [  0]   ***   
       FROZEN_CORE          IFROCO         OFF          [  0]   ***   
       FROZEN_VIRT          IFROVI         OFF          [  0]   ***   
       GAMMA_ABCD           IGABCD         STORE        [  0]   ***   
       GAMMA_ABCI           IGABCI         STORE        [  0]   ***   
       GENBAS_1             IGNBS1              0               ***   
       GENBAS_2             IGNBS2              0               ***   
       GENBAS_3             IGNBS3              0               ***   
       GENBAS_4             IGNBS4              0               ***   
       GEO_CONV             ICONTL              5              H/bohr 
       GEO_MAXCYC           IOPTCY             50               ***   
       GEO_MAXSTEP          IMXSTP            300            millibohr
       GEO_METHOD           INR            SINGLE_POINT [  5]   ***   
       GIAO                 IGIAO          OFF          [  1]   ***   
       GIMIC                IGIMIC         OFF          [  0]   ***   
       GRID                 IGRID          OFF          [  0]   ***   
       GRID_ALGO            IGALGO         SERIAL       [  0]   ***   
       GUESS                IGUESS            MOREAD    [  0]   ***   
       HBAR                 IHBAR              OFF      [  0]   ***   
       HESS_TYPE            IHESTP         SCF          [  0]   ***   
       HF2_FILE             IHF2Fl         USE          [  1]   ***   
       HFSTABILITY          ISTABL         OFF          [  0]   ***   
       INCORE               INCORE             OFF      [  0]   ***   
       INPUT_MRCC           IMRCC          OFF          [  0]   ***   
       INTEGRALS            INTTYP             VMOL     [  1]   ***   
       JODA_PRINT           IJPRNT              4               ***   
       LINDEP_TOL           ILINDP              8               ***   
       LINEQ_CONV           IZTACN          10D-  7           cycles  
       LINEQ_EXPOR          ILMAXD              5               ***   
       LINEQ_MAXCY          ILMAXC             50               ***   
       LINEQ_TYPE           ILTYPE         DIIS         [  1]   ***   
       LOCK_ORBOCC          ILOCOC             OFF      [  0]   ***   
       MEMORY_SIZE          IMEMSZ         500000000           words  
       MEM_UNIT             IMEMU          GB           [  3]   ***   
       MRCC                 IMRCCC         OFF          [  0]   ***   
       MULTIPLICTY          IMULTP              2               ***   
       NEGEVAL              IDIE             ABORT      [  0]   ***   
       NEWNORM              INEWNO         OFF          [  0]   ***   
       NON-HF               INONHF              ON      [  1]   ***   
       NTOP_TAMP            ITOPT2             15               ***   
       NUC_MODEL            INUCMO         POINT        [  0]   ***   
       OCCUPATION           IOCCU   ESTIMATED BY SCF 
       OPEN-SHELL           IOPEN          SPIN-ORBITAL [  0]   ***   
       ORBITALS             IORBTP         SEMICANONICAL[  1]   ***   
       PARALLEL             IPARAL         ON           [  1]   ***   
       PARA_INT             IPINTS         ON           [  1]   ***   
       PARA_PRINT           IPPRIN              0               ***   
       PERT_ORB             IPTORB         STANDARD     [  0]   ***   
       POINTS               IGRDFD              0               ***   
       PRINT                IPRNT               4               ***   
       PROPS                IPROPS             OFF      [  0]   ***   
       PROP_INTEGR          IINTYP         INTERNAL     [  0]   ***   
       PSI                  IPSI           OFF          [  0]   ***   
       QUARTIC              IQUART         OFF          [  0]   ***   
       RAMAN_INT            IRAMIN         OFF          [  0]   ***   
       RAMAN_ORB            IRAMRE         UNRELAXED    [  0]   ***   
       RDO                  IRDOFM             OFF      [  0]   ***   
       REFERENCE            IREFNC             ROHF     [  2]   ***   
       RELATIVIST           IRELAT         OFF          [  0]   ***   
       RELAX_DENS           IRDENS             OFF      [  0]   ***   
       RESET_FLAGS          IRESET             OFF      [  0]   ***   
       RESTART_CC           ICCRES         OFF          [  0]   ***   
       ROT_EVEC             ROTVEC              0               ***   
       SAVE_INTS            ISVINT              ON      [  1]   ***   
       SCALE_ON             ISTCRT              0               ***   
       SCF_CONV             ISCFCV          10D- 12             ***   
       SCF_DAMPING          IDAMP               0             x 10-3  
       SCF_EXPORDE          IRPPOR              6               ***   
       SCF_EXPSTAR          IRPPLS              5               ***   
       SCF_EXTRAPO          IRPP                ON      [  1]   ***   
       SCF_MAXCYC           ISCFCY            ***              cycles 
       SCF_NOSTOP           ISCFST         OFF          [  0]   ***   
       SCF_PRINT            ISCFPR              0               ***   
       SD_FIELD             IFINSD              0             x 10-6  
       SEQUENCE             ISEQUE         OFF          [  0]   ***   
       SOPERT               IPERSO         OFF          [  0]   ***   
       SPHERICAL            IDFGHI             ON       [  1]   ***   
       SPINORBIT            ISOCAL         OFF          [  0]   ***   
       SPINROTATIO          ISRCON         OFF          [  0]   ***   
       SPIN_FLIP            ISPFLP         OFF          [  0]   ***   
       SPIN_ORBIT           ISPORB         OFF          [  0]   ***   
       SPIN_SCAL            ISCSMP         OFF          [  0]   ***   
       SUBGROUP             ISUBGP         DEFAULT      [  0]   ***   
       SUBGRPAXIS           ISBXYZ         X            [  0]   ***   
       SYMMETRY             ISYM             ON         [  0]   ***   
       SYM_CHECK            ISYMCK         OVERRIDE     [  1]   ***   
       T3_EXTRAPOL          IT3EXT         ON           [  1]   ***   
       TAMP_SUM             IEVERY              5               ***   
       TESTSUITE            ITESTS         OFF          [  0]   ***   
       THERMOCH             ITHERM         OFF          [  0]   ***   
       TOL_CHOLESK          ITOLCH          10D-  4             ***   
       TRANGRAD             IRESRM         OFF          [  0]   ***   
       TRANS_INV            ITRAIN         USE          [  0]   ***   
       TREAT_PERT           ITREAT         SIMULTANEOUS [  0]   ***   
       UIJ_THRESHO          IUIJTH              1               ***   
       UNITS                IUNITS         BOHR         [  1]   ***   
       UNOS                 IUNOS          OFF          [  0]   ***   
       UPDATE_HESS          IHUPDT         ON           [  1]   ***   
       VIBPHASE             ISETPH         STANDARD     [  0]   ***   
       VIBRATION            IVIB              NO        [  0]   ***   
       VIB_ALGORIT          IGEALG         STANDARD     [  0]   ***   
       VNATORB              IVNORB         OFF          [  0]   ***   
       VTRAN                IVTRAN         FULL/PARTIAL [  0]   ***   
       XFIELD               IXEFLD              0             x 10-6  
       XFORM_TOL            IXFTOL          10D- 18             ***   
       YFIELD               IYEFLD              0             x 10-6  
       ZFIELD               IZEFLD              0             x 10-6  
    -------------------------------------------------------------------
   4 entries found in Z-matrix 
   Job Title : TITLE                                                                           
 Variable names read by FETCHZ
  1           
  2           
  3           
  4 R         
  5           
  6           
  7 R         
  8 A120      
  9           
 10 R         
 11 A120      
 12 D180      
 Atomic symbols read by FETCHZ
  1 Al   
  2 F    
  3 F    
  4 F    
 Connectivity matrix read by FETCHZ
  1   0
  2   0
  3   0
  4   1
  5   0
  6   0
  7   1
  8   2
  9   0
 10   1
 11   2
 12   3
   There are  3 unique internal coordinates.
   Of these,  0 will be optimized.
   User supplied Z-matrix: 
--------------------------------------------------------------------------------
       SYMBOL    BOND      LENGTH    ANGLE     ANGLE     DIHED     ANGLE
                  TO      (ANGST)    WRT      (DEG)      WRT      (DEG)
--------------------------------------------------------------------------------
        Al   
        F          1         R    
        F          1         R          2        A120 
        F          1         R          2        A120       3        D180 
                  *Initial values for internal coordinates* 
                      Name             Value
                        R               3.0859227615
                        A120          120.0000000000
                        D180          180.0000000000
--------------------------------------------------------------------------------
  1  AL        13    26.98154
  2  F          9    18.99840
  3  F          9    18.99840
  4  F          9    18.99840
   26.9815386000
   18.9984032200
   18.9984032200
   18.9984032200
 After translation to center of mass coordinates 
        0.000000000000    0.000000000000    0.000000000000
        0.000000000000    0.000000000000    3.085922761530
        2.672487505602    0.000000000000   -1.542961380765
       -2.672487505602    0.000000000000   -1.542961380765
  Inertia tensor (amu*bohr**2)
  271.38039    0.00000    0.00000
    0.00000  542.76078    0.00000
    0.00000    0.00000  271.38039
    Inertia tensor:
      271.380390758079    0.000000000000    0.000000000000
        0.000000000000  542.760781516157    0.000000000000
        0.000000000000    0.000000000000  271.380390758079
    Principal axis orientation for molecular system: 
        0.000000000000    0.000000000000    0.000000000000
        0.000000000000    3.085922761530    0.000000000000
        2.672487505602   -1.542961380765    0.000000000000
       -2.672487505602   -1.542961380765    0.000000000000
    Diagonalized inertia tensor:
      271.380390758079    0.000000000000    0.000000000000
        0.000000000000  271.380390758079    0.000000000000
        0.000000000000    0.000000000000  542.760781516157
    Eigenvectors of inertia tensor: 
        1.000000000000    0.000000000000    0.000000000000
        0.000000000000    0.000000000000    1.000000000000
        0.000000000000    1.000000000000    0.000000000000
 factor:   60.1997200000000     
   Rotational constants (in cm-1): 
          0.1109139091             0.2218278183             0.2218278183
   Rotational constants (in MHz): 
       3325.1158102629          6650.2316205257          6650.2316205257
  @SYMMETRY-I, Handedness of inertial frame:-1.00000
  @SYMMETRY-I, Sense of inertial frame y-axis will be changed.
  @SYMMETRY-I, The symmetry group is 2-fold degenerate.
  @SYMMETRY-I, The molecule belongs to a point group with doubly degenerate representations.
  @SYMMETRY-I, Z is a C[ 3] axis.
  @SYMMETRY-I, The highest order rotational axis is C[ 3] about Z.
   Principal axis orientation for molecule:
        0.000000000000    0.000000000000    0.000000000000
       -1.542961380765   -2.672487505602    0.000000000000
        3.085922761530    0.000000000000    0.000000000000
       -1.542961380765    2.672487505602    0.000000000000
   Reflection in plane  3 is a valid symmetry operation.
   Reflection in plane  2 is a valid symmetry operation.
   Rotation about  1 is a valid symmetry operation 
  Symmetry bits:    6   1   0
********************************************************************************
   The full molecular point group is D3h .
   The largest Abelian subgroup of the full molecular point group is C2v .
   The computational point group is C2v .
********************************************************************************
--------------------------------------------------------------------------------
   Analysis of internal coordinates specified by Z-matrix 
--------------------------------------------------------------------------------
   *The nuclear repulsion energy is  159.205577514031660 a.u.
   *There is   1 degree of freedom within the tot. symm. molecular subspace.
   *Z-matrix requests optimization of   0 coordinates.
   *The optimization is constrained.
   *The following   1 parameters can have non-zero 
    derivatives within the totally symmetric subspace:
             R    [ 1]
   *The following   0 parameters are to be optimized:

   *The following coordinates must be varied in an  unconstrained optimization.
             R    [ 1]
--------------------------------------------------------------------------------
 ----------------------------------------------------------------
 Z-matrix   Atomic            Coordinates (in bohr)
  Symbol    Number           X              Y              Z
 ----------------------------------------------------------------
     AL       13         0.00000000     0.00000000     0.00000000
     F         9         0.00000000    -2.67248751     1.54296138
     F         9         0.00000000     0.00000000    -3.08592276
     F         9         0.00000000     2.67248751     1.54296138
 ----------------------------------------------------------------
   Interatomic distance matrix (Angstroms) 
 
                 AL            F             F             F    
                [ 1]        [ 2]        [ 3]        [ 4]
  AL   [ 1]     0.00000
  F    [ 2]     1.63300     0.00000
  F    [ 3]     1.63300     2.82844     0.00000
  F    [ 4]     1.63300     2.82844     2.82844     0.00000
  Inertia tensor (amu*bohr**2)
  542.76078    0.00000    0.00000
    0.00000  271.38039    0.00000
    0.00000    0.00000  271.38039
   Rotational constants (in cm-1): 
          0.1109139091             0.2218278183             0.2218278183
   Rotational constants (in MHz): 
       3325.1158102629          6650.2316205257          6650.2316205257
  @GTFLGS-W, Keyword #GEOM not known and is ignored.
  @GTFLGS-W, Keyword #COORD not known and is ignored.
  @GTFLGS-W, Keyword #CC_PROG not known and is ignored.
  @GTFLGS-W, Keyword #FROZEN_CORE not known and is ignored.
  @GTFLGS-W, Keyword #CONTRACTION not known and is ignored.
  @GTFLGS-W, Keyword #EXCITE not known and is ignored.
  @GTFLGS-W, Keyword #ESTATE_CONV not known and is ignored.
  @GTFLGS-W, Keyword #ESTATE_SYM not known and is ignored.
  @GTFLGS-W, Keyword #SCF_DAMPING not known and is ignored.
  @GTFLGS-W, Keyword #OCCUPATION not known and is ignored.
  There are  135 basis functions.
 @GEOPT-W, Archive file not created for single-point calculation.
  @CHECKOUT-I, Total execution time (CPU/WALL):        0.23/       0.29 seconds.
--executable xjoda finished with status     0 in        0.33 seconds (walltime).
 --invoking executable--
/project1/nike/cfour_v2.00beta_May2019xnmol_noLABBASIS/bin/xvmol
Running with 1 threads/proc

********************************************************************************
                   INPUT FROM MOL FILE                                          
********************************************************************************
INTGRL        1    0    1    0    0    0    0    0    0
         *** CFOUR Program System (Release V0.1) *** 
TITLE
    3    2 X  Y       0.10E-08              0    0
   9999.00      3.00
         13.00000000    1    4    1    1    1    1
AL#1   0.000000000000000   0.000000000000000   0.000000000000000
   14    5
   37792.5507720000       5.704788870900000E-004  0.000000000000000E+000
  0.000000000000000E+000  0.000000000000000E+000  0.000000000000000E+000
   5668.06821650000       4.409301653800000E-003  0.000000000000000E+000
  0.000000000000000E+000  0.000000000000000E+000  0.000000000000000E+000
   1289.85828410000       2.263096741100000E-002  0.000000000000000E+000
  0.000000000000000E+000  0.000000000000000E+000  0.000000000000000E+000
   364.865960280000       8.802564429500000E-002  0.000000000000000E+000
  0.000000000000000E+000  0.000000000000000E+000  0.000000000000000E+000
   118.576315150000       0.252237016120000       0.000000000000000E+000
  0.000000000000000E+000  0.000000000000000E+000  0.000000000000000E+000
   42.0248676050000       0.459605471690000       0.000000000000000E+000
  0.000000000000000E+000  0.000000000000000E+000  0.000000000000000E+000
   15.4995016290000       0.332778860140000       0.000000000000000E+000
  0.000000000000000E+000  0.000000000000000E+000  0.000000000000000E+000
   75.2080265980000       0.000000000000000E+000  1.925056019000000E-002
  0.000000000000000E+000  0.000000000000000E+000  0.000000000000000E+000
   23.0314089720000       0.000000000000000E+000  8.790674395200000E-002
  0.000000000000000E+000  0.000000000000000E+000  0.000000000000000E+000
   3.63487976490000       0.000000000000000E+000 -0.342467045350000     
  0.000000000000000E+000  0.000000000000000E+000  0.000000000000000E+000
   1.60650499570000       0.000000000000000E+000  0.000000000000000E+000
   1.51062660580000       0.000000000000000E+000  0.000000000000000E+000
  0.761033945810000       0.000000000000000E+000  0.000000000000000E+000
  0.580710164700000       0.000000000000000E+000  0.000000000000000E+000
  0.165567088490000       0.000000000000000E+000  0.000000000000000E+000
  0.000000000000000E+000   1.00000000000000       0.000000000000000E+000
  6.004157711300000E-002  0.000000000000000E+000  0.000000000000000E+000
  0.000000000000000E+000  0.000000000000000E+000   1.00000000000000     
    9    5
   452.523031920000       2.311081246600000E-003  0.000000000000000E+000
  0.000000000000000E+000  0.000000000000000E+000  0.000000000000000E+000
   107.081950490000       1.856864182300000E-002  0.000000000000000E+000
  0.000000000000000E+000  0.000000000000000E+000  0.000000000000000E+000
   34.1310212550000       8.721623703500000E-002  0.000000000000000E+000
  0.000000000000000E+000  0.000000000000000E+000  0.000000000000000E+000
   12.5870374280000       0.269021015230000       0.000000000000000E+000
  0.000000000000000E+000  0.000000000000000E+000  0.000000000000000E+000
   4.98119197040000       0.521283242720000       0.000000000000000E+000
  0.000000000000000E+000  0.000000000000000E+000  0.000000000000000E+000
   2.00703509000000       0.000000000000000E+000  0.602716874940000     
  0.000000000000000E+000  0.000000000000000E+000  0.000000000000000E+000
  0.800837143740000       0.000000000000000E+000  0.000000000000000E+000
   1.00000000000000       0.000000000000000E+000  0.000000000000000E+000
  0.201789274720000       0.000000000000000E+000  0.000000000000000E+000
  0.000000000000000E+000   1.00000000000000       0.000000000000000E+000
  5.789555039200000E-002  0.000000000000000E+000  0.000000000000000E+000
  0.000000000000000E+000  0.000000000000000E+000   1.00000000000000     
    3    3
  0.111000000000000        1.00000000000000       0.000000000000000E+000
  0.000000000000000E+000
   1.57000000000000       0.000000000000000E+000   1.00000000000000     
  0.000000000000000E+000
  0.333000000000000       0.000000000000000E+000  0.000000000000000E+000
   1.00000000000000     
    1    1
  0.244000000000000        1.00000000000000     
          9.00000000    1    4    1    1    1    1
F #2   0.000000000000000  -2.672487505601608   1.542961380765000
   11    5
   35479.1004410000       2.154501488800000E-004  0.000000000000000E+000
  0.000000000000000E+000  0.000000000000000E+000  0.000000000000000E+000
   5318.47289830000       1.670068652700000E-003  0.000000000000000E+000
  0.000000000000000E+000  0.000000000000000E+000  0.000000000000000E+000
   1210.48109750000       8.673321147599999E-003  0.000000000000000E+000
  0.000000000000000E+000  0.000000000000000E+000  0.000000000000000E+000
   342.855181400000       3.504993317500000E-002  0.000000000000000E+000
  0.000000000000000E+000  0.000000000000000E+000  0.000000000000000E+000
   112.019431810000       0.111653201330000       0.000000000000000E+000
  0.000000000000000E+000  0.000000000000000E+000  0.000000000000000E+000
   40.7147402480000       0.259885066470000       0.000000000000000E+000
  0.000000000000000E+000  0.000000000000000E+000  0.000000000000000E+000
   16.0396781110000       0.000000000000000E+000  0.394229668800000     
  0.000000000000000E+000  0.000000000000000E+000  0.000000000000000E+000
   6.50381867400000       0.000000000000000E+000  0.249982385510000     
  0.000000000000000E+000  0.000000000000000E+000  0.000000000000000E+000
   1.54404775090000       0.000000000000000E+000  0.000000000000000E+000
   1.00000000000000       0.000000000000000E+000  0.000000000000000E+000
  0.612234528620000       0.000000000000000E+000  0.000000000000000E+000
  0.000000000000000E+000   1.00000000000000       0.000000000000000E+000
  0.240279796980000       0.000000000000000E+000  0.000000000000000E+000
  0.000000000000000E+000  0.000000000000000E+000   1.00000000000000     
    6    3
   80.2339004830000       6.368599913400000E-003  0.000000000000000E+000
  0.000000000000000E+000
   18.5940107430000       4.430314353000000E-002  0.000000000000000E+000
  0.000000000000000E+000
   5.68679026530000       0.168672487080000       0.000000000000000E+000
  0.000000000000000E+000
   1.95110062940000       0.361663462550000       0.000000000000000E+000
  0.000000000000000E+000
  0.669702112980000       0.000000000000000E+000  0.442029014910000     
  0.000000000000000E+000
  0.216513004100000       0.000000000000000E+000  0.000000000000000E+000
  0.243198757300000     
    2    2
   3.10700000000000        1.00000000000000       0.000000000000000E+000
  0.855000000000000       0.000000000000000E+000   1.00000000000000     
    1    1
   1.91700000000000        1.00000000000000     
          9.00000000    1    4    1    1    1    1
F #3   0.000000000000000  -0.000000000000001  -3.085922761530000
   11    5
   35479.1004410000       2.154501488800000E-004  0.000000000000000E+000
  0.000000000000000E+000  0.000000000000000E+000  0.000000000000000E+000
   5318.47289830000       1.670068652700000E-003  0.000000000000000E+000
  0.000000000000000E+000  0.000000000000000E+000  0.000000000000000E+000
   1210.48109750000       8.673321147599999E-003  0.000000000000000E+000
  0.000000000000000E+000  0.000000000000000E+000  0.000000000000000E+000
   342.855181400000       3.504993317500000E-002  0.000000000000000E+000
  0.000000000000000E+000  0.000000000000000E+000  0.000000000000000E+000
   112.019431810000       0.111653201330000       0.000000000000000E+000
  0.000000000000000E+000  0.000000000000000E+000  0.000000000000000E+000
   40.7147402480000       0.259885066470000       0.000000000000000E+000
  0.000000000000000E+000  0.000000000000000E+000  0.000000000000000E+000
   16.0396781110000       0.000000000000000E+000  0.394229668800000     
  0.000000000000000E+000  0.000000000000000E+000  0.000000000000000E+000
   6.50381867400000       0.000000000000000E+000  0.249982385510000     
  0.000000000000000E+000  0.000000000000000E+000  0.000000000000000E+000
   1.54404775090000       0.000000000000000E+000  0.000000000000000E+000
   1.00000000000000       0.000000000000000E+000  0.000000000000000E+000
  0.612234528620000       0.000000000000000E+000  0.000000000000000E+000
  0.000000000000000E+000   1.00000000000000       0.000000000000000E+000
  0.240279796980000       0.000000000000000E+000  0.000000000000000E+000
  0.000000000000000E+000  0.000000000000000E+000   1.00000000000000     
    6    3
   80.2339004830000       6.368599913400000E-003  0.000000000000000E+000
  0.000000000000000E+000
   18.5940107430000       4.430314353000000E-002  0.000000000000000E+000
  0.000000000000000E+000
   5.68679026530000       0.168672487080000       0.000000000000000E+000
  0.000000000000000E+000
   1.95110062940000       0.361663462550000       0.000000000000000E+000
  0.000000000000000E+000
  0.669702112980000       0.000000000000000E+000  0.442029014910000     
  0.000000000000000E+000
  0.216513004100000       0.000000000000000E+000  0.000000000000000E+000
  0.243198757300000     
    2    2
   3.10700000000000        1.00000000000000       0.000000000000000E+000
  0.855000000000000       0.000000000000000E+000   1.00000000000000     
    1    1
   1.91700000000000        1.00000000000000     
FINISH
                                                                                
********************************************************************************

ONE- AND TWO-ELECTRON INTEGRALS OVER SYMMETRY-ADAPTED AOS ARE CALCULATED.


    BASIS FUNCTION NOT NORMALIZED:
    CENTER (AS ORDERED IN MOL FILE): ?
    ANGULAR MOMENTUM TYPE:           S
    OFFSET WITHIN ANGULAR MOMENTUM:  1
    <CHI|CHI>:                       1.0296673776

    BASIS FUNCTION NOT NORMALIZED:
    CENTER (AS ORDERED IN MOL FILE): ?
    ANGULAR MOMENTUM TYPE:           S
    OFFSET WITHIN ANGULAR MOMENTUM:  2
    <CHI|CHI>:                       0.0902121992

    BASIS FUNCTION NOT NORMALIZED:
    CENTER (AS ORDERED IN MOL FILE): ?
    ANGULAR MOMENTUM TYPE:           S
    OFFSET WITHIN ANGULAR MOMENTUM:  3
    <CHI|CHI>:                       4.2030538464

    BASIS FUNCTION NOT NORMALIZED:
    CENTER (AS ORDERED IN MOL FILE): ?
    ANGULAR MOMENTUM TYPE:           P
    OFFSET WITHIN ANGULAR MOMENTUM:  1
    <CHI|CHI>:                       0.6437534981

    BASIS FUNCTION NOT NORMALIZED:
    CENTER (AS ORDERED IN MOL FILE): ?
    ANGULAR MOMENTUM TYPE:           P
    OFFSET WITHIN ANGULAR MOMENTUM:  2
    <CHI|CHI>:                       0.3632676313

    BASIS FUNCTION NOT NORMALIZED:
    CENTER (AS ORDERED IN MOL FILE): ?
    ANGULAR MOMENTUM TYPE:           S
    OFFSET WITHIN ANGULAR MOMENTUM:  1
    <CHI|CHI>:                       0.1470459150

    BASIS FUNCTION NOT NORMALIZED:
    CENTER (AS ORDERED IN MOL FILE): ?
    ANGULAR MOMENTUM TYPE:           S
    OFFSET WITHIN ANGULAR MOMENTUM:  2
    <CHI|CHI>:                       0.3879183687

    BASIS FUNCTION NOT NORMALIZED:
    CENTER (AS ORDERED IN MOL FILE): ?
    ANGULAR MOMENTUM TYPE:           P
    OFFSET WITHIN ANGULAR MOMENTUM:  1
    <CHI|CHI>:                       0.2671601553

    BASIS FUNCTION NOT NORMALIZED:
    CENTER (AS ORDERED IN MOL FILE): ?
    ANGULAR MOMENTUM TYPE:           P
    OFFSET WITHIN ANGULAR MOMENTUM:  2
    <CHI|CHI>:                       0.1953896500

    BASIS FUNCTION NOT NORMALIZED:
    CENTER (AS ORDERED IN MOL FILE): ?
    ANGULAR MOMENTUM TYPE:           P
    OFFSET WITHIN ANGULAR MOMENTUM:  3
    <CHI|CHI>:                       0.0591456356

    BASIS FUNCTION NOT NORMALIZED:
    CENTER (AS ORDERED IN MOL FILE): ?
    ANGULAR MOMENTUM TYPE:           S
    OFFSET WITHIN ANGULAR MOMENTUM:  1
    <CHI|CHI>:                       0.1470459150

    BASIS FUNCTION NOT NORMALIZED:
    CENTER (AS ORDERED IN MOL FILE): ?
    ANGULAR MOMENTUM TYPE:           S
    OFFSET WITHIN ANGULAR MOMENTUM:  2
    <CHI|CHI>:                       0.3879183687

    BASIS FUNCTION NOT NORMALIZED:
    CENTER (AS ORDERED IN MOL FILE): ?
    ANGULAR MOMENTUM TYPE:           P
    OFFSET WITHIN ANGULAR MOMENTUM:  1
    <CHI|CHI>:                       0.2671601553

    BASIS FUNCTION NOT NORMALIZED:
    CENTER (AS ORDERED IN MOL FILE): ?
    ANGULAR MOMENTUM TYPE:           P
    OFFSET WITHIN ANGULAR MOMENTUM:  2
    <CHI|CHI>:                       0.1953896500

    BASIS FUNCTION NOT NORMALIZED:
    CENTER (AS ORDERED IN MOL FILE): ?
    ANGULAR MOMENTUM TYPE:           P
    OFFSET WITHIN ANGULAR MOMENTUM:  3
    <CHI|CHI>:                       0.0591456356
CARTESIAN GAUSSIANS ARE USED.

3 TYPES OF ATOMS
2 SYMMETRY OPERATIONS

REFLECTION IN THE YZ-PLANE
REFLECTION IN THE XZ-PLANE

INTEGRALS LESS THAN 1e-14 ARE NEGLECTED.

ATOMIC TYPE NUMBER 1:
---------------------

    NUCLEAR CHARGE:                       13
    NUMBER OF SYMMETRY INDEPENDENT ATOMS: 1
    HIGHEST ORBITAL TYPE:                 F

    1 GROUPS OF CGTOS OF S TYPE
    1 GROUPS OF CGTOS OF P TYPE
    1 GROUPS OF CGTOS OF D TYPE
    1 GROUPS OF CGTOS OF F TYPE

    NUCLEAR COORDINATES (IN A.U.) ARE:

    AL#1   0.000000000000000   0.000000000000000   0.000000000000000

ATOMIC TYPE NUMBER 2:
---------------------

    NUCLEAR CHARGE:                       9
    NUMBER OF SYMMETRY INDEPENDENT ATOMS: 1
    HIGHEST ORBITAL TYPE:                 F

    1 GROUPS OF CGTOS OF S TYPE
    1 GROUPS OF CGTOS OF P TYPE
    1 GROUPS OF CGTOS OF D TYPE
    1 GROUPS OF CGTOS OF F TYPE

    NUCLEAR COORDINATES (IN A.U.) ARE:

    F #2   0.000000000000000  -2.672487505601608   1.542961380765000

ATOMIC TYPE NUMBER 3:
---------------------

    NUCLEAR CHARGE:                       9
    NUMBER OF SYMMETRY INDEPENDENT ATOMS: 1
    HIGHEST ORBITAL TYPE:                 F

    1 GROUPS OF CGTOS OF S TYPE
    1 GROUPS OF CGTOS OF P TYPE
    1 GROUPS OF CGTOS OF D TYPE
    1 GROUPS OF CGTOS OF F TYPE

    NUCLEAR COORDINATES (IN A.U.) ARE:

    F #3   0.000000000000000  -0.000000000000001  -3.085922761530000

INTERNUCLEAR DISTANCES (A):

    FOR ATOM AL#1 (COORDINATES:   0.00000   0.00000   0.00000)

    F #2 1 DISTANCE IS   1.63300
    F #3 1 DISTANCE IS   1.63300

    FOR ATOM F #2 (COORDINATES:   0.00000  -2.67249   1.54296)

    F #2 3 DISTANCE IS   2.82844
    F #3 1 DISTANCE IS   2.82844

    FOR ATOM F #3 (COORDINATES:   0.00000  -0.00000  -3.08592)


GROUP MULTIPLICATION TABLE:

    1 2 3 4
    2 1 4 3
    3 4 1 2
    4 3 2 1

GAUSSIAN BASIS INFORMATION:

ATOM                EXPONENT       COEFFICIENTS

AL#1  1  S   
                  1   37792.550772   1.0860651   0.0000000   0.0000000   0.0000000   0.0000000
                  2    5668.068216   2.0230552   0.0000000   0.0000000   0.0000000   0.0000000
                  3    1289.858284   3.4211430   0.0000000   0.0000000   0.0000000   0.0000000
                  4     364.865960   5.1614395   0.0000000   0.0000000   0.0000000   0.0000000
                  5     118.576315   6.3660332   0.0000000   0.0000000   0.0000000   0.0000000
                  6      42.024868   5.3281516   0.0000000   0.0000000   0.0000000   0.0000000
                  7      15.499502   1.8258103   0.0000000   0.0000000   0.0000000   0.0000000
                  8      75.208027   0.0000000   1.1665919   0.0000000   0.0000000   0.0000000
                  9      23.031409   0.0000000   2.1930071   0.0000000   0.0000000   0.0000000
                 10       3.634880   0.0000000  -2.1392610   0.0000000   0.0000000   0.0000000
                 11       1.606505   0.0000000   0.0000000   0.7493700   0.0000000   0.0000000
                 12       0.761034   0.0000000   0.0000000   0.1644902   0.0000000   0.0000000
                 13       0.165567   0.0000000   0.0000000   0.0000000   0.1849867   0.0000000
                 14       0.060042   0.0000000   0.0000000   0.0000000   0.0000000   0.0864468

AL#1  1  X   
                 15     452.523032   8.5693200   0.0000000   0.0000000   0.0000000   0.0000000
                 16     107.081950  11.3633339   0.0000000   0.0000000   0.0000000   0.0000000
                 17      34.131021  12.7824539   0.0000000   0.0000000   0.0000000   0.0000000
                 18      12.587037  11.3310694   0.0000000   0.0000000   0.0000000   0.0000000
                 19       4.981192   6.8916093   0.0000000   0.0000000   0.0000000   0.0000000
                 20       2.007035   0.0000000   3.4051308   0.0000000   0.0000000   0.0000000
                 21       0.800837   0.0000000   0.0000000   1.0798672   0.0000000   0.0000000
                 22       0.201789   0.0000000   0.0000000   0.0000000   0.1927803   0.0000000
                 23       0.057896   0.0000000   0.0000000   0.0000000   0.0000000   0.0404806

AL#1  1  Y   
                 24     452.523032   8.5693200   0.0000000   0.0000000   0.0000000   0.0000000
                 25     107.081950  11.3633339   0.0000000   0.0000000   0.0000000   0.0000000
                 26      34.131021  12.7824539   0.0000000   0.0000000   0.0000000   0.0000000
                 27      12.587037  11.3310694   0.0000000   0.0000000   0.0000000   0.0000000
                 28       4.981192   6.8916093   0.0000000   0.0000000   0.0000000   0.0000000
                 29       2.007035   0.0000000   3.4051308   0.0000000   0.0000000   0.0000000
                 30       0.800837   0.0000000   0.0000000   1.0798672   0.0000000   0.0000000
                 31       0.201789   0.0000000   0.0000000   0.0000000   0.1927803   0.0000000
                 32       0.057896   0.0000000   0.0000000   0.0000000   0.0000000   0.0404806

AL#1  1  Z   
                 33     452.523032   8.5693200   0.0000000   0.0000000   0.0000000   0.0000000
                 34     107.081950  11.3633339   0.0000000   0.0000000   0.0000000   0.0000000
                 35      34.131021  12.7824539   0.0000000   0.0000000   0.0000000   0.0000000
                 36      12.587037  11.3310694   0.0000000   0.0000000   0.0000000   0.0000000
                 37       4.981192   6.8916093   0.0000000   0.0000000   0.0000000   0.0000000
                 38       2.007035   0.0000000   3.4051308   0.0000000   0.0000000   0.0000000
                 39       0.800837   0.0000000   0.0000000   1.0798672   0.0000000   0.0000000
                 40       0.201789   0.0000000   0.0000000   0.0000000   0.1927803   0.0000000
                 41       0.057896   0.0000000   0.0000000   0.0000000   0.0000000   0.0404806

AL#1  1  XX  
                 42       0.111000   0.0608535   0.0000000   0.0000000
                 43       1.570000   0.0000000   6.2776121   0.0000000
                 44       0.333000   0.0000000   0.0000000   0.4161477

AL#1  1  XY  
                 45       0.111000   0.0608535   0.0000000   0.0000000
                 46       1.570000   0.0000000   6.2776121   0.0000000
                 47       0.333000   0.0000000   0.0000000   0.4161477

AL#1  1  XZ  
                 48       0.111000   0.0608535   0.0000000   0.0000000
                 49       1.570000   0.0000000   6.2776121   0.0000000
                 50       0.333000   0.0000000   0.0000000   0.4161477

AL#1  1  YY  
                 51       0.111000   0.0608535   0.0000000   0.0000000
                 52       1.570000   0.0000000   6.2776121   0.0000000
                 53       0.333000   0.0000000   0.0000000   0.4161477

AL#1  1  YZ  
                 54       0.111000   0.0608535   0.0000000   0.0000000
                 55       1.570000   0.0000000   6.2776121   0.0000000
                 56       0.333000   0.0000000   0.0000000   0.4161477

AL#1  1  ZZ  
                 57       0.111000   0.0608535   0.0000000   0.0000000
                 58       1.570000   0.0000000   6.2776121   0.0000000
                 59       0.333000   0.0000000   0.0000000   0.4161477

AL#1  1  F300
                 60       0.244000   0.2385762

AL#1  1  F210
                 61       0.244000   0.2385762

AL#1  1  F201
                 62       0.244000   0.2385762

AL#1  1  F120
                 63       0.244000   0.2385762

AL#1  1  F111
                 64       0.244000   0.2385762

AL#1  1  F102
                 65       0.244000   0.2385762

AL#1  1  F030
                 66       0.244000   0.2385762

AL#1  1  F021
                 67       0.244000   0.2385762

AL#1  1  F012
                 68       0.244000   0.2385762

AL#1  1  F003
                 69       0.244000   0.2385762

F #2  1  S   
                 70   35479.100441   1.0351657   0.0000000   0.0000000   0.0000000   0.0000000
                 71    5318.472898   1.9331170   0.0000000   0.0000000   0.0000000   0.0000000
                 72    1210.481098   3.3081679   0.0000000   0.0000000   0.0000000   0.0000000
                 73     342.855181   5.1904360   0.0000000   0.0000000   0.0000000   0.0000000
                 74     112.019432   7.1453715   0.0000000   0.0000000   0.0000000   0.0000000
                 75      40.714740   7.7853598   0.0000000   0.0000000   0.0000000   0.0000000
                 76      16.039678   0.0000000   3.6156465   0.0000000   0.0000000   0.0000000
                 77       6.503819   0.0000000   1.1649993   0.0000000   0.0000000   0.0000000
                 78       1.544048   0.0000000   0.0000000   0.9872011   0.0000000   0.0000000
                 79       0.612235   0.0000000   0.0000000   0.0000000   0.4932856   0.0000000
                 80       0.240280   0.0000000   0.0000000   0.0000000   0.0000000   0.2445953

F #2  3  S   
                 81   35479.100441   1.0351657   0.0000000   0.0000000   0.0000000   0.0000000
                 82    5318.472898   1.9331170   0.0000000   0.0000000   0.0000000   0.0000000
                 83    1210.481098   3.3081679   0.0000000   0.0000000   0.0000000   0.0000000
                 84     342.855181   5.1904360   0.0000000   0.0000000   0.0000000   0.0000000
                 85     112.019432   7.1453715   0.0000000   0.0000000   0.0000000   0.0000000
                 86      40.714740   7.7853598   0.0000000   0.0000000   0.0000000   0.0000000
                 87      16.039678   0.0000000   3.6156465   0.0000000   0.0000000   0.0000000
                 88       6.503819   0.0000000   1.1649993   0.0000000   0.0000000   0.0000000
                 89       1.544048   0.0000000   0.0000000   0.9872011   0.0000000   0.0000000
                 90       0.612235   0.0000000   0.0000000   0.0000000   0.4932856   0.0000000
                 91       0.240280   0.0000000   0.0000000   0.0000000   0.0000000   0.2445953

F #2  1  X   
                 92      80.233900   4.2174078   0.0000000   0.0000000
                 93      18.594011   4.7174264   0.0000000   0.0000000
                 94       5.686790   4.0849101   0.0000000   0.0000000
                 95       1.951101   2.2998974   0.0000000   0.0000000
                 96       0.669702   0.0000000   0.8635593   0.0000000
                 97       0.216513   0.0000000   0.0000000   0.2105208

F #2  3  X   
                 98      80.233900   4.2174078   0.0000000   0.0000000
                 99      18.594011   4.7174264   0.0000000   0.0000000
                100       5.686790   4.0849101   0.0000000   0.0000000
                101       1.951101   2.2998974   0.0000000   0.0000000
                102       0.669702   0.0000000   0.8635593   0.0000000
                103       0.216513   0.0000000   0.0000000   0.2105208

F #2  1  Y   
                104      80.233900   4.2174078   0.0000000   0.0000000
                105      18.594011   4.7174264   0.0000000   0.0000000
                106       5.686790   4.0849101   0.0000000   0.0000000
                107       1.951101   2.2998974   0.0000000   0.0000000
                108       0.669702   0.0000000   0.8635593   0.0000000
                109       0.216513   0.0000000   0.0000000   0.2105208

F #2  3  Y   
                110      80.233900   4.2174078   0.0000000   0.0000000
                111      18.594011   4.7174264   0.0000000   0.0000000
                112       5.686790   4.0849101   0.0000000   0.0000000
                113       1.951101   2.2998974   0.0000000   0.0000000
                114       0.669702   0.0000000   0.8635593   0.0000000
                115       0.216513   0.0000000   0.0000000   0.2105208

F #2  1  Z   
                116      80.233900   4.2174078   0.0000000   0.0000000
                117      18.594011   4.7174264   0.0000000   0.0000000
                118       5.686790   4.0849101   0.0000000   0.0000000
                119       1.951101   2.2998974   0.0000000   0.0000000
                120       0.669702   0.0000000   0.8635593   0.0000000
                121       0.216513   0.0000000   0.0000000   0.2105208

F #2  3  Z   
                122      80.233900   4.2174078   0.0000000   0.0000000
                123      18.594011   4.7174264   0.0000000   0.0000000
                124       5.686790   4.0849101   0.0000000   0.0000000
                125       1.951101   2.2998974   0.0000000   0.0000000
                126       0.669702   0.0000000   0.8635593   0.0000000
                127       0.216513   0.0000000   0.0000000   0.2105208

F #2  1  XX  
                128       3.107000  20.7284714   0.0000000
                129       0.855000   0.0000000   2.1672588

F #2  3  XX  
                130       3.107000  20.7284714   0.0000000
                131       0.855000   0.0000000   2.1672588

F #2  1  XY  
                132       3.107000  20.7284714   0.0000000
                133       0.855000   0.0000000   2.1672588

F #2  3  XY  
                134       3.107000  20.7284714   0.0000000
                135       0.855000   0.0000000   2.1672588

F #2  1  XZ  
                136       3.107000  20.7284714   0.0000000
                137       0.855000   0.0000000   2.1672588

F #2  3  XZ  
                138       3.107000  20.7284714   0.0000000
                139       0.855000   0.0000000   2.1672588

F #2  1  YY  
                140       3.107000  20.7284714   0.0000000
                141       0.855000   0.0000000   2.1672588

F #2  3  YY  
                142       3.107000  20.7284714   0.0000000
                143       0.855000   0.0000000   2.1672588

F #2  1  YZ  
                144       3.107000  20.7284714   0.0000000
                145       0.855000   0.0000000   2.1672588

F #2  3  YZ  
                146       3.107000  20.7284714   0.0000000
                147       0.855000   0.0000000   2.1672588

F #2  1  ZZ  
                148       3.107000  20.7284714   0.0000000
                149       0.855000   0.0000000   2.1672588

F #2  3  ZZ  
                150       3.107000  20.7284714   0.0000000
                151       0.855000   0.0000000   2.1672588

F #2  1  F300
                152       1.917000  24.6547063

F #2  3  F300
                153       1.917000  24.6547063

F #2  1  F210
                154       1.917000  24.6547063

F #2  3  F210
                155       1.917000  24.6547063

F #2  1  F201
                156       1.917000  24.6547063

F #2  3  F201
                157       1.917000  24.6547063

F #2  1  F120
                158       1.917000  24.6547063

F #2  3  F120
                159       1.917000  24.6547063

F #2  1  F111
                160       1.917000  24.6547063

F #2  3  F111
                161       1.917000  24.6547063

F #2  1  F102
                162       1.917000  24.6547063

F #2  3  F102
                163       1.917000  24.6547063

F #2  1  F030
                164       1.917000  24.6547063

F #2  3  F030
                165       1.917000  24.6547063

F #2  1  F021
                166       1.917000  24.6547063

F #2  3  F021
                167       1.917000  24.6547063

F #2  1  F012
                168       1.917000  24.6547063

F #2  3  F012
                169       1.917000  24.6547063

F #2  1  F003
                170       1.917000  24.6547063

F #2  3  F003
                171       1.917000  24.6547063

F #3  1  S   
                172   35479.100441   1.0351657   0.0000000   0.0000000   0.0000000   0.0000000
                173    5318.472898   1.9331170   0.0000000   0.0000000   0.0000000   0.0000000
                174    1210.481098   3.3081679   0.0000000   0.0000000   0.0000000   0.0000000
                175     342.855181   5.1904360   0.0000000   0.0000000   0.0000000   0.0000000
                176     112.019432   7.1453715   0.0000000   0.0000000   0.0000000   0.0000000
                177      40.714740   7.7853598   0.0000000   0.0000000   0.0000000   0.0000000
                178      16.039678   0.0000000   3.6156465   0.0000000   0.0000000   0.0000000
                179       6.503819   0.0000000   1.1649993   0.0000000   0.0000000   0.0000000
                180       1.544048   0.0000000   0.0000000   0.9872011   0.0000000   0.0000000
                181       0.612235   0.0000000   0.0000000   0.0000000   0.4932856   0.0000000
                182       0.240280   0.0000000   0.0000000   0.0000000   0.0000000   0.2445953

F #3  1  X   
                183      80.233900   4.2174078   0.0000000   0.0000000
                184      18.594011   4.7174264   0.0000000   0.0000000
                185       5.686790   4.0849101   0.0000000   0.0000000
                186       1.951101   2.2998974   0.0000000   0.0000000
                187       0.669702   0.0000000   0.8635593   0.0000000
                188       0.216513   0.0000000   0.0000000   0.2105208

F #3  1  Y   
                189      80.233900   4.2174078   0.0000000   0.0000000
                190      18.594011   4.7174264   0.0000000   0.0000000
                191       5.686790   4.0849101   0.0000000   0.0000000
                192       1.951101   2.2998974   0.0000000   0.0000000
                193       0.669702   0.0000000   0.8635593   0.0000000
                194       0.216513   0.0000000   0.0000000   0.2105208

F #3  1  Z   
                195      80.233900   4.2174078   0.0000000   0.0000000
                196      18.594011   4.7174264   0.0000000   0.0000000
                197       5.686790   4.0849101   0.0000000   0.0000000
                198       1.951101   2.2998974   0.0000000   0.0000000
                199       0.669702   0.0000000   0.8635593   0.0000000
                200       0.216513   0.0000000   0.0000000   0.2105208

F #3  1  XX  
                201       3.107000  20.7284714   0.0000000
                202       0.855000   0.0000000   2.1672588

F #3  1  XY  
                203       3.107000  20.7284714   0.0000000
                204       0.855000   0.0000000   2.1672588

F #3  1  XZ  
                205       3.107000  20.7284714   0.0000000
                206       0.855000   0.0000000   2.1672588

F #3  1  YY  
                207       3.107000  20.7284714   0.0000000
                208       0.855000   0.0000000   2.1672588

F #3  1  YZ  
                209       3.107000  20.7284714   0.0000000
                210       0.855000   0.0000000   2.1672588

F #3  1  ZZ  
                211       3.107000  20.7284714   0.0000000
                212       0.855000   0.0000000   2.1672588

F #3  1  F300
                213       1.917000  24.6547063

F #3  1  F210
                214       1.917000  24.6547063

F #3  1  F201
                215       1.917000  24.6547063

F #3  1  F120
                216       1.917000  24.6547063

F #3  1  F111
                217       1.917000  24.6547063

F #3  1  F102
                218       1.917000  24.6547063

F #3  1  F030
                219       1.917000  24.6547063

F #3  1  F021
                220       1.917000  24.6547063

F #3  1  F012
                221       1.917000  24.6547063

F #3  1  F003
                222       1.917000  24.6547063

SYMMETRY TRANSFORMATION INTO 135 SYMMETRY-ADAPTED BASIS FUNCTIONS

    IRREDUCIBLE REPRESENTATION NUMBER 1

    1    1 AL#1 S      1   1.0
    2    2 AL#1 S      2   1.0
    3    3 AL#1 S      3   1.0
    4    4 AL#1 S      4   1.0
    5    5 AL#1 S      5   1.0
    6    6 AL#1 Z     16   1.0
    7    7 AL#1 Z     17   1.0
    8    8 AL#1 Z     18   1.0
    9    9 AL#1 Z     19   1.0
   10   10 AL#1 Z     20   1.0
   11   11 AL#1 XX    21  -1.0  30  -1.0  36   2.0
   12   12 AL#1 XX    22  -1.0  31  -1.0  37   2.0
   13   13 AL#1 XX    23  -1.0  32  -1.0  38   2.0
   14   14 AL#1 YY    21   1.0  30  -1.0
   15   15 AL#1 YY    22   1.0  31  -1.0
   16   16 AL#1 YY    23   1.0  32  -1.0
   17   17 AL#1 ZZ    41  -3.0  46  -3.0  48   2.0
   18   18 AL#1 ZZ    41   1.0  46  -1.0
   19   19 AL#1 ZZ    49   1.0  50   1.0
   20   20 AL#1 F201  51   1.0  52   1.0
   21   21 AL#1 F021  53   1.0  54   1.0
   22   22 AL#1 F003  55   1.0  56   1.0
   23   23 F #2 S     57   1.0  58   1.0
   24   24 F #2 S     65   1.0  66  -1.0
   25   25 F #2 S     67   1.0  68  -1.0
   26   26 F #2 S     69   1.0  70  -1.0
   27   27 F #2 S     71   1.0  72   1.0
   28   28 F #2 Y     73   1.0  74   1.0
   29   29 F #2 Y     75   1.0  76   1.0
   30   30 F #2 Y     77  -1.0  78  -1.0  89  -1.0  90  -1.0  97   2.0  98   2.0
   31   31 F #2 Z     79  -1.0  80  -1.0  91  -1.0  92  -1.0  99   2.0 100   2.0
   32   32 F #2 Z     77   1.0  78   1.0  89  -1.0  90  -1.0
   33   33 F #2 Z     79   1.0  80   1.0  91  -1.0  92  -1.0
   34   34 F #2 XX    93   1.0  94  -1.0
   35   35 F #2 XX    95   1.0  96  -1.0
   36   36 F #2 YY   103  -1.0 104   1.0 113  -1.0 114   1.0 117   4.0 118  -4.0
   37   37 F #2 YY   105  -3.0 106  -3.0 115  -3.0 116  -3.0 119   2.0 120   2.0
   38   38 F #2 YZ   103   3.0 104  -3.0 113  -1.0 114   1.0
   39   39 F #2 YZ   105   1.0 106   1.0 115  -1.0 116  -1.0
   40   40 F #2 ZZ   121   1.0
   41   41 F #2 ZZ   122   1.0
   42   42 F #2 F210 123   1.0
   43   43 F #2 F201 124   1.0
   44   44 F #2 F030 125   1.0
   45   45 F #2 F021 132   1.0
   46   46 F #2 F012 133   1.0
   47   47 F #2 F003 134   1.0
   48   48 F #3 S    135  -1.0 141  -1.0 145   2.0
   49   49 F #3 S    136  -1.0 142  -1.0 146   2.0
   50   50 F #3 S    135   1.0 141  -1.0
   51   51 F #3 S    136   1.0 142  -1.0
   52   52 F #3 S    149  -3.0 154  -3.0 156   2.0
   53   53 F #3 Z    149   1.0 154  -1.0
   54   54 F #3 Z      6   1.0
   55   55 F #3 Z      7   1.0
   56   56 F #3 XX     8   1.0
   57   57 F #3 XX     9   1.0
   58   58 F #3 YY    10   1.0
   59   59 F #3 YY    27   1.0
   60   60 F #3 ZZ    28   1.0
   61   61 F #3 ZZ    29   1.0
   62   62 F #3 F201  39  -1.0  42  -1.0  44   4.0
   63   63 F #3 F021  39   1.0  42  -3.0
   64   64 F #3 F003  59   1.0  60   1.0

    IRREDUCIBLE REPRESENTATION NUMBER 2

   65    1 AL#1 X     61   1.0  62   1.0
   66    2 AL#1 X     63   1.0  64   1.0
   67    3 AL#1 X     81   1.0  82  -1.0
   68    4 AL#1 X     83   1.0  84  -1.0
   69    5 AL#1 X     85   1.0  86   1.0
   70    6 AL#1 XZ    87   1.0  88   1.0
   71    7 AL#1 XZ   101  -1.0 102  -1.0 107  -1.0 108  -1.0 111   4.0 112   4.0
   72    8 AL#1 XZ   101   1.0 102   1.0 107  -3.0 108  -3.0
   73    9 AL#1 F300 109   1.0 110  -1.0
   74   10 AL#1 F120 126   1.0
   75   11 AL#1 F102 127   1.0
   76   12 F #2 X    128   1.0
   77   13 F #2 X    139   1.0
   78   14 F #2 X    140   1.0
   79   15 F #2 XY   147  -1.0 150  -1.0 152   4.0
   80   16 F #2 XY   147   1.0 150  -3.0
   81   17 F #2 XZ    11   1.0
   82   18 F #2 XZ    12   1.0
   83   19 F #2 F300  13   1.0
   84   20 F #2 F120  14   1.0
   85   21 F #2 F111  15   1.0
   86   22 F #2 F102  33   1.0
   87   23 F #3 X     34   1.0
   88   24 F #3 X     35   1.0
   89   25 F #3 X     40  -1.0  45  -1.0  47   4.0
   90   26 F #3 XZ    40   3.0  45  -1.0
   91   27 F #3 XZ    49   1.0  50  -1.0
   92   28 F #3 F300  51   1.0  52  -1.0
   93   29 F #3 F120  53   1.0  54  -1.0
   94   30 F #3 F102  55   1.0  56  -1.0

    IRREDUCIBLE REPRESENTATION NUMBER 3

   95    1 AL#1 Y     57   1.0  58  -1.0
   96    2 AL#1 Y     65   1.0  66   1.0
   97    3 AL#1 Y     67   1.0  68   1.0
   98    4 AL#1 Y     69   1.0  70   1.0
   99    5 AL#1 Y     71   1.0  72  -1.0
  100    6 AL#1 YZ    73   1.0  74  -1.0
  101    7 AL#1 YZ    75   1.0  76  -1.0
  102    8 AL#1 YZ    77  -1.0  78   1.0  89  -1.0  90   1.0  97   2.0  98  -2.0
  103    9 AL#1 F210  79  -1.0  80   1.0  91  -1.0  92   1.0  99   2.0 100  -2.0
  104   10 AL#1 F030  77   1.0  78  -1.0  89  -1.0  90   1.0
  105   11 AL#1 F012  79   1.0  80  -1.0  91  -1.0  92   1.0
  106   12 F #2 S     93   1.0  94   1.0
  107   13 F #2 S     95   1.0  96   1.0
  108   14 F #2 S    103  -1.0 104  -1.0 113  -1.0 114  -1.0 117   4.0 118   4.0
  109   15 F #2 S    105  -3.0 106   3.0 115  -3.0 116   3.0 119   2.0 120  -2.0
  110   16 F #2 S    103   3.0 104   3.0 113  -1.0 114  -1.0
  111   17 F #2 Y    105   1.0 106  -1.0 115  -1.0 116   1.0
  112   18 F #2 Y    129   1.0
  113   19 F #2 Y    130   1.0
  114   20 F #2 Z    131   1.0
  115   21 F #2 Z    143   1.0
  116   22 F #2 Z    144   1.0
  117   23 F #2 XX   148  -1.0 153  -1.0 155   4.0
  118   24 F #2 XX   148   3.0 153  -1.0
  119   25 F #2 YY    24   1.0
  120   26 F #2 YY    25   1.0
  121   27 F #2 YZ    26   1.0
  122   28 F #2 YZ    43   1.0
  123   29 F #2 ZZ    59   1.0  60  -1.0
  124   30 F #2 ZZ    61   1.0  62  -1.0
  125   31 F #2 F210  63   1.0  64  -1.0
  126   32 F #2 F201  81   1.0  82   1.0
  127   33 F #2 F030  83   1.0  84   1.0
  128   34 F #2 F021  85   1.0  86  -1.0
  129   35 F #2 F012  87   1.0  88  -1.0
  130   36 F #2 F003 101  -1.0 102   1.0 107  -1.0 108   1.0 111   4.0 112  -4.0
  131   37 F #3 Y    101   1.0 102  -1.0 107  -3.0 108   3.0
  132   38 F #3 Y    109   1.0 110   1.0
  133   39 F #3 Y    137   1.0
  134   40 F #3 YZ   138   1.0
  135   41 F #3 YZ   151   1.0
  136   42 F #3 F210
  137   43 F #3 F030
  138   44 F #3 F012

    IRREDUCIBLE REPRESENTATION NUMBER 4

  139    1 AL#1 XY  
  140    2 AL#1 XY  
  141    3 AL#1 XY  
  142    4 AL#1 F111
  143    5 F #2 X   
  144    6 F #2 X   
  145    7 F #2 X   
  146    8 F #2 XY  
  147    9 F #2 XY  
  148   10 F #2 XZ  
  149   11 F #2 XZ  
  150   12 F #2 F300
  151   13 F #2 F120
  152   14 F #2 F111
  153   15 F #2 F102
  154   16 F #3 XY  
  155   17 F #3 XY  
  156   18 F #3 F111

NUCLEAR REPULSION ENERGY:  159.2055775140 A.U.

One-electron integrals took 0.030977 seconds

  @TWOEL-I,    1159952 INTEGRALS OF SYMMETRY TYPE  I I I I
  @TWOEL-I,    3714948 INTEGRALS OF SYMMETRY TYPE  I J I J
  @TWOEL-I,    1998651 INTEGRALS OF SYMMETRY TYPE  I I J J
  @TWOEL-I,    2412978 INTEGRALS OF SYMMETRY TYPE  I J K L
  @TWOEL-I, TOTAL NUMBER OF 2-E INTEGRALS    9286529

Two-electron integrals took 11.402810 seconds

Nuclear repulsion energy: 159.205577514032
--executable xvmol finished with status     0 in       11.89 seconds (walltime).
 --invoking executable--
/project1/nike/cfour_v2.00beta_May2019xnmol_noLABBASIS/bin/xvmol2ja
--executable xvmol2ja finished with status     0 in        0.01 seconds (walltime).
 --invoking executable--
/project1/nike/cfour_v2.00beta_May2019xnmol_noLABBASIS/bin/xvscf
  There are  135 functions in the AO basis.

  There are 4 irreducible representations.

       Irrep        # of functions
         1                 53
         2                 27
         3                 38
         4                 17


  Parameters for SCF calculation: 
        SCF reference function: ROHF  
  Maximum number of iterations: ****
     Full symmetry point group: D3h 
     Computational point group: C2v 
        Initial density matrix: CORE                   
     SCF convergence tolerance: 10**(-12)
  DIIS convergence acceleration:  ON
          Latest start for DIIS:   5
                     DIIS order:   6

  Memory information:     866596 words required.
  Fock matrices are constructed from AO integral file.
 @GETMEM-I,  Allocated       6 MB of main memory.
  Initialization and symmetry analysis required      0.002 seconds.

  @INITGES-I, Occupancies from core Hamiltonian:

          Alpha population by irrep:   9    4    6    1
           Beta population by irrep:   9    3    6    1


 total no. of electrons in initial guess :  0.000000000000000E+000
 total no. of electrons in initial guess :  0.000000000000000E+000
  --------------------------------------------------------------------
  Iteration         Total Energy            Largest Density Difference
  --------------------------------------------------------------------
       0           159.205577514031660              0.0000000000D+00
   current occupation vector 
     9  4  6  1
     9  3  6  1
  processed                1159952  ao basis integrals from 
                  1934  buffers.
  processed                1998651  ao basis integrals from 
                  3332  buffers.
  processed                3714948  ao basis integrals from 
                  6192  buffers.
       1          -475.211909385841182              0.1475670178D+01
   current occupation vector 
     9  4  6  1
     9  3  6  1
  processed                1159952  ao basis integrals from 
                  1934  buffers.
  processed                1998651  ao basis integrals from 
                  3332  buffers.
  processed                3714948  ao basis integrals from 
                  6192  buffers.
       2          -466.888091568775849              0.5672865884D+01
   current occupation vector 
    10  3  6  1
    10  2  6  1
  processed                1159952  ao basis integrals from 
                  1934  buffers.
  processed                1998651  ao basis integrals from 
                  3332  buffers.
  processed                3714948  ao basis integrals from 
                  6192  buffers.
       3          -408.630212027211996              0.5672211713D+01
   current occupation vector 
    11  3  5  1
    10  3  5  1
  processed                1159952  ao basis integrals from 
                  1934  buffers.
  processed                1998651  ao basis integrals from 
                  3332  buffers.
  processed                3714948  ao basis integrals from 
                  6192  buffers.
       4          -454.743015167130920              0.3572191643D+01
   current occupation vector 
    10  2  7  1
    10  2  6  1
 
 sum over diagonal and offdiagdiagonal of C(T)*S*C for irrep
                     1
  1.972866314758903E-013 -3.446477353945778E-013
 reorthoganalization of MOs is carried out
 sum over diagonal and offdiagdiagonal of C(T)*S*C for irrep
                     1
  2.109423746787797E-015  1.317076602367476E-015
 
 sum over diagonal and offdiagdiagonal of C(T)*S*C for irrep
                     2
  4.984901380566953E-014  6.303529118843824E-015
 reorthoganalization of MOs is carried out
 sum over diagonal and offdiagdiagonal of C(T)*S*C for irrep
                     2
  1.665334536937735E-015  3.538699987017152E-015
 
 sum over diagonal and offdiagdiagonal of C(T)*S*C for irrep
                     3
 -1.385558334732195E-013 -1.641697867461051E-013
 reorthoganalization of MOs is carried out
 sum over diagonal and offdiagdiagonal of C(T)*S*C for irrep
                     3
  1.332267629550188E-015 -7.143506595385342E-015
 
 sum over diagonal and offdiagdiagonal of C(T)*S*C for irrep
                     4
 -2.442490654175344E-015  1.425145893359453E-014
 reorthoganalization of MOs is carried out
 sum over diagonal and offdiagdiagonal of C(T)*S*C for irrep
                     4
 -8.881784197001252E-016  1.198882810247211E-015
  processed                1159952  ao basis integrals from 
                  1934  buffers.
  processed                1998651  ao basis integrals from 
                  3332  buffers.
  processed                3714948  ao basis integrals from 
                  6192  buffers.
       5          -396.228887889480006              0.3848660887D+01
   current occupation vector 
    11  3  5  1
    10  3  5  1
  processed                1159952  ao basis integrals from 
                  1934  buffers.
  processed                1998651  ao basis integrals from 
                  3332  buffers.
  processed                3714948  ao basis integrals from 
                  6192  buffers.
       6          -433.053609478199746              0.1068266403D+01
   current occupation vector 
    11  3  5  1
    10  3  5  1
  processed                1159952  ao basis integrals from 
                  1934  buffers.
  processed                1998651  ao basis integrals from 
                  3332  buffers.
  processed                3714948  ao basis integrals from 
                  6192  buffers.
       7          -441.728310383589474              0.3808708515D+00
   current occupation vector 
    11  3  5  1
    10  3  5  1
  processed                1159952  ao basis integrals from 
                  1934  buffers.
  processed                1998651  ao basis integrals from 
                  3332  buffers.
  processed                3714948  ao basis integrals from 
                  6192  buffers.
       8          -436.472791560718861              0.2127190224D+00
   current occupation vector 
    11  3  5  1
    10  3  5  1
  processed                1159952  ao basis integrals from 
                  1934  buffers.
  processed                1998651  ao basis integrals from 
                  3332  buffers.
  processed                3714948  ao basis integrals from 
                  6192  buffers.
       9          -471.910225829253932              0.1054931232D+01
   current occupation vector 
    11  3  5  1
    10  3  5  1
 
 sum over diagonal and offdiagdiagonal of C(T)*S*C for irrep
                     1
  1.315614284180811E-013  4.799139991068679E-014
 reorthoganalization of MOs is carried out
 sum over diagonal and offdiagdiagonal of C(T)*S*C for irrep
                     1
 -8.659739592076221E-015 -1.751507315660427E-014
 
 sum over diagonal and offdiagdiagonal of C(T)*S*C for irrep
                     2
  8.548717289613705E-014  1.236556816080097E-014
 reorthoganalization of MOs is carried out
 sum over diagonal and offdiagdiagonal of C(T)*S*C for irrep
                     2
 -1.887379141862766E-015  4.476810055801424E-015
 
 sum over diagonal and offdiagdiagonal of C(T)*S*C for irrep
                     3
  1.539879335155092E-013  4.562971636041589E-014
 reorthoganalization of MOs is carried out
 sum over diagonal and offdiagdiagonal of C(T)*S*C for irrep
                     3
 -1.065814103640150E-014 -3.043630969817439E-015
 
 sum over diagonal and offdiagdiagonal of C(T)*S*C for irrep
                     4
  2.542410726391608E-014 -1.194538059299900E-014
 reorthoganalization of MOs is carried out
 sum over diagonal and offdiagdiagonal of C(T)*S*C for irrep
                     4
 -1.776356839400250E-015 -4.076794959653586E-015
  processed                1159952  ao basis integrals from 
                  1934  buffers.
  processed                1998651  ao basis integrals from 
                  3332  buffers.
  processed                3714948  ao basis integrals from 
                  6192  buffers.
      10          -480.498242303218262              0.2040695408D+00
   current occupation vector 
    11  3  5  1
    10  3  5  1
  processed                1159952  ao basis integrals from 
                  1934  buffers.
  processed                1998651  ao basis integrals from 
                  3332  buffers.
  processed                3714948  ao basis integrals from 
                  6192  buffers.
      11          -461.380427785200254              0.5234838833D+01
   current occupation vector 
    11  2  6  1
    10  2  6  1
  processed                1159952  ao basis integrals from 
                  1934  buffers.
  processed                1998651  ao basis integrals from 
                  3332  buffers.
  processed                3714948  ao basis integrals from 
                  6192  buffers.
      12          -467.112435782908506              0.5299960199D+01
   current occupation vector 
    11  3  5  1
    11  3  4  1
  processed                1159952  ao basis integrals from 
                  1934  buffers.
  processed                1998651  ao basis integrals from 
                  3332  buffers.
  processed                3714948  ao basis integrals from 
                  6192  buffers.
      13          -465.587043525242507              0.3283275185D+00
   current occupation vector 
    11  3  5  1
    10  3  5  1
  processed                1159952  ao basis integrals from 
                  1934  buffers.
  processed                1998651  ao basis integrals from 
                  3332  buffers.
  processed                3714948  ao basis integrals from 
                  6192  buffers.
      14          -465.694465456106514              0.3080423916D+00
   current occupation vector 
    11  3  5  1
    11  3  4  1
 
 sum over diagonal and offdiagdiagonal of C(T)*S*C for irrep
                     1
  3.477218513125990E-013  4.790817738699293E-014
 reorthoganalization of MOs is carried out
 sum over diagonal and offdiagdiagonal of C(T)*S*C for irrep
                     1
  1.265654248072678E-014 -2.321283718351080E-014
 
 sum over diagonal and offdiagdiagonal of C(T)*S*C for irrep
                     2
  1.041389197098397E-013 -6.667826272643189E-015
 reorthoganalization of MOs is carried out
 sum over diagonal and offdiagdiagonal of C(T)*S*C for irrep
                     2
  2.109423746787797E-015  1.287563411507490E-015
 
 sum over diagonal and offdiagdiagonal of C(T)*S*C for irrep
                     3
  2.738920201750261E-013  1.067633907795366E-014
 reorthoganalization of MOs is carried out
 sum over diagonal and offdiagdiagonal of C(T)*S*C for irrep
                     3
 -6.550315845288424E-015  1.259937893173709E-014
 
 sum over diagonal and offdiagdiagonal of C(T)*S*C for irrep
                     4
  7.549516567451064E-015  5.282750733238387E-015
 reorthoganalization of MOs is carried out
 sum over diagonal and offdiagdiagonal of C(T)*S*C for irrep
                     4
  0.000000000000000E+000  3.580240979036845E-016
  processed                1159952  ao basis integrals from 
                  1934  buffers.
  processed                1998651  ao basis integrals from 
                  3332  buffers.
  processed                3714948  ao basis integrals from 
                  6192  buffers.
      15          -460.305526919831095              0.7765384539D-01
   current occupation vector 
    11  3  5  1
    11  3  4  1
  processed                1159952  ao basis integrals from 
                  1934  buffers.
  processed                1998651  ao basis integrals from 
                  3332  buffers.
  processed                3714948  ao basis integrals from 
                  6192  buffers.
      16          -458.997559619661615              0.1837379548D-01
   current occupation vector 
    11  3  5  1
    11  3  4  1
  processed                1159952  ao basis integrals from 
                  1934  buffers.
  processed                1998651  ao basis integrals from 
                  3332  buffers.
  processed                3714948  ao basis integrals from 
                  6192  buffers.
      17          -457.794195712047099              0.3939729185D-01
   current occupation vector 
    11  3  5  1
    11  3  4  1
  processed                1159952  ao basis integrals from 
                  1934  buffers.
  processed                1998651  ao basis integrals from 
                  3332  buffers.
  processed                3714948  ao basis integrals from 
                  6192  buffers.
      18          -471.864853022465013              0.5230160846D+01
   current occupation vector 
    11  2  6  1
    10  2  6  1
  processed                1159952  ao basis integrals from 
                  1934  buffers.
  processed                1998651  ao basis integrals from 
                  3332  buffers.
  processed                3714948  ao basis integrals from 
                  6192  buffers.
      19          -489.413177324616754              0.4725780676D+01
   current occupation vector 
    11  3  5  1
    10  3  5  1
 
 sum over diagonal and offdiagdiagonal of C(T)*S*C for irrep
                     1
  1.403321903126198E-013  2.894303398732645E-014
 reorthoganalization of MOs is carried out
 sum over diagonal and offdiagdiagonal of C(T)*S*C for irrep
                     1
 -1.776356839400250E-015 -5.561379057289375E-014
 
 sum over diagonal and offdiagdiagonal of C(T)*S*C for irrep
                     2
  1.073585664812526E-013 -4.841397303191323E-014
 reorthoganalization of MOs is carried out
 sum over diagonal and offdiagdiagonal of C(T)*S*C for irrep
                     2
 -2.220446049250313E-016 -5.276825152962112E-016
 
 sum over diagonal and offdiagdiagonal of C(T)*S*C for irrep
                     3
 -1.034727858950646E-013 -1.533306041407668E-013
 reorthoganalization of MOs is carried out
 sum over diagonal and offdiagdiagonal of C(T)*S*C for irrep
                     3
[...]
[  9   5  16  79]-0.02648 [  9   5  15  79]-0.02590 [ 10   5  17  79] 0.02481
-----------------------------------------------------------------------------
   Norm of T2AB vector (   450183 symmetry allowed elements):  0.3809286606.
-----------------------------------------------------------------------------
  W(mnij) AA contribution =  0.0103567030 a.u.
  W(mnij) BB contribution =  0.0161009365 a.u.
  W(mnij) AB contribution =  0.1123337133 a.u.
  W(abef) AA contribution =  0.0114481477 a.u.
  W(abef) BB contribution =  0.0169171058 a.u.
  W(abef) AB contribution =  0.1230304287 a.u.
  W(mbej) AA contribution =  -0.0150767084 a.u.
  W(mbej) BB contribution =  -0.0271202950 a.u.
  W(mbej) AB contribution = -0.2936176466 a.u.
   After  41 iterations, amplitude changes are:
    -------------------------------------------------------------------
                 Spin      RMS          Max.      Max. change for
     Amplitude   Case     Change       Change       i    j    a    b
    -------------------------------------------------------------------
        T1        AA    0.0000000000 0.0000000001    3        13
        T1        BB    0.0000000000 0.0000000014    9        79
        T2        AA    0.0000000000 0.0000000000    7    5   58   13
        T2        BB    0.0000000000-0.0000000001   11    5   79   55
        T2        AB    0.0000000000-0.0000000001   12    3   56   79
    -------------------------------------------------------------------
   The AA contribution to the correlation energy is:   -0.0980701 a.u.
   The BB contribution to the correlation energy is:   -0.1061614 a.u.
   The AB contribution to the correlation energy is:   -0.6257313 a.u.
   The total correlation energy is -0.829962798099 a.u.
   The total correlation energy is -0.829962798099 a.u.
  Current DIIS expansion coefficients : 
 [   1] 2.9354169711 [   2] 0.2505541904 [   3] 0.2113197839 [   4]-0.7843547030
 [   5]-1.6129362424
  Convergence information after    41 iterations: 
  Largest element of residual vector :  0.13509100E-08.
  Largest element of DIIS residual   :  0.82814292E-09.
  W(mnij) AA contribution =  0.0103567030 a.u.
  W(mnij) BB contribution =  0.0161009365 a.u.
  W(mnij) AB contribution =  0.1123337133 a.u.
  W(abef) AA contribution =  0.0114481477 a.u.
  W(abef) BB contribution =  0.0169171057 a.u.
  W(abef) AB contribution =  0.1230304287 a.u.
  W(mbej) AA contribution =  -0.0150767084 a.u.
  W(mbej) BB contribution =  -0.0271202949 a.u.
  W(mbej) AB contribution = -0.2936176465 a.u.
   After  42 iterations, amplitude changes are:
    -------------------------------------------------------------------
                 Spin      RMS          Max.      Max. change for
     Amplitude   Case     Change       Change       i    j    a    b
    -------------------------------------------------------------------
        T1        AA    0.0000000000-0.0000000001    5        13
        T1        BB    0.0000000000 0.0000000007    9        79
        T2        AA    0.0000000000 0.0000000000   11    5   80   13
        T2        BB    0.0000000000-0.0000000001   11    5   79   55
        T2        AB    0.0000000000-0.0000000001    7   10   56   79
    -------------------------------------------------------------------
   The AA contribution to the correlation energy is:   -0.0980701 a.u.
   The BB contribution to the correlation energy is:   -0.1061614 a.u.
   The AB contribution to the correlation energy is:   -0.6257313 a.u.
   The total correlation energy is -0.829962798084 a.u.
   The total correlation energy is -0.829962798084 a.u.
  Current DIIS expansion coefficients : 
 [   1] 0.5247740966 [   2] 1.4609019071 [   3] 0.2294128668 [   4]-0.0313755411
 [   5]-1.1837133293
  Convergence information after    42 iterations: 
  Largest element of residual vector :  0.73006771E-09.
  Largest element of DIIS residual   :  0.22683863E-09.
  Amplitude equations converged in    42iterations.
   The AA contribution to the correlation energy is:   -0.0980701 a.u.
   The BB contribution to the correlation energy is:   -0.1061614 a.u.
   The AB contribution to the correlation energy is:   -0.6257313 a.u.
   The total correlation energy is -0.829962798134 a.u.
   The total correlation energy is -0.829962798134 a.u.
   The CC iterations have converged.

            ----------------------------------------------
                     Projected spin multiplicities: 
            ----------------------------------------------
             <0|S^2|0>                  =    0.7500000000.
             <0|S^2 (T2+T1**2) |0>      =    0.0000000000.
             <0|S^2 T1|0>               =    0.0000000292.
             Projected <0|S^2 exp(T)|0> =    0.7500000292.
             Approximate spin mult.     =    2.0000000292.
            ----------------------------------------------
   Largest T1 amplitudes for spin case AA:
   i       a                 i       a                 i       a    
-----------------------------------------------------------------------------
[  6      56    ] 0.03084 [  4      13    ] 0.02641 [  4      16    ] 0.02539
[  4      14    ]-0.01928 [  3      14    ] 0.01686 [  4      23    ]-0.01659
[  7      56    ] 0.01646 [  3      13    ] 0.01450 [  4      15    ] 0.01413
[  3      17    ] 0.01310 [  6      57    ] 0.01213 [  4      22    ]-0.01178
[ 12     112    ] 0.01172 [  7      58    ] 0.01153 [  4      35    ] 0.01116
-----------------------------------------------------------------------------
   Norm of T1AA vector (      407 symmetry allowed elements):  0.0810617717.
-----------------------------------------------------------------------------
   Largest T2 amplitudes for spin case AA:
   i   j   a   b             i   j   a   b             i   j   a   b
-----------------------------------------------------------------------------
[  7   5  61  26] 0.00947 [ 11   7  81  61] 0.00914 [ 11   7 117  30]-0.00874
[  7   5  58  26]-0.00822 [  7   5  61  17] 0.00795 [ 11   5  81  26]-0.00778
[  7   5  67  33] 0.00731 [ 11   7  81  58]-0.00731 [ 11   7 117  31]-0.00729
[ 11   7  80  61] 0.00728 [  7   5  58  17]-0.00695 [ 11   7  81  56]-0.00692
[ 11   7  86  61]-0.00685 [  7   5  56  26]-0.00683 [  7   5  61  20]-0.00680
-----------------------------------------------------------------------------
   Norm of T2AA vector (   109779 symmetry allowed elements):  0.1217116172.
-----------------------------------------------------------------------------
   Largest T1 amplitudes for spin case BB:
   i       a                 i       a                 i       a    
-----------------------------------------------------------------------------
[ 10      79    ]-0.29597 [  9      79    ] 0.09130 [  6      55    ] 0.03995
[  5      13    ] 0.03946 [  5      16    ] 0.03003 [  3      12    ] 0.02749
[  5      12    ]-0.02296 [  5      15    ]-0.02214 [ 11     112    ] 0.01825
[ 10      80    ] 0.01781 [  9      81    ] 0.01741 [ 10      81    ] 0.01714
[  7      55    ] 0.01659 [  6      56    ] 0.01612 [  3      15    ] 0.01354
-----------------------------------------------------------------------------
   Norm of T1BB vector (      378 symmetry allowed elements):  0.3260638015.
-----------------------------------------------------------------------------
   Largest T2 amplitudes for spin case BB:
   i   j   a   b             i   j   a   b             i   j   a   b
-----------------------------------------------------------------------------
[ 11   5  79  55] 0.04612 [  9   5  79  12] 0.03884 [  9   5  79  15] 0.02958
[ 10   5  79  12]-0.02624 [  6   5 112  79]-0.02522 [  6   5 114  79] 0.02447
[ 11   5  79  59]-0.02387 [  9   5  79  14] 0.02298 [ 11   5  79  56] 0.02066
[ 10   7  79  60]-0.01878 [ 10   4  79  12] 0.01877 [ 10   7  79  55] 0.01869
[ 10   5  79  15]-0.01842 [ 10   7  79  57] 0.01715 [  5   3  88  79] 0.01686
-----------------------------------------------------------------------------
   Norm of T2BB vector (    92789 symmetry allowed elements):  0.1743855076.
-----------------------------------------------------------------------------
   Largest T2 amplitudes for spin case AB:
       _       _                 _       _                 _       _
   i   j   a   b             i   j   a   b             i   j   a   b
-----------------------------------------------------------------------------
[ 10   5  14  79] 0.05193 [ 12   5  56  79]-0.05143 [  9   5  13  79]-0.04279
[ 10   5  16  79]-0.04181 [  6   5 112  79]-0.02953 [  6   5 114  79] 0.02906
[  4   5  81  79]-0.02904 [ 10   5  13  79]-0.02843 [ 11  10  81  79] 0.02826
[ 12   5  60  79] 0.02780 [  4   5  84  79]-0.02689 [  7   7  61  60]-0.02687
[  9   5  16  79]-0.02648 [  9   5  15  79]-0.02590 [ 10   5  17  79] 0.02481
-----------------------------------------------------------------------------
   Norm of T2AB vector (   450183 symmetry allowed elements):  0.3809286608.
-----------------------------------------------------------------------------
       Summary of iterative solution of CC equations 
      -----------------------------------------------------------
                       Correlation           Total
       Iteration         Energy              Energy
      -----------------------------------------------------------
            0        -0.840156857377    -540.879021383914  DIIS 
            1        -0.800928687036    -540.839793213573  DIIS 
            2        -0.829822062047    -540.868686588584  DIIS 
            3        -0.825409787937    -540.864274314474  DIIS 
            4        -0.826215360677    -540.865079887214  DIIS 
            5        -0.827964667077    -540.866829193614  DIIS 
            6        -0.828129823699    -540.866994350235  DIIS 
            7        -0.828568845844    -540.867433372381  DIIS 
            8        -0.829388369486    -540.868252896023  DIIS 
            9        -0.829641481579    -540.868506008115  DIIS 
           10        -0.829803664578    -540.868668191114  DIIS 
           11        -0.829820899195    -540.868685425731  DIIS 
           12        -0.829895281859    -540.868759808396  DIIS 
           13        -0.829944898296    -540.868809424833  DIIS 
           14        -0.829966595225    -540.868831121762  DIIS 
           15        -0.829960638277    -540.868825164814  DIIS 
           16        -0.829962198289    -540.868826724826  DIIS 
           17        -0.829959903181    -540.868824429717  DIIS 
           18        -0.829959909342    -540.868824435878  DIIS 
           19        -0.829960244937    -540.868824771474  DIIS 
           20        -0.829960438635    -540.868824965172  DIIS 
           21        -0.829961009511    -540.868825536048  DIIS 
           22        -0.829961851414    -540.868826377951  DIIS 
           23        -0.829962713791    -540.868827240327  DIIS 
           24        -0.829962684194    -540.868827210730  DIIS 
           25        -0.829962759562    -540.868827286099  DIIS 
           26        -0.829962774145    -540.868827300682  DIIS 
           27        -0.829962773171    -540.868827299708  DIIS 
           28        -0.829962779945    -540.868827306482  DIIS 
           29        -0.829962786867    -540.868827313404  DIIS 
           30        -0.829962790612    -540.868827317148  DIIS 
           31        -0.829962793713    -540.868827320249  DIIS 
           32        -0.829962794883    -540.868827321420  DIIS 
           33        -0.829962795747    -540.868827322284  DIIS 
           34        -0.829962796139    -540.868827322676  DIIS 
           35        -0.829962796712    -540.868827323249  DIIS 
           36        -0.829962796992    -540.868827323529  DIIS 
           37        -0.829962797236    -540.868827323773  DIIS 
           38        -0.829962798199    -540.868827324736  DIIS 
           39        -0.829962797908    -540.868827324445  DIIS 
           40        -0.829962798076    -540.868827324613  DIIS 
           41        -0.829962798099    -540.868827324636  DIIS 
           42        -0.829962798134    -540.868827324671  DIIS 
      -----------------------------------------------------------
      A miracle has come to pass. The CC iterations have converged.
 @DIMT3-I, Dimensions of T3 amplitudes : 
               # abc          # ijk       Symmetry    Spin 
                    62985             53     1          1
                    60496             52     2          1
                    63040             58     3          1
                    60384             57     4          1
                   195617            192     1          2
                   185680            165     2          2
                   194563            201     3          2
                   184520            168     4          2
                   197377            175     1          3
                   187136            154     2          3
                   196473            176     3          3
                   186064            155     4          3
                    64745             36     1          4
                    61952             41     2          4
                    64835             44     3          4
                    61928             44     4          4
 @DIMT3-I, Dimensions of T3 amplitudes : 
               # abc          # ijk       Symmetry    Spin 
                    62985             53     1          1
                    60496             52     2          1
                    63040             58     3          1
                    60384             57     4          1
                   195617            192     1          2
                   185680            165     2          2
                   194563            201     3          2
                   184520            168     4          2
                   197377            175     1          3
                   187136            154     2          3
                   196473            176     3          3
                   186064            155     4          3
                    64745             36     1          4
                    61952             41     2          4
                    64835             44     3          4
                    61928             44     4          4
 @TRPS-I, Welcome to TRPS. Watch your RUs ! 
 @TRPS-I, Method is CCSD(T) 
 @TRPS-I, Calculation type is energy 
 @TRPS-I, Reference function information : 
          Reference function is general non-HF 
 @TRPS-I, Reference function is ROHF 
 @TRPS-I, INT1 is true 
 @TRPS-I, INT2 is false 
 @TRPS-I, Lengths of ijka integrals. #1      23362
                                     #2      17844
                                     #3      43143
                                     #4      47610
                                    Max      47610
 @INITRP-I, Initializing W intermediate lists. 
 @TSPABCI-I, AbIc/AbcI record transposition. 
 @TSPABCI-I, (O,v) ---> (v,O) transposition. 
 @TSPABCI-I, In-core algorithm is being used. 
 @TSPABCI-I, In-core algorithm is being used. 
 @TSPABCI-I, In-core algorithm is being used. 
 @TSPABCI-I, In-core algorithm is being used. 
 @TRPS-I, Available memory in integer words    499959040
          Number of pre-allocated words for TRPS14       143087
          Number of free words for TRPS14    499815953
 @TRPS14-I, Spin case AAA 
 @TRPS14-I, Number of free integer words  499815953
            Number of free double words   499815953
            Ratio                                 1
 @TRPS14-I, E4TAAA      -0.000505303845
 @TRPS14-I, E5ST A    0.000034171696810
 @TRPS14-I, E4ST A   -0.000008654341915
 @TRPS-I, Available memory in integer words    499959040
          Number of pre-allocated words for TRPS14       143076
          Number of free words for TRPS14    499815964
 @TRPS14-I, Spin case BBB 
 @TRPS14-I, Number of free integer words  499815964
            Number of free double words   499815964
            Ratio                                 1
 @TRPS14-I, E4TBBB      -0.001698357601
 @TRPS14-I, E5ST B    0.000338071293895
 @TRPS14-I, E4ST B    0.000020653323311
 @SETOOOV-I, Some OOOV lists are being transposed. 
 @TRPS-I, Available memory in integer words    499959040
          Number of pre-allocated words for TRPS2       192375
          Number of free words for TRPS2    499766665
 @TRPS2-I, Spin case AAB 
 @TRPS2-I, Number of free integer words  499766665
           Number of free double  words  499766665
           Ratio                                 1
 @TRPS2-I, E4TBAA      -0.014705281917
 @TRPS2-I, E5ST A    0.000396416841840
 @TRPS2-I, E5ST B    0.001781381945191
 @TRPS2-I, E4ST A   -0.000107320714159
 @TRPS2-I, E4ST B    0.000023568552559
 @SETOOOV-I, Some OOOV lists are being transposed. 
 @TSPABCI2-I, (Alpha,Beta) ---> (Beta,Alpha). 
 @TSPABCI2-I, In-core algorithm is being used. 
 @TSPABCI2-I, In-core algorithm is being used. 
 @TSPABCI2-I, In-core algorithm is being used. 
 @TSPABCI2-I, In-core algorithm is being used. 
 @TSPABCI2-I, In-core algorithm is being used. 
 @TSPABCI2-I, In-core algorithm is being used. 
 @TSPABCI2-I, In-core algorithm is being used. 
 @TSPABCI2-I, In-core algorithm is being used. 
 @AT2IAB-I, Some AbIj lists are being altered. 
 @TRPS-I, Available memory in integer words    499959040
          Number of pre-allocated words for TRPS3       764459
          Number of free words for TRPS3    499194581
 @TRPS3-I, Spin case BBA 
 @TRPS3-I, Number of free integer words  499194581
           Number of free double  words  499194581
           Ratio                                 1
 @TRPS3-I, E4TBBA      -0.017796112833
 @TRPS3-I, E5ST A    0.000628509548706
 @TRPS3-I, E5ST B    0.004717148048232
 @TRPS3-I, E4ST A   -0.000173609426834
 @TRPS3-I, E4ST B    0.000105971302402
 @TSPABCI2-I, (Beta,Alpha) ---> (Alpha,Beta). 
 @TSPABCI2-I, In-core algorithm is being used. 
 @TSPABCI2-I, In-core algorithm is being used. 
 @TSPABCI2-I, In-core algorithm is being used. 
 @TSPABCI2-I, In-core algorithm is being used. 
 @TSPABCI2-I, In-core algorithm is being used. 
 @TSPABCI2-I, In-core algorithm is being used. 
 @TSPABCI2-I, In-core algorithm is being used. 
 @TSPABCI2-I, In-core algorithm is being used. 
 @AT2IAB-I, Some AbIj lists are being altered. 
 @TSPABCI-I, AbIc/AbcI record transposition. 
 @TSPABCI-I, (v,O) ---> (O,v) transposition. 
 @TSPABCI-I, In-core algorithm is being used. 
 @TSPABCI-I, In-core algorithm is being used. 
 @TSPABCI-I, In-core algorithm is being used. 
 @TSPABCI-I, In-core algorithm is being used. 
 @CCENRG-I, CCSD/QCISD energy will now be evaluated. 
 @CCENRG-I, Correlation energies. ECCAA       -0.098070141025
                                  ECCBB       -0.106161356538
                                  ECCAB       -0.625731300571
                                  Total       -0.829962798134
 @CCENRG-I, Reference   energy    -540.038864526537
            CCSD/QCISD energy     -540.868827324671
          E4T (T(CCSD)) = -0.034705056197
          E5ST          =  0.005345657597
          E4ST          = -0.000067638124
          In other words  
          <T3[2](Dagger) D3  T3[2]> = -0.034705056197
          <T1   (Dagger) Q1 WT3[2]> =  0.005345657597
          <T2   (Dagger) Q2 FT3[2]> = -0.000067638124
        E(CCSD)           =    -540.868827324671
        E(CCSD(T))        =    -540.898254361396
  @CHECKOUT-I, Total execution time (CPU/WALL):      310.02/     763.61 seconds.
--executable xvcc finished with status     0 in      768.44 seconds (walltime).
  The final electronic energy is      -540.898254361395516 a.u. 
  This computation required                          830.18 seconds (walltime).
--- SharcNET Job Epilogue ---
Job completed successfully.
               jobid: 1968166
               resid: 3436292
         exit status: 0
      allocated time: 832.345
           user time: 312.82
         system time: 31.17
peak rss=1421434880; peak vsz=1421434880 (bytes)
atime=832.345; utime=312.82; stime=31.17; exit=0
