 --invoking executable--
/home/nike/cfour_v2.00beta/bin/xjoda


   *************************************************************************
         <<<     CCCCCC     CCCCCC   |||     CCCCCC     CCCCCC   >>>
       <<<      CCC        CCC       |||    CCC        CCC         >>>
      <<<      CCC        CCC        |||   CCC        CCC            >>>
    <<<        CCC        CCC        |||   CCC        CCC              >>>
      <<<      CCC        CCC        |||   CCC        CCC            >>>
       <<<      CCC        CCC       |||    CCC        CCC         >>>
         <<<     CCCCCC     CCCCCC   |||     CCCCCC     CCCCCC   >>>
   *************************************************************************

     ****************************************************************
     * CFOUR Coupled-Cluster techniques for Computational Chemistry *
     ****************************************************************
 

   Department of Chemistry                Institut fuer Physikalische Chemie
   University of Texas at Austin          Universitaet Mainz
   Austin, TX  78712, USA                 D-55099 Mainz, Germany
 
                       Version 2.00beta
 
                     wob102                                            
                     Fri Jul  6 01:02:43 EDT 2018                      
                     integer*8 version is running
 
********************************************************************************
*                          Input from ZMAT file                                *
********************************************************************************
TITLE                                                                           
N                                                                               
                                                                                
*ACES2(CALC=CCSD                                                                
FROZEN_CORE=ON                                                                  
#DROPMO=1                                                                       
INPUT_MRCC=OFF                                                                  
CC_PROG=MRCC                                                                    
XFORM_TOL=18                                                                    
SAVE_INTS=ON                                                                    
SCF_EXPORDER=6                                                                  
SCF_EXPSTART=5                                                                  
#SCF_DAMPING=1000                                                               
SCF_EXTRAPOLATION=ON                                                            
SCF_CONV=10                                                                     
SCF_MAXCYC=9999                                                                 
CC_CONV=10                                                                      
CC_MAXCYC=999                                                                   
T3_EXTRAPOL=ON                                                                  
REFERENCE=ROHF                                                                  
CHARGE=+0                                                                       
MULT=4                                                                          
ABCDTYPE=STANDARD                                                               
OCCUPATION=2-1-1-0-1-0-0-0/2-0-0-0-0-0-0-0                                      
MEM=20                                                                          
MEM_UNIT=GB                                                                     
BASIS=SPECIAL)                                                                  
                                                                                
N:aVTZ-EMSL                                                                     
                                                                                
********************************************************************************
  @GTFLGS-W, Keyword #DROPMO not known and is ignored.
  @GTFLGS-W, Keyword #SCF_DAMPING not known and is ignored.
    -------------------------------------------------------------------
                    CFOUR Control Parameters 
    -------------------------------------------------------------------
        External           Internal           Value            Units
          Name               Name
    -------------------------------------------------------------------
       ABCDTYPE             IABCDT         STANDARD     [  0]   ***   
       ANHARMONIC           IANHAR         OFF          [  0]   ***   
       ANH_ALGORIT          IANALG         STANDARD     [  0]   ***   
       ANH_DERIVAT          IANDER         SECOND       [  1]   ***   
       ANH_STEPSIZ          ICUBST             50000          x 10-6  
       ANH_SYMMETR          IANHSM         ABELIAN      [  0]   ***   
       AO_LADDERS           IAOLAD         SINGLEPASS   [  1]   ***   
       BASIS                IBASIS         SPECIAL      [  0]   ***   
       BREIT                IBREIT         OFF          [  0]   ***   
       BRUCK_CONV           IBRTOL          10D-  4             ***   
       BRUECKNER            IBRKNR             OFF      [  0]   ***   
       BUFFERSIZE           IBUFFS            600               ***   
       CACHE_RECS           ICHREC             10               ***   
       CALCLEVEL            ICLLVL           CCSD       [ 10]   ***   
       CCORBOPT             ICCORB             OFF      [  0] x 0.01  
       CC_CONV              ICCCNV          10D- 10             ***   
       CC_EXPORDER          ICCEOR              5               ***   
       CC_EXTRAPOL          ICCEXT             DIIS     [  1]   ***   
       CC_MAXCYC            ICCCYC            999              cycles 
       CC_PROGRAM           ICCPRO         MRCC         [  2]   ***   
       CHARGE               ICHRGE              0               ***   
       CHOLESKY             ICHOLE         OFF          [  0]   ***   
       CIS_CONV             ICISTL              5               ***   
       COMM_SIZE            IPSIZE            ***               ***   
       CONSTANT             ICONST         OLD          [  1]   ***   
       CONTINUUM            ICONTU         NONE         [  0]   ***   
       CONTRACTION          ICNTYP          GENERAL     [  1]   ***   
       COORDINATES          ICOORD         INTERNAL     [  0]   ***   
       CPHF_CONVER          ICPHFT          10D- 16             ***   
       CPHF_MAXCYC          ICPHFC             64              cycles 
       CUBIC                ICUBIC         OFF          [  0]   ***   
       CURVILINEAR          ICURVY            OFF       [  0]   ***   
       DBOC                 IDBOC          OFF          [  0]   ***   
       DCT                  IDCT           OFF          [  0]   ***   
       DERIV_LEV            IDRLVL            ZERO      [  0]   ***   
       DIAG_MRCC            IEOMST          10D-  0             ***   
       DIFF_TYPE            IDIFTY         RELAXED      [  0]   ***   
       DIRECT               IDIRCT         OFF          [  0]   ***   
       DROPMO               IDRPMO      NONE         
       ECP                  IECP           OFF          [  0]   ***   
       EIGENVECTOR          IVEC                1               ***   
       EL_ANHARM            IELANH         OFF          [  0]   ***   
       EOMFOLLOW            IEOMSR         ENERGY       [  0]   ***   
       EOM_MRCC             IMRCCE         NEW          [  1]   ***   
       EOM_NONIT            EOMNON         OFF          [  0]   ***   
       EOM_NSING            IEOMSI          10D-  0             ***   
       EOM_NSTATES          IMRCCD         DAVIDSON     [  0]   ***   
       EOM_NTRIP            IEOMTR          10D-  0             ***   
       EOM_ORDER            IEXORD         ENERGY       [  0]   ***   
       ESTATE_CONV          IEXTOL          10D-  5             ***   
       ESTATE_DIAG          IEXDIG         ITERATIVE    [  0]   ***   
       ESTATE_LOCK          IESLOC         ON           [  1]   ***   
       ESTATE_MAXC          IEXMXC             20               ***   
       ESTATE_PROP          IEXPRP         OFF          [  0]   ***   
       EVAL_HESS            IRECAL              0            # of cyc.
       EXCITATION           IEXCIT              0               ***   
       EXCITE               IEXCIT         NONE         [  0]   ***   
       FCGRADNEW            IFCGNW         OFF          [  0]   ***   
       FC_FIELD             IFINFC              0             x 10-6  
       FD_CALTYPE           IFDCAL         GRADONLY     [  0]   ***   
       FD_PROJECT           IFDPRJ         OFF          [  1]   ***   
       FD_STEPSIZE          IDISFD              0            10-4 bohr
       FD_USEGROUP          IFDGRP         FULL         [  0]   ***   
       FILE_RECSIZ          IFLREC              4096           words  
       FINITE_PERT          IFIPER              0             x 10-6  
       FIXGEOM              IFIXGM         OFF          [  0]   ***   
       FOCK                 IFOCK          AO           [  1]   ***   
       FREQ_ALGORI          IVIALG         STANDARD     [  0]   ***   
       FROZEN_CORE          IFROCO         ON           [  1]   ***   
       FROZEN_VIRT          IFROVI         OFF          [  0]   ***   
       GAMMA_ABCD           IGABCD         STORE        [  0]   ***   
       GAMMA_ABCI           IGABCI         STORE        [  0]   ***   
       GENBAS_1             IGNBS1              0               ***   
       GENBAS_2             IGNBS2              0               ***   
       GENBAS_3             IGNBS3              0               ***   
       GENBAS_4             IGNBS4              0               ***   
       GEO_CONV             ICONTL              5              H/bohr 
       GEO_MAXCYC           IOPTCY             50               ***   
       GEO_MAXSTEP          IMXSTP            300            millibohr
       GEO_METHOD           INR            SINGLE_POINT [  5]   ***   
       GIAO                 IGIAO          OFF          [  1]   ***   
       GIMIC                IGIMIC         OFF          [  0]   ***   
       GRID                 IGRID          OFF          [  0]   ***   
       GRID_ALGO            IGALGO         SERIAL       [  0]   ***   
       GUESS                IGUESS            MOREAD    [  0]   ***   
       HBAR                 IHBAR              OFF      [  0]   ***   
       HESS_TYPE            IHESTP         SCF          [  0]   ***   
       HF2_FILE             IHF2Fl         USE          [  1]   ***   
       HFSTABILITY          ISTABL         OFF          [  0]   ***   
       INCORE               INCORE             OFF      [  0]   ***   
       INPUT_MRCC           IMRCC          OFF          [  0]   ***   
       INTEGRALS            INTTYP             VMOL     [  1]   ***   
       JODA_PRINT           IJPRNT              0               ***   
       LINDEP_TOL           ILINDP              8               ***   
       LINEQ_CONV           IZTACN          10D-  7           cycles  
       LINEQ_EXPOR          ILMAXD              5               ***   
       LINEQ_MAXCY          ILMAXC             50               ***   
       LINEQ_TYPE           ILTYPE         DIIS         [  1]   ***   
       LOCK_ORBOCC          ILOCOC             OFF      [  0]   ***   
       MEMORY_SIZE          IMEMSZ         *********           words  
       MEM_UNIT             IMEMU          GB           [  3]   ***   
       MRCC                 IMRCCC         OFF          [  0]   ***   
       MULTIPLICTY          IMULTP              4               ***   
       NEGEVAL              IDIE             ABORT      [  0]   ***   
       NEWNORM              INEWNO         OFF          [  0]   ***   
       NON-HF               INONHF              ON      [  1]   ***   
       NTOP_TAMP            ITOPT2             15               ***   
       NUC_MODEL            INUCMO         POINT        [  0]   ***   
       OCCUPATION           IOCCU  A   2,  1,  1,  0,  1,  0,  0,  0,
                                   B   2,  0,  0,  0,  0,  0,  0,  0,
       OPEN-SHELL           IOPEN          SPIN-ORBITAL [  0]   ***   
       ORBITALS             IORBTP         SEMICANONICAL[  1]   ***   
       PARALLEL             IPARAL         ON           [  1]   ***   
       PARA_INT             IPINTS         ON           [  1]   ***   
       PARA_PRINT           IPPRIN              0               ***   
       PERT_ORB             IPTORB         STANDARD     [  0]   ***   
       POINTS               IGRDFD              0               ***   
       PRINT                IPRNT               0               ***   
       PROPS                IPROPS             OFF      [  0]   ***   
       PROP_INTEGR          IINTYP         INTERNAL     [  0]   ***   
       PSI                  IPSI           OFF          [  0]   ***   
       QUARTIC              IQUART         OFF          [  0]   ***   
       RAMAN_INT            IRAMIN         OFF          [  0]   ***   
       RAMAN_ORB            IRAMRE         UNRELAXED    [  0]   ***   
       RDO                  IRDOFM             OFF      [  0]   ***   
       REFERENCE            IREFNC             ROHF     [  2]   ***   
       RELATIVIST           IRELAT         OFF          [  0]   ***   
       RELAX_DENS           IRDENS             OFF      [  0]   ***   
       RESET_FLAGS          IRESET             OFF      [  0]   ***   
       RESTART_CC           ICCRES         OFF          [  0]   ***   
       ROT_EVEC             ROTVEC              0               ***   
       SAVE_INTS            ISVINT              ON      [  1]   ***   
       SCALE_ON             ISTCRT              0               ***   
       SCF_CONV             ISCFCV          10D- 10             ***   
       SCF_DAMPING          IDAMP               0             x 10-3  
       SCF_EXPORDE          IRPPOR              6               ***   
       SCF_EXPSTAR          IRPPLS              5               ***   
       SCF_EXTRAPO          IRPP                ON      [  1]   ***   
       SCF_MAXCYC           ISCFCY            ***              cycles 
       SCF_NOSTOP           ISCFST         OFF          [  0]   ***   
       SCF_PRINT            ISCFPR              0               ***   
       SD_FIELD             IFINSD              0             x 10-6  
       SEQUENCE             ISEQUE         OFF          [  0]   ***   
       SOPERT               IPERSO         OFF          [  0]   ***   
       SPHERICAL            IDFGHI             ON       [  1]   ***   
       SPINORBIT            ISOCAL         OFF          [  0]   ***   
       SPINROTATIO          ISRCON         OFF          [  0]   ***   
       SPIN_FLIP            ISPFLP         OFF          [  0]   ***   
       SPIN_ORBIT           ISPORB         OFF          [  0]   ***   
       SPIN_SCAL            ISCSMP         OFF          [  0]   ***   
       SUBGROUP             ISUBGP         DEFAULT      [  0]   ***   
       SUBGRPAXIS           ISBXYZ         X            [  0]   ***   
       SYMMETRY             ISYM             ON         [  0]   ***   
       SYM_CHECK            ISYMCK         OVERRIDE     [  1]   ***   
       T3_EXTRAPOL          IT3EXT         ON           [  1]   ***   
       TAMP_SUM             IEVERY              5               ***   
       TESTSUITE            ITESTS         OFF          [  0]   ***   
       THERMOCH             ITHERM         OFF          [  0]   ***   
       TOL_CHOLESK          ITOLCH          10D-  4             ***   
       TRANGRAD             IRESRM         OFF          [  0]   ***   
       TRANS_INV            ITRAIN         USE          [  0]   ***   
       TREAT_PERT           ITREAT         SIMULTANEOUS [  0]   ***   
       UIJ_THRESHO          IUIJTH              1               ***   
       UNITS                IUNITS         ANGSTROM     [  0]   ***   
       UNOS                 IUNOS          OFF          [  0]   ***   
       UPDATE_HESS          IHUPDT         ON           [  1]   ***   
       VIBPHASE             ISETPH         STANDARD     [  0]   ***   
       VIBRATION            IVIB              NO        [  0]   ***   
       VIB_ALGORIT          IGEALG         STANDARD     [  0]   ***   
       VNATORB              IVNORB         OFF          [  0]   ***   
       VTRAN                IVTRAN         FULL/PARTIAL [  0]   ***   
       XFIELD               IXEFLD              0             x 10-6  
       XFORM_TOL            IXFTOL          10D- 18             ***   
       YFIELD               IYEFLD              0             x 10-6  
       ZFIELD               IZEFLD              0             x 10-6  
    -------------------------------------------------------------------
   1 entries found in Z-matrix 
   Job Title : TITLE                                                                           
  1  N          7    14.00307
 factor:   60.1997200000000     
   Rotational constants (in cm-1): 

   Rotational constants (in MHz): 

********************************************************************************
   The full molecular point group is I h .
   The largest Abelian subgroup of the full molecular point group is D2h .
   The computational point group is D2h .
********************************************************************************
  @GTFLGS-W, Keyword #DROPMO not known and is ignored.
  @GTFLGS-W, Keyword #SCF_DAMPING not known and is ignored.
  There is   1 frozen-core orbital.
  There is   1 frozen-core orbital.
  There are   46 basis functions.
 @GEOPT-W, Archive file not created for single-point calculation.
  @CHECKOUT-I, Total execution time (CPU/WALL):        0.24/       4.96 seconds.
--executable xjoda finished with status     0 in        7.21 seconds (walltime).
 --invoking executable--
/home/nike/cfour_v2.00beta/bin/xvmol
 Serial version of molecule started
********************************************************************************
                    Input from MOL file
********************************************************************************
INTGRL        1    0    1    0    0    0    0    0    0                         
         *** CFOUR Program System (Release V0.1) ***                            
TITLE                                                                           
    1    3 X  Y   Z   0.10E-08              0    0                              
   9999.00      3.00                                                            
          7.00000000    1    4    1    1    1    1                              
N #1   0.000000000000000   0.000000000000000   0.000000000000000                
   11    5                                                                      
   11420.0000000000       5.230000000000000E-004 -1.150000000000000E-004        
  0.000000000000000E+000  0.000000000000000E+000  0.000000000000000E+000        
   1712.00000000000       4.045000000000000E-003 -8.950000000000000E-004        
  0.000000000000000E+000  0.000000000000000E+000  0.000000000000000E+000        
   389.300000000000       2.077500000000000E-002 -4.624000000000000E-003        
  0.000000000000000E+000  0.000000000000000E+000  0.000000000000000E+000        
   110.000000000000       8.072699999999999E-002 -1.852800000000000E-002        
  0.000000000000000E+000  0.000000000000000E+000  0.000000000000000E+000        
   35.5700000000000       0.233074000000000      -5.733900000000000E-002        
  0.000000000000000E+000  0.000000000000000E+000  0.000000000000000E+000        
   12.5400000000000       0.433501000000000      -0.132076000000000             
  0.000000000000000E+000  0.000000000000000E+000  0.000000000000000E+000        
   4.64400000000000       0.347472000000000      -0.172510000000000             
  0.000000000000000E+000  0.000000000000000E+000  0.000000000000000E+000        
   1.29300000000000       4.126200000000000E-002  0.151814000000000             
   1.00000000000000       0.000000000000000E+000  0.000000000000000E+000        
  0.511800000000000      -8.508000000000000E-003  0.599944000000000             
  0.000000000000000E+000  0.000000000000000E+000  0.000000000000000E+000        
  0.178700000000000       2.384000000000000E-003  0.387462000000000             
  0.000000000000000E+000   1.00000000000000       0.000000000000000E+000        
  5.760000000000000E-002  0.000000000000000E+000  0.000000000000000E+000        
  0.000000000000000E+000  0.000000000000000E+000   1.00000000000000             
    6    4                                                                      
   26.6300000000000       1.467000000000000E-002  0.000000000000000E+000        
  0.000000000000000E+000  0.000000000000000E+000                                
   5.94800000000000       9.176400000000000E-002  0.000000000000000E+000        
  0.000000000000000E+000  0.000000000000000E+000                                
   1.74200000000000       0.298683000000000       0.000000000000000E+000        
  0.000000000000000E+000  0.000000000000000E+000                                
  0.555000000000000       0.498487000000000        1.00000000000000             
  0.000000000000000E+000  0.000000000000000E+000                                
  0.172500000000000       0.337023000000000       0.000000000000000E+000        
   1.00000000000000       0.000000000000000E+000                                
  4.910000000000000E-002  0.000000000000000E+000  0.000000000000000E+000        
  0.000000000000000E+000   1.00000000000000                                     
    3    3                                                                      
   1.65400000000000        1.00000000000000       0.000000000000000E+000        
  0.000000000000000E+000                                                        
  0.469000000000000       0.000000000000000E+000   1.00000000000000             
  0.000000000000000E+000                                                        
  0.151000000000000       0.000000000000000E+000  0.000000000000000E+000        
   1.00000000000000                                                             
    2    2                                                                      
   1.09300000000000        1.00000000000000       0.000000000000000E+000        
  0.364000000000000       0.000000000000000E+000   1.00000000000000             
FINISH                                                                          
 
********************************************************************************
 One- and two-electron integrals over symmetry-adapted AOs are calculated.

  Spherical harmonics are used.
  
  Integrals less than  0.10E-13 are neglected.

  Nuclear repulsion energy :    0.0000000000 a.u.
  required memory for a1 array                5088344  words 
  required memory for a2 array                2321804  words 
 @GETMEM-I,  Allocated      71 MB of main memory.
  @MOLECU-I, One electron integrals (CPU/WALL):        0.02/       0.05 seconds.
  @TWOEL-I,       2731 integrals of symmetry type  I I I I
  @TWOEL-I,      17249 integrals of symmetry type  I J I J
  @TWOEL-I,      11497 integrals of symmetry type  I I J J
  @TWOEL-I,      29967 integrals of symmetry type  I J K L
  @TWOEL-I, Total number of 2-e integrals      61444.
  @MOLECU-I, Two electron integrals (CPU/WALL):        0.11/       0.49 seconds.
  @CHECKOUT-I, Total execution time (CPU/WALL):        0.15/       0.71 seconds.
--executable xvmol finished with status     0 in        0.94 seconds (walltime).
 --invoking executable--
/home/nike/cfour_v2.00beta/bin/xvmol2ja
 @GETMEM-I,  Allocated   19073 MB of main memory.
  @CHECKOUT-I, Total execution time (CPU/WALL):        0.00/       0.05 seconds.
--executable xvmol2ja finished with status     0 in        0.21 seconds (walltime).
 --invoking executable--
/home/nike/cfour_v2.00beta/bin/xvscf
  There are   46 functions in the AO basis.

  There are 8 irreducible representations.

       Irrep        # of functions
         1                 11
         2                  8
         3                  8
         4                  3
         5                  8
         6                  3
         7                  3
         8                  2


  Parameters for SCF calculation: 
        SCF reference function: ROHF  
  Maximum number of iterations: 9999
     Full symmetry point group: I h 
     Computational point group: D2h 
        Initial density matrix: MOREAD                 
     SCF convergence tolerance: 10**(-10)
  DIIS convergence acceleration:  ON
          Latest start for DIIS:   5
                     DIIS order:   6

     Alpha population by irrep:   2    1    1    0    1    0    0    0
      Beta population by irrep:   2    0    0    0    0    0    0    0


  Memory information:     139288 words required.
  Fock matrices are constructed from AO integral file.
 @GETMEM-I,  Allocated       1 MB of main memory.
  Initialization and symmetry analysis required      0.002 seconds.

 total no. of electrons in initial guess :  0.000000000000000E+000
 total no. of electrons in initial guess :  0.000000000000000E+000
  --------------------------------------------------------------------
  Iteration         Total Energy            Largest Density Difference
  --------------------------------------------------------------------
       0             0.000000000000000              0.0000000000D+00
   current occupation vector 
     2  1  1  0  1  0  0  0
     2  0  0  0  0  0  0  0
       1           -49.835855917404544              0.6521895061D+01
   current occupation vector 
     2  1  1  0  1  0  0  0
     2  0  0  0  0  0  0  0
       2           -51.578516956993631              0.6520800735D+01
   current occupation vector 
     2  1  1  0  1  0  0  0
     2  0  0  0  0  0  0  0
       3           -53.948385474644120              0.2116041257D+01
   current occupation vector 
     2  1  1  0  1  0  0  0
     2  0  0  0  0  0  0  0
       4           -52.948303928587215              0.1948447234D+01
   current occupation vector 
     2  1  1  0  1  0  0  0
     2  0  0  0  0  0  0  0
       5           -54.213632849947949              0.1412388376D+01
   current occupation vector 
     2  1  1  0  1  0  0  0
     2  0  0  0  0  0  0  0
       6           -54.372419231840816              0.4612575530D+00
   current occupation vector 
     2  1  1  0  1  0  0  0
     2  0  0  0  0  0  0  0
       7           -54.392188872203903              0.1437626483D+00
   current occupation vector 
     2  1  1  0  1  0  0  0
     2  0  0  0  0  0  0  0
       8           -54.393184276750951              0.1378720460D+00
   current occupation vector 
     2  1  1  0  1  0  0  0
     2  0  0  0  0  0  0  0
       9           -54.397488739876955              0.7718065610D-01
   current occupation vector 
     2  1  1  0  1  0  0  0
     2  0  0  0  0  0  0  0
      10           -54.397609305540740              0.1100099319D-01
   current occupation vector 
     2  1  1  0  1  0  0  0
     2  0  0  0  0  0  0  0
      11           -54.397609522533529              0.4381676660D-03
   current occupation vector 
     2  1  1  0  1  0  0  0
     2  0  0  0  0  0  0  0
      12           -54.397609522654498              0.1599904365D-04
   current occupation vector 
     2  1  1  0  1  0  0  0
     2  0  0  0  0  0  0  0
      13           -54.397609522656595              0.1294253911D-05
   current occupation vector 
     2  1  1  0  1  0  0  0
     2  0  0  0  0  0  0  0
      14           -54.397609522656658              0.2468294882D-06
   current occupation vector 
     2  1  1  0  1  0  0  0
     2  0  0  0  0  0  0  0
      15           -54.397609522656694              0.6689578225D-08
   current occupation vector 
     2  1  1  0  1  0  0  0
     2  0  0  0  0  0  0  0
      16           -54.397609522656658              0.1090438850D-09
   current occupation vector 
     2  1  1  0  1  0  0  0
     2  0  0  0  0  0  0  0

  SCF has converged.

 Density matrix saved to file den.dat
 total alpha spin electron number:   5.00000000000000     
 total  beta spin electron number:   2.00000000000000     
     E(ROHF)=       -54.397609522656644              0.4424016709D-11

  Eigenvector printing suppressed.


       The average multiplicity is    4.0000000
  The expectation value of S**2 is    3.7500000

 @PUTMOS-I, Writing converged MOs to NEWMOS. 
 @PUTMOS-I, Symmetry   1 Full Blocks  2 Partial Blocksize   3
 @PUTMOS-I, Symmetry   2 Full Blocks  2 Partial Blocksize   0
 @PUTMOS-I, Symmetry   3 Full Blocks  2 Partial Blocksize   0
 @PUTMOS-I, Symmetry   4 Full Blocks  0 Partial Blocksize   3
 @PUTMOS-I, Symmetry   5 Full Blocks  2 Partial Blocksize   0
 @PUTMOS-I, Symmetry   6 Full Blocks  0 Partial Blocksize   3
 @PUTMOS-I, Symmetry   7 Full Blocks  0 Partial Blocksize   3
 @PUTMOS-I, Symmetry   8 Full Blocks  0 Partial Blocksize   2
  @DMPJOB-I, Rotating orbitals to semicanonical basis.
             *** Eigenvalues correspond to new basis. ***



 
  ORBITAL EIGENVALUES (ALPHA)  (1H = 27.2113838 eV)

       MO #        E(hartree)               E(eV)           FULLSYM    COMPSYM
       ----   --------------------   --------------------   -------   ---------
    1     1         -15.6743045845        -426.5195181544      Ag        Ag (1)
    2     2          -1.1518704399         -31.3439886492      Ag        Ag (1)
    3    12          -0.5675548734         -15.4439534980     T1u       B2u (2)
    4    31          -0.5675548734         -15.4439534980     T1u       B1u (5)
    5    20          -0.5675548734         -15.4439534980     T1u       B3u (3)
  +++++++++++++++++++++++++++++++++++++++++++++++++++++++++++++++++++++++++++++
    6     3           0.1205804472           3.2811608309      Ag        Ag (1)
    7    13           0.1298710665           3.5339714382     T1u       B2u (2)
    8    21           0.1298710665           3.5339714382     T1u       B3u (3)
    9    32           0.1298710665           3.5339714382     T1u       B1u (5)
   10     4           0.4486817468          12.2092512259      Hg        Ag (1)
   11     5           0.4486817468          12.2092512259      Hg        Ag (1)
   12    28           0.4486817468          12.2092512259      Hg       B1g (4)
   13    39           0.4486817468          12.2092512259      Hg       B3g (6)
   14    42           0.4486817468          12.2092512259      Hg       B2g (7)
   15    14           0.7277485350          19.8030447099     T1u       B2u (2)
   16    33           0.7277485350          19.8030447099     T1u       B1u (5)
   17    22           0.7277485350          19.8030447099     T1u       B3u (3)
   18     6           0.9632475314          26.2112982914      Ag        Ag (1)
   19    45           1.4780987744          40.2211130741       u        Au (8)
   20    34           1.4780987744          40.2211130741       u       B1u (5)
   21    23           1.4780987744          40.2211130741       u       B3u (3)
   22    35           1.4780987744          40.2211130741       u       B1u (5)
   23    15           1.4780987744          40.2211130741       u       B2u (2)
   24    16           1.4780987744          40.2211130741       u       B2u (2)
   25    24           1.4780987744          40.2211130741       u       B3u (3)
   26     7           1.4910394512          40.5732467975      Hg        Ag (1)
   27    43           1.4910394512          40.5732467975      Hg       B2g (7)
   28    40           1.4910394512          40.5732467975      Hg       B3g (6)
   29     8           1.4910394512          40.5732467975      Hg        Ag (1)
   30    29           1.4910394512          40.5732467975      Hg       B1g (4)
   31    36           3.2757677463          89.1381734489     T1u       B1u (5)
   32    25           3.2757677463          89.1381734489     T1u       B3u (3)
   33    17           3.2757677463          89.1381734489     T1u       B2u (2)
   34    37           4.8285825763         131.3924137877       u       B1u (5)
   35    46           4.8285825763         131.3924137877       u        Au (8)
   36    18           4.8285825763         131.3924137877       u       B2u (2)
   37    26           4.8285825763         131.3924137877       u       B3u (3)
   38    38           4.8285825763         131.3924137877       u       B1u (5)
   39    19           4.8285825763         131.3924137877       u       B2u (2)
   40    27           4.8285825763         131.3924137877       u       B3u (3)
   41     9           4.9773913762         135.4417071576      Hg        Ag (1)
   42    10           4.9773913762         135.4417071576      Hg        Ag (1)
   43    44           4.9773913762         135.4417071576      Hg       B2g (7)
   44    30           4.9773913762         135.4417071576      Hg       B1g (4)
   45    41           4.9773913762         135.4417071576      Hg       B3g (6)
   46    11           6.2868241403         171.0731846885      Ag        Ag (1)


 
  ORBITAL EIGENVALUES ( BETA)  (1H = 27.2113838 eV)

       MO #        E(hartree)               E(eV)           FULLSYM    COMPSYM
       ----   --------------------   --------------------   -------   ---------
    1     1         -15.5880404714        -424.1721522614      Ag        Ag (1)
    2     2          -0.7403548537         -20.1460800861      Ag        Ag (1)
  +++++++++++++++++++++++++++++++++++++++++++++++++++++++++++++++++++++++++++++
    3    20           0.0779574670           2.1213305569     T1u       B3u (3)
    4    31           0.0779574670           2.1213305569     T1u       B1u (5)
    5    12           0.0779574670           2.1213305569     T1u       B2u (2)
    6     3           0.1386151732           3.7719106808      Ag        Ag (1)
    7    21           0.2239095757           6.0928894044     T1u       B3u (3)
    8    32           0.2239095757           6.0928894044     T1u       B1u (5)
    9    13           0.2239095757           6.0928894044     T1u       B2u (2)
   10     4           0.4795974837          13.0505112068      Hg        Ag (1)
   11     5           0.4795974837          13.0505112068      Hg        Ag (1)
   12    42           0.4795974837          13.0505112068      Hg       B2g (7)
   13    28           0.4795974837          13.0505112068      Hg       B1g (4)
   14    39           0.4795974837          13.0505112068      Hg       B3g (6)
   15    33           0.8765972722          23.8534248278     T1u       B1u (5)
   16    14           0.8765972722          23.8534248278     T1u       B2u (2)
   17    22           0.8765972722          23.8534248278     T1u       B3u (3)
   18     6           1.0563685012          28.7452487397      Ag        Ag (1)
   19    23           1.5143003547          41.2062081689       u       B3u (3)
   20    45           1.5143003547          41.2062081689       u        Au (8)
   21    34           1.5143003547          41.2062081689       u       B1u (5)
   22    35           1.5143003547          41.2062081689       u       B1u (5)
   23    15           1.5143003547          41.2062081689       u       B2u (2)
   24    16           1.5143003547          41.2062081689       u       B2u (2)
   25    24           1.5143003547          41.2062081689       u       B3u (3)
   26    43           1.6272483218          44.2796786550      Hg       B2g (7)
   27     7           1.6272483218          44.2796786550      Hg        Ag (1)
   28    29           1.6272483218          44.2796786550      Hg       B1g (4)
   29     8           1.6272483218          44.2796786550      Hg        Ag (1)
   30    40           1.6272483218          44.2796786550      Hg       B3g (6)
   31    36           3.4295044843          93.3215628336     T1u       B1u (5)
   32    25           3.4295044843          93.3215628336     T1u       B3u (3)
   33    17           3.4295044843          93.3215628336     T1u       B2u (2)
   34    37           4.9256457772         134.0336378032       u       B1u (5)
   35    26           4.9256457772         134.0336378032       u       B3u (3)
   36    46           4.9256457772         134.0336378032       u        Au (8)
   37    18           4.9256457772         134.0336378032       u       B2u (2)
   38    38           4.9256457772         134.0336378032       u       B1u (5)
   39    19           4.9256457772         134.0336378032       u       B2u (2)
   40    27           4.9256457772         134.0336378032       u       B3u (3)
   41     9           5.1417903135         139.9152297408      Hg        Ag (1)
   42    10           5.1417903135         139.9152297408      Hg        Ag (1)
   43    44           5.1417903135         139.9152297408      Hg       B2g (7)
   44    30           5.1417903135         139.9152297408      Hg       B1g (4)
   45    41           5.1417903135         139.9152297408      Hg       B3g (6)
   46    11           6.3828499625         173.6861801919      Ag        Ag (1)


  VSCF finished.

  @CHECKOUT-I, Total execution time (CPU/WALL):        0.18/       0.51 seconds.
--executable xvscf finished with status     0 in        0.67 seconds (walltime).
 --invoking executable--
/home/nike/cfour_v2.00beta/bin/xvtran
 @GETMEM-I,  Allocated   19073 MB of main memory.
  Full UHF integral transformation
  The following   1 alpha MOs will be dropped.
    1
  There are  45 active alpha molecular orbitals.
  The following   1 beta MOs will be dropped.
    1
  There are  45 active beta molecular orbitals.
  Transformation of IIII integrals :
  2 passes through the AO integral file were required.
        2731 AO integrals were read.
        3607 MO integrals (Spin case AAAA) were written to HF2AA.
        3607 MO integrals (Spin case BBBB) were written to HF2BB.
        7030 MO integrals (Spin case AABB) were written to HF2AB.
  Transformation of IIJJ integrals :
  2 passes through the AO integral file were required.
       11497 AO integrals were read.
       13412 MO integrals (Spin case AAAA) were written to HF2AA.
       13413 MO integrals (Spin case BBBB) were written to HF2BB.
       26825 MO integrals (Spin case AABB) were written to HF2AB.
  Transformation of IJIJ integrals :
  2 passes through the AO integral file were required.
       17249 AO integrals were read.
       20871 MO integrals (Spin case AAAA) were written to HF2AA.
       20871 MO integrals (Spin case BBBB) were written to HF2BB.
       40891 MO integrals (Spin case AABB) were written to HF2AB.
  Transformation of IJKL integrals :
  2 passes through the AO integral file were required.
       29967 AO integrals were read.
       31962 MO integrals (Spin case AAAA) were written to HF2AA.
       31962 MO integrals (Spin case BBBB) were written to HF2BB.
       63924 MO integrals (Spin case AABB) were written to HF2AB.
  Summary of active molecular orbitals: 
------------------------------------------------------------------------
                         * Spin case alpha *
 
  Index      Eigenvalue    Symmetry    Index      Eigenvalue    Symmetry
------------------------------------------------------------------------
     1        -1.1518704        1        24         1.4780988        3
     2        -0.5675549        2        25         3.2757677        3
     3        -0.5675549        3        26         4.8285826        3
     4        -0.5675549        5        27         4.8285826        3
     5         0.1205804        1        28         0.4486817        4
     6         0.4486817        1        29         1.4910395        4
     7         0.4486817        1        30         4.9773914        4
     8         0.9632475        1        31         0.1298711        5
     9         1.4910395        1        32         0.7277485        5
    10         1.4910395        1        33         1.4780988        5
    11         4.9773914        1        34         1.4780988        5
    12         4.9773914        1        35         3.2757677        5
    13         6.2868241        1        36         4.8285826        5
    14         0.1298711        2        37         4.8285826        5
    15         0.7277485        2        38         0.4486817        6
    16         1.4780988        2        39         1.4910395        6
    17         1.4780988        2        40         4.9773914        6
    18         3.2757677        2        41         0.4486817        7
    19         4.8285826        2        42         1.4910395        7
    20         4.8285826        2        43         4.9773914        7
    21         0.1298711        3        44         1.4780988        8
    22         0.7277485        3        45         4.8285826        8
    23         1.4780988        3
------------------------------------------------------------------------
------------------------------------------------------------------------
                         * Spin case beta *
 
  Index      Eigenvalue    Symmetry    Index      Eigenvalue    Symmetry
------------------------------------------------------------------------
     1        -0.7403549        1        24         3.4295045        3
     2         0.1386152        1        25         4.9256458        3
     3         0.4795975        1        26         4.9256458        3
     4         0.4795975        1        27         0.4795975        4
     5         1.0563685        1        28         1.6272483        4
     6         1.6272483        1        29         5.1417903        4
     7         1.6272483        1        30         0.0779575        5
     8         5.1417903        1        31         0.2239096        5
     9         5.1417903        1        32         0.8765973        5
    10         6.3828500        1        33         1.5143004        5
    11         0.0779575        2        34         1.5143004        5
    12         0.2239096        2        35         3.4295045        5
    13         0.8765973        2        36         4.9256458        5
    14         1.5143004        2        37         4.9256458        5
    15         1.5143004        2        38         0.4795975        6
    16         3.4295045        2        39         1.6272483        6
    17         4.9256458        2        40         5.1417903        6
    18         4.9256458        2        41         0.4795975        7
    19         0.0779575        3        42         1.6272483        7
    20         0.2239096        3        43         5.1417903        7
    21         0.8765973        3        44         1.5143004        8
    22         1.5143004        3        45         4.9256458        8
    23         1.5143004        3
------------------------------------------------------------------------
  @CHECKOUT-I, Total execution time (CPU/WALL):        0.09/       2.85 seconds.
--executable xvtran finished with status     0 in        3.00 seconds (walltime).
 --invoking executable--
/home/nike/cfour_v2.00beta/bin/xintprc
 @GETMEM-I,  Allocated   19073 MB of main memory.
  Processing integrals for CCSD calculation.
  @GMOIAA-I, Processing MO integrals for spin case AA.
  @GMOIAA-I, Generation of integral list completed.
                      TYPE                NUMBER
                      ----               --------
                      PPPP                 48144
                      PPPH                 18360
                      PPHH                  1860
                      PHPH                  1229
                      PHHH                   243
                      HHHH                    16

                     TOTAL                 69852
  @GMOIAA-I, Processing MO integrals for spin case BB.
  @GMOIAA-I, Generation of integral list completed.
                      TYPE                NUMBER
                      ----               --------
                      PPPP                 63681
                      PPPH                  5814
                      PPHH                   174
                      PHPH                   174
                      PHHH                     9
                      HHHH                     1

                     TOTAL                 69853
  @GMOIAB-I, Processing MO integrals for spin case AB.
                      TYPE                NUMBER
                      ----               --------
                      PPPP                109800
                      PPPH1H               21138
                      PPPH2H                5067
                      PPHH                   991
                      PHPH1P                 150
                      PHPH2P                1421
                      PHHH1P                  30
                      PHHH2P                  69
                      HHHH                     4

                     TOTAL                138670
            ----------------------------------------------
                     Projected spin multiplicities: 
            ----------------------------------------------
             <0|S^2|0>                  =    3.7500000000.
             <0|S^2 T2|0>               =    0.0000000000.
             Projected <0|S^2 exp(T)|0> =    3.7500000000.
             Approximate spin mult.     =    4.0000000000.
            ----------------------------------------------
   Largest T2 amplitudes for spin case AA:
   i   j   a   b             i   j   a   b             i   j   a   b
-----------------------------------------------------------------------------
[  4   2  32  15]-0.02115 [  3   2  22  15]-0.02115 [  4   3  32  22]-0.02115
[  4   2  39  10] 0.01657 [  3   2  29   9]-0.01628 [  4   1  32   8]-0.01248
[  3   1  22   8]-0.01248 [  2   1  15   8]-0.01248 [  4   3  42   9] 0.01243
[  4   3  42  10] 0.01162 [  4   3  32  21]-0.01092 [  3   2  21  15]-0.01092
[  4   2  32  14]-0.01092 [  4   2  31  15]-0.01092 [  3   2  22  14]-0.01092
-----------------------------------------------------------------------------
   Norm of T2AA vector (      630 symmetry allowed elements):  0.0855077419.
-----------------------------------------------------------------------------
   Largest T2 amplitudes for spin case AB:
       _       _                 _       _                 _       _
   i   j   a   b             i   j   a   b             i   j   a   b
-----------------------------------------------------------------------------
[  4   1  32   5]-0.02247 [  2   1  15   5]-0.02247 [  3   1  22   5]-0.02247
[  3   1   9  20]-0.02201 [  4   1  10  31] 0.02161 [  4   1  39  12] 0.01957
[  3   1  29  12] 0.01957 [  2   1  39  31] 0.01957 [  3   1  42  31] 0.01957
[  2   1  29  20] 0.01957 [  4   1  42  20] 0.01957 [  1   1   8   5]-0.01796
[  2   1  10  12]-0.01650 [  3   1   9  19] 0.01625 [  4   1  10  30]-0.01596
-----------------------------------------------------------------------------
   Norm of T2AB vector (      991 symmetry allowed elements):  0.1354595497.
-----------------------------------------------------------------------------
  @CHECKOUT-I, Total execution time (CPU/WALL):        0.09/       1.55 seconds.
--executable xintprc finished with status     0 in        2.50 seconds (walltime).
 --invoking executable--
/home/nike/cfour_v2.00beta/bin/xint
 @GETMEM-I,  Allocated   19073 MB of main memory.
  @CHECKOUT-I, Total execution time (CPU/WALL):        1.07/       1.16 seconds.
--executable xint finished with status     0 in        4.18 seconds (walltime).
 --invoking executable--
/home/nike/MRCC/dmrcc
 **********************************************************************
                          MRCC program system
 **********************************************************************
 
                              Written by
    Mihaly Kallay, Zoltan Rolik, Jozsef Csontos, Istvan Ladjanszki,
       Lorant Szegedy, Bence Ladoczki, Gyula Samu, Klara Petrov,
        Mate Farkas, Peter Nagy, David Mester, and Bence Hegely
 
        Department of Physical Chemistry and Materials Science
            Budapest University of Technology and Economics
                  Budapest P.O.Box 91, H-1521 Hungary
 
                              www.mrcc.hu

 ************************ 2018-07-06 01:03:00 *************************
 Executing minp...

 Reading input from MINP...
 
 Input file:
 
# N 2Z
basis=aVTZ-EMSL
iface=cfour
uncontract=off
calc=CC(5)
mem=32GB
core=1
itol=18
scftol=13
cctol=7
ccmaxit=999
scfmaxit=9999
scfiguess=ao
scftype=ROHF
rohftype=semicanonical
rest=2
charge=+0
refdet=serialno
1
2,3,4

symm=8
mult=4
#occ=3,0,0,0,0,1,0,0/1,0,0,0,0,1,0,0
geom
N

#Li 1 R

#R=3.065

#unit=angstroms

tprint=0.01
verbosity=3
nstate=4

 
 
 Checking keyword combinations...
 
 Keywords:
 
 active=none
 agrid=ld0006-ld0590
 basis=avtz-emsl
 basopt=off
 bpcompo=0.985
 bpcompv=0.98
 bpdfo=0.985
 bpocc=0.985
 bppdo=0.985
 bppdv=0.98
 bpedo=0.985
 bpedv=0.98
 calc=cc(5)
 ccmaxit=999
 ccprog=mrcc
 cctol=7
 charge=+0
 cialg=disk
 ciguess=off
 cmpgrp=auto
 core=1
 corembed=off
 dboc=off
 dendec=cholesky
 dens=0
 dfalg=invsqrt
 dfbasis_cor=none
 dfbasis_scf=none
 dfintran=ovirt
 dft=off
 diag=david
 domrad=10.d0
 drpaalg=fit
 ecp=auto
 edisp=off
 embed=off
 epert=none
 eps=0.975
 excrad=0.d0
 excrad_fin=0.000000000D+00
 freq=off
 gauss=spher
 geom=zmat
 gopt=off
 ghost=none
 gtol=7
 grtol=10
 hamilton=dc
 iface=cfour
 intalg=auto
 itol=18
 lcorthr=loose
 lccrest=off
 lmp2dens=on
 lnoepso=3e-5
 lnoepsv=1e-6
 localcc=off
 locintrf=disk
 maxact=off
 maxex=0
 bfbasis=none
 mem=32gb
 molden=on
 mulmet=0
 mult=4
 nacto=0
 nactv=0
 naf_cor=off
 naf_scf=off
 nafalg=albe
 naftyp=
 nchol=auto
 ndeps=1e-3
 nstate=4
 nsing=0
 ntrip=0
 occ=
 optalg=
 optmaxit=50
 optetol=1e-6
 optgtol=1e-4
 optstol=1e-3
 orblocc=off
 orbloco=off
 orblocv=off
 osveps=1e-3
 ovirt=off
 ovosnorb=80.0
 ptfreq=0.0
 popul=off
 pressure=100000
 qmmm=off
 refdet=serialno
 rest=2
 rgrid=log3
 rohftype=semicanonical
 scspe=1.d0
 scsps=1.2d0
 scspt=0.33333333333333
 scfalg=auto
 scfdamp=off
 scfdiis=on
 scfdiis_end=9999
 scfdiis_start=1
 scfdiis_step=1
 scfdtol=17
 scfext=10
 scfiguess=ao
 scflshift=off
 scfmaxit=9999
 scftype=rohf
 scftol=13
 spairtol=1e-4
 symm=8
 talg=occ
 temp=298.15
 test=off
 tprint=0.01
 uncontract=off
 unit=angs
 verbosity=3
 wpairtol=0.100000000E-05

 ************************ 2018-07-06 01:03:01 *************************
 Executing goldstone...

 Generation of CC equations in terms of H and T...
 Generation of antisymmetrized Goldstone diagrams...
 Number of diagrams in T^1 equations:    15
 Number of diagrams in T^2 equations:    38
 Number of diagrams in T^3 equations:    54
 Number of diagrams in T^4 equations:    80
 Number of diagrams in T^5 equations:    99
 Translation of diagrams to factorized equations...
 Optimizing intermediate calculation...
 Optimizing right-hand EOMCC calculation...
 Number of floating-point operations per iteration step:   5.7307E+10
 Probable CPU time per iteration step (hours):      0.57
 Required memory (Mbytes):     836.3
 Number of intermediates:                                 354
 Number of intermediates to be stored:                    131
 Length of intermediate file (Mbytes):    1042.4

 ************************ 2018-07-06 01:03:08 *************************
 Executing xmrcc...

 **********************************************************************
 CC(                     5 ) calculation 
 
 
 Allocation of 836.3 Mbytes of memory...
 Number of spinorbitals:                    90
 Number of alpha electrons:                        4
 Number of beta electrons:                         1
 z-component of spin:  1.5
 Spatial symmetry:                      8
 Convergence criterion:  1.0E-07
 Construction of occupation graphs...
 Number of                     0 -fold excitations:                      1
 Number of                     1 -fold excitations:                     39
 Number of                     2 -fold excitations:                   1621
 Number of                     3 -fold excitations:                  32410
 Number of                     4 -fold excitations:                 247239
 Number of                     5 -fold excitations:                 558718
 Total number of configurations:                 840028
 Calculation of coupling coefficients...
 Length of intermediate file (Mbytes):     311.9
 
 ======================================================================
 
 ======================================================================
 
 ======================================================================
 
 ======================================================================
 
 Memory requirements /Mbyte/: 
               Minimal        Optimal
 Real*8:       3525.5152      3525.5152
 Integer:        45.2745
 Total:        3570.7897      3570.7897
 

 ************************ 2018-07-06 01:03:15 *************************
 Executing goldstone...

 Generation of CC equations in terms of H and T...
 Generation of antisymmetrized Goldstone diagrams...
 Number of diagrams in T^1 equations:     8
 Translation of diagrams to factorized equations...
 Optimizing intermediate calculation...
 Optimizing right-hand EOMCC calculation...
 Number of floating-point operations per iteration step:   1.8167E+03
 Probable CPU time per iteration step (hours):      0.00
 Required memory (Mbytes):     429.6
 Number of intermediates:                                  19
 Number of intermediates to be stored:                      9
 Length of intermediate file (Mbytes):       0.1

 ************************ 2018-07-06 01:03:15 *************************
 Executing xmrcc...

 **********************************************************************
 CC(                     1 ) calculation 
 
 
 Allocation of 429.6 Mbytes of memory...
 Number of spinorbitals:                    90
 Number of alpha electrons:                        4
 Number of beta electrons:                         1
 z-component of spin:  1.5
 Spatial symmetry:                      8
 Convergence criterion:  1.0E-07
 Construction of occupation graphs...
 Number of                     0 -fold excitations:                      1
 Number of                     1 -fold excitations:                     39
 Total number of configurations:                     40
 Calculation of coupling coefficients...
 Length of intermediate file (Mbytes):       0.2
 
 ======================================================================
 
 ======================================================================
 
 ======================================================================
 
 ======================================================================
 
 Memory requirements /Mbyte/: 
               Minimal        Optimal
 Real*8:          0.7261        31.3201
 Integer:         3.3709
 Total:           4.0971        34.6910
 

 ************************ 2018-07-06 01:03:15 *************************
 Executing mrcc...

 **********************************************************************
 LR-CCS calculation                                                     
 
 
 OpenMP parallel version is running.
 Number of CPUs:  32
 Allocation of   31.3 Mbytes of memory...
 Number of spinorbitals:  90
 Number of alpha electrons:  4
 Number of beta  electrons:  1
 z-component of spin:  1.5
 Spatial symmetry: 8
 Convergence criterion:  1.0E-07
 Construction of occupation graphs...
 Number of 0-fold excitations: 1
 Number of 1-fold excitations: 39
 Total number of determinants: 40
 Calculation of coupling coefficients...
 Initial cluster amplitudes are generated.
 Length of intermediate file (Mbytes):       0.2
 Reading integral list from unit 55...
 Sorting integrals...
 Sorting integrals...
 Sorting integrals...
 Sorting integrals...
 Energy of reference determinant [au]:     -54.397609522657
 Calculation of diagonal elements of Hamiltonian...
 Calculation of MP denominators...
 
 Starting CC iteration...
 ======================================================================
 Norm of residual vector:     0.05817060
 CPU time [min]:     0.368                   Wall time [min]:     0.060
 
 Iteration  1  CC energy:   -54.39972116  Energy decrease:   0.00211163
 ======================================================================
 Norm of residual vector:     0.01887316
 CPU time [min]:     0.371                   Wall time [min]:     0.060
 
 Iteration  2  CC energy:   -54.40068259  Energy decrease:   0.00096143
 ======================================================================
 Norm of residual vector:     0.00204275
 CPU time [min]:     0.376                   Wall time [min]:     0.060
 
 Iteration  3  CC energy:   -54.40074360  Energy decrease:   0.00006101
 ======================================================================
 Norm of residual vector:     0.00017666
 CPU time [min]:     0.381                   Wall time [min]:     0.060
 
 Iteration  4  CC energy:   -54.40074292  Energy decrease:   0.00000068
 ======================================================================
 Norm of residual vector:     0.00000983
 CPU time [min]:     0.385                   Wall time [min]:     0.061
 
 Iteration  5  CC energy:   -54.40074282  Energy decrease:   0.00000011
 ======================================================================
 Norm of residual vector:     0.00000123
 CPU time [min]:     0.390                   Wall time [min]:     0.061
 
 Iteration  6  CC energy:   -54.40074283  Energy decrease:   0.00000001
 ======================================================================
 Norm of residual vector:     0.00000012
 CPU time [min]:     0.395                   Wall time [min]:     0.061
 
 Iteration  7  CC energy:   -54.40074282  Energy decrease:   5.4482E-10
 ======================================================================
 Norm of residual vector:     0.00000001
 CPU time [min]:     0.399                   Wall time [min]:     0.061
 
 Iteration  8  CC energy:   -54.40074282  Energy decrease:   6.1064E-11
 ======================================================================
 
 Iteration has converged in  8 steps.
 
 Final results:
 Total CCS energy [au]:              -54.400742824682
 Spin multiplicity:                     2
 
 
 
 Dominant cluster amplitudes
 Printing threshold:  1.00E-02
 
    1.000000  Reference determinant                                     
    0.036512  1b -> 5b                                                  
   -0.030117  1b -> 17b                                                 
   -0.023564  1a -> 5a                                                  
    0.023207  1a -> 17a                                                 
 
 Starting right-hand LR-CC iteration for root                      2 ...
 ======================================================================
 Norm of residual vector:     0.07944072      Convergence:   1.00000000
 CPU time [min]:     0.431                   Wall time [min]:     0.062
 
 Iteration  1  CI energy:   -53.90494961  Energy decrease:   0.49579321
 ======================================================================
 Norm of residual vector:     0.08256803      Convergence:   0.53414385
 CPU time [min]:     0.443                   Wall time [min]:     0.063
 
 Iteration  2  CI energy:   -53.91001142  Energy decrease:   0.00506181
 ======================================================================
 Norm of residual vector:     0.02679724      Convergence:   0.19199128
 CPU time [min]:     0.455                   Wall time [min]:     0.063
 
 Iteration  3  CI energy:   -53.92536030  Energy decrease:   0.01534888
 ======================================================================
 Norm of residual vector:     0.00175744      Convergence:   0.01511067
 CPU time [min]:     0.462                   Wall time [min]:     0.063
 
 Iteration  4  CI energy:   -53.92564204  Energy decrease:   0.00028174
 ======================================================================
 Norm of residual vector:     0.00097942      Convergence:   0.00395282
 CPU time [min]:     0.470                   Wall time [min]:     0.064
 
 Iteration  5  CI energy:   -53.92564762  Energy decrease:   0.00000558
 ======================================================================
 Norm of residual vector:     0.00022614      Convergence:   0.00168994
 CPU time [min]:     0.478                   Wall time [min]:     0.064
 
 Iteration  6  CI energy:   -53.92564892  Energy decrease:   0.00000130
 ======================================================================
 Norm of residual vector:     0.00002460      Convergence:   0.00013397
 CPU time [min]:     0.488                   Wall time [min]:     0.064
 
 Iteration  7  CI energy:   -53.92564892  Energy decrease:   0.00000001
 ======================================================================
 Norm of residual vector:     0.00000170      Convergence:   0.00001868
 CPU time [min]:     0.497                   Wall time [min]:     0.065
 
 Iteration  8  CI energy:   -53.92564892  Energy decrease:   2.4253E-09
 ======================================================================
 Norm of residual vector:     0.0000E+00      Convergence:   7.5211E-07
 CPU time [min]:     0.507                   Wall time [min]:     0.065
 
 Iteration  9  CI energy:   -53.92564892  Energy decrease:   4.5141E-11
 ======================================================================
 
 Iteration has converged in  9 steps.
 
 Final results:
 Total LR-CCS energy [au]:           -53.925648921992
 Excitation energy [eV]:          12.9280
 Excitation energy [cm^-1]:   104271.07
 Absorption wavelength [nm]:      95.90
 Spin multiplicity:                     2
 
 
 
 Dominant CI coefficients
 Printing threshold:  1.00E-02
 
    0.023963  1a -> 9a                                                  
    0.010763  1a -> 10a                                                 
   -0.401433  2a -> 7a                                                  
   -0.073091  2a -> 14a                                                 
    0.802868  4a -> 8a                                                  
    0.146183  4a -> 15a                                                 
    0.010633  4a -> 31a                                                 
   -0.401435  3a -> 6a                                                  
   -0.073092  3a -> 16a                                                 
 
 Starting right-hand LR-CC iteration for root                      3 ...
 ======================================================================
 Norm of residual vector:     0.07944072      Convergence:   1.00000000
 CPU time [min]:     0.512                   Wall time [min]:     0.065
 
 Iteration  1  CI energy:   -53.90494961  Energy decrease:   0.49579321
 ======================================================================
 Norm of residual vector:     0.08256804      Convergence:   0.53414382
 CPU time [min]:     0.517                   Wall time [min]:     0.065
 
 Iteration  2  CI energy:   -53.91001142  Energy decrease:   0.00506181
 ======================================================================
 Norm of residual vector:     0.02679686      Convergence:   0.19199142
 CPU time [min]:     0.524                   Wall time [min]:     0.066
 
 Iteration  3  CI energy:   -53.92536032  Energy decrease:   0.01534889
 ======================================================================
 Norm of residual vector:     0.00175720      Convergence:   0.01511028
 CPU time [min]:     0.530                   Wall time [min]:     0.066
 
 Iteration  4  CI energy:   -53.92564204  Energy decrease:   0.00028173
 ======================================================================
 Norm of residual vector:     0.00097946      Convergence:   0.00395299
 CPU time [min]:     0.538                   Wall time [min]:     0.066
 
 Iteration  5  CI energy:   -53.92564762  Energy decrease:   0.00000558
 ======================================================================
 Norm of residual vector:     0.00022612      Convergence:   0.00168987
 CPU time [min]:     0.546                   Wall time [min]:     0.066
 
 Iteration  6  CI energy:   -53.92564892  Energy decrease:   0.00000130
 ======================================================================
 Norm of residual vector:     0.00002457      Convergence:   0.00013385
 CPU time [min]:     0.555                   Wall time [min]:     0.067
 
 Iteration  7  CI energy:   -53.92564892  Energy decrease:   0.00000001
 ======================================================================
 Norm of residual vector:     0.00000170      Convergence:   0.00001865
 CPU time [min]:     0.565                   Wall time [min]:     0.067
 
 Iteration  8  CI energy:   -53.92564892  Energy decrease:   2.4221E-09
 ======================================================================
 Norm of residual vector:     0.0000E+00      Convergence:   7.5226E-07
 CPU time [min]:     0.575                   Wall time [min]:     0.067
 
 Iteration  9  CI energy:   -53.92564892  Energy decrease:   4.5290E-11
 ======================================================================
 
 Iteration has converged in  9 steps.
 
 Final results:
 Total LR-CCS energy [au]:           -53.925648921992
 Excitation energy [eV]:          12.9280
 Excitation energy [cm^-1]:   104271.07
 Absorption wavelength [nm]:      95.90
 Spin multiplicity:                     2
 
 
 
 Dominant CI coefficients
 Printing threshold:  1.00E-02
 
   -0.026134  1a -> 10a                                                 
   -0.401433  2a -> 7a                                                  
   -0.073092  2a -> 14a                                                 
   -0.401434  4a -> 8a                                                  
   -0.073092  4a -> 15a                                                 
    0.802868  3a -> 6a                                                  
    0.146183  3a -> 16a                                                 
    0.010633  3a -> 30a                                                 
 
 Starting right-hand LR-CC iteration for root                      4 ...
 ======================================================================
 Norm of residual vector:     0.07944072      Convergence:   1.00000000
 CPU time [min]:     0.580                   Wall time [min]:     0.068
 
 Iteration  1  CI energy:   -53.90494961  Energy decrease:   0.49579321
 ======================================================================
 Norm of residual vector:     0.08256803      Convergence:   0.53414390
 CPU time [min]:     0.586                   Wall time [min]:     0.068
 
 Iteration  2  CI energy:   -53.91001143  Energy decrease:   0.00506181
 ======================================================================
 Norm of residual vector:     0.02679758      Convergence:   0.19199108
 CPU time [min]:     0.592                   Wall time [min]:     0.068
 
 Iteration  3  CI energy:   -53.92536028  Energy decrease:   0.01534885
 ======================================================================
 Norm of residual vector:     0.00175811      Convergence:   0.01511121
 CPU time [min]:     0.600                   Wall time [min]:     0.068
 
 Iteration  4  CI energy:   -53.92564204  Energy decrease:   0.00028176
 ======================================================================
 Norm of residual vector:     0.00097933      Convergence:   0.00395261
 CPU time [min]:     0.607                   Wall time [min]:     0.069
 
 Iteration  5  CI energy:   -53.92564762  Energy decrease:   0.00000558
 ======================================================================
 Norm of residual vector:     0.00022629      Convergence:   0.00168999
 CPU time [min]:     0.616                   Wall time [min]:     0.069
 
 Iteration  6  CI energy:   -53.92564892  Energy decrease:   0.00000130
 ======================================================================
 Norm of residual vector:     0.00002464      Convergence:   0.00013421
 CPU time [min]:     0.625                   Wall time [min]:     0.069
 
 Iteration  7  CI energy:   -53.92564892  Energy decrease:   0.00000001
 ======================================================================
 Norm of residual vector:     0.00000171      Convergence:   0.00001874
 CPU time [min]:     0.634                   Wall time [min]:     0.070
 
 Iteration  8  CI energy:   -53.92564892  Energy decrease:   2.4314E-09
 ======================================================================
 Norm of residual vector:     0.0000E+00      Convergence:   7.5197E-07
 CPU time [min]:     0.644                   Wall time [min]:     0.070
 
 Iteration  9  CI energy:   -53.92564892  Energy decrease:   4.5311E-11
 ======================================================================
 
 Iteration has converged in  9 steps.
 
 Final results:
 Total LR-CCS energy [au]:           -53.925648921992
 Excitation energy [eV]:          12.9280
 Excitation energy [cm^-1]:   104271.07
 Absorption wavelength [nm]:      95.90
 Spin multiplicity:                     2
 
 Dominant CI coefficients
 Printing threshold:  1.00E-02
 
   -0.021303  1a -> 9a                                                  
    0.015371  1a -> 10a                                                 
    0.802868  2a -> 7a                                                  
    0.146183  2a -> 14a                                                 
    0.010633  2a -> 32a                                                 
   -0.401433  4a -> 8a                                                  
   -0.073092  4a -> 15a                                                 
   -0.401434  3a -> 6a                                                  
   -0.073092  3a -> 16a                                                 

 ************************ 2018-07-06 01:03:20 *************************
 Executing goldstone...

 Generation of CC equations in terms of H and T...
 Generation of antisymmetrized Goldstone diagrams...
 Number of diagrams in T^1 equations:    14
 Number of diagrams in T^2 equations:    31
 Translation of diagrams to factorized equations...
 Optimizing intermediate calculation...
 Optimizing right-hand EOMCC calculation...
 Number of floating-point operations per iteration step:   3.6217E+06
 Probable CPU time per iteration step (hours):      0.00
 Required memory (Mbytes):     429.6
 Number of intermediates:                                  84
 Number of intermediates to be stored:                     36
 Length of intermediate file (Mbytes):       8.6

 ************************ 2018-07-06 01:03:22 *************************
 Executing xmrcc...

 **********************************************************************
 CC(                     2 ) calculation 
 
 
 Allocation of 429.6 Mbytes of memory...
 Number of spinorbitals:                    90
 Number of alpha electrons:                        4
 Number of beta electrons:                         1
 z-component of spin:  1.5
 Spatial symmetry:                      8
 Convergence criterion:  1.0E-07
 Construction of occupation graphs...
 Number of                     0 -fold excitations:                      1
 Number of                     1 -fold excitations:                     39
 Number of                     2 -fold excitations:                   1621
 Total number of configurations:                   1661
 Calculation of coupling coefficients...
 Length of intermediate file (Mbytes):       6.8
 
 ======================================================================
 
 ======================================================================
 
 ======================================================================
 
 ======================================================================
 
 Memory requirements /Mbyte/: 
               Minimal        Optimal
 Real*8:         13.1565        41.0088
 Integer:         3.5998
 Total:          16.7563        44.6086
 

 ************************ 2018-07-06 01:03:23 *************************
 Executing mrcc...

 **********************************************************************
 LR-CCSD calculation                                                    
 
 
 OpenMP parallel version is running.
 Number of CPUs:  32
 Allocation of   41.0 Mbytes of memory...
 Number of spinorbitals:  90
 Number of alpha electrons:  4
 Number of beta  electrons:  1
 z-component of spin:  1.5
 Spatial symmetry: 8
 Convergence criterion:  1.0E-07
 Construction of occupation graphs...
 Number of 0-fold excitations: 1
 Number of 1-fold excitations: 39
 Number of 2-fold excitations: 1621
 Total number of determinants: 1661
 Calculation of coupling coefficients...
 Initial cluster amplitudes are read from unit 16.
 Length of intermediate file (Mbytes):       6.8
 Reading integral list from unit 55...
 Sorting integrals...
 Sorting integrals...
 Sorting integrals...
 Sorting integrals...
 Energy of reference determinant [au]:     -54.397609522657
 Calculation of diagonal elements of Hamiltonian...
 Calculation of MP denominators...
 
 Starting CC iteration...
 ======================================================================
 Norm of residual vector:     0.69910028
 CPU time [min]:     0.620                   Wall time [min]:     0.073
 
 Iteration  1  CC energy:   -54.49888978  Energy decrease:   0.09802146
 ======================================================================
 Norm of residual vector:     0.09775667
 CPU time [min]:     0.968                   Wall time [min]:     0.086
 
 Iteration  2  CC energy:   -54.51280705  Energy decrease:   0.01391728
 ======================================================================
 Norm of residual vector:     0.02265559
 CPU time [min]:     1.220                   Wall time [min]:     0.095
 
 Iteration  3  CC energy:   -54.51409650  Energy decrease:   0.00128945
 ======================================================================
 Norm of residual vector:     0.00513329
 CPU time [min]:     1.484                   Wall time [min]:     0.104
 
 Iteration  4  CC energy:   -54.51422911  Energy decrease:   0.00013261
 ======================================================================
 Norm of residual vector:     0.00167609
 CPU time [min]:     1.866                   Wall time [min]:     0.118
 
 Iteration  5  CC energy:   -54.51418031  Energy decrease:   0.00004880
 ======================================================================
 Norm of residual vector:     0.00053275
 CPU time [min]:     2.222                   Wall time [min]:     0.130
 
 Iteration  6  CC energy:   -54.51417855  Energy decrease:   0.00000176
 ======================================================================
 Norm of residual vector:     0.00014211
 CPU time [min]:     2.580                   Wall time [min]:     0.142
 
 Iteration  7  CC energy:   -54.51418455  Energy decrease:   0.00000600
 ======================================================================
 Norm of residual vector:     0.00003074
 CPU time [min]:     2.975                   Wall time [min]:     0.156
 
 Iteration  8  CC energy:   -54.51418381  Energy decrease:   0.00000074
 ======================================================================
 Norm of residual vector:     0.00000505
 CPU time [min]:     3.304                   Wall time [min]:     0.167
 
 Iteration  9  CC energy:   -54.51418378  Energy decrease:   0.00000003
 ======================================================================
 Norm of residual vector:     0.00000137
 CPU time [min]:     3.650                   Wall time [min]:     0.179
 
 Iteration 10  CC energy:   -54.51418382  Energy decrease:   0.00000004
 ======================================================================
 Norm of residual vector:     0.00000024
 CPU time [min]:     4.069                   Wall time [min]:     0.194
 
 Iteration 11  CC energy:   -54.51418381  Energy decrease:   0.00000001
 ======================================================================
 Norm of residual vector:     0.00000005
 CPU time [min]:     4.424                   Wall time [min]:     0.206
 
 Iteration 12  CC energy:   -54.51418381  Energy decrease:   1.4438E-10
 ======================================================================
 
 Iteration has converged in 12 steps.
 
 Final results:
 Total CCSD energy [au]:             -54.514183814893
 Spin multiplicity:                     2
 
 
 
 Dominant cluster amplitudes
 Printing threshold:  1.00E-02
 
    1.000000  Reference determinant                                     
    0.030542  1b -> 5b                                                  
   -0.022088  1b -> 17b                                                 
   -0.017343  1a -> 5a                                                  
    0.021341  1a -> 17a                                                 
    0.011332  1a 1b -> 17a 5b                                           
    0.011214  1a 1b -> 5a 17b                                           
   -0.020678  1a 1b -> 17a 17b                                          
   -0.013270  1a 1b -> 14a 7b                                           
   -0.013760  1a 1b -> 14a 14b                                          
   -0.013270  1a 1b -> 15a 8b                                           
   -0.013760  1a 1b -> 15a 15b                                          
   -0.010833  1a 1b -> 29a 29b                                          
   -0.013270  1a 1b -> 16a 6b                                           
   -0.013760  1a 1b -> 16a 16b                                          
   -0.010833  1a 1b -> 28a 28b                                          
   -0.010833  1a 1b -> 26a 26b                                          
    0.012886  2a 1b -> 9a 2b                                            
   -0.014600  2a 1b -> 25a 2b                                           
    0.015619  2a 1b -> 27a 2b                                           
    0.011365  2a 1b -> 5a 7b                                            
   -0.015976  2a 1b -> 9a 7b                                            
    0.011528  2a 1b -> 10a 7b                                           
    0.019571  2a 1b -> 25a 7b                                           
   -0.020937  2a 1b -> 27a 7b                                           
    0.011018  2a 1b -> 5a 14b                                           
   -0.013862  2a 1b -> 17a 14b                                          
   -0.010648  2a 1b -> 27a 14b                                          
    0.015353  2a 1b -> 14a 5b                                           
   -0.010725  2a 1b -> 7a 17b                                           
   -0.024027  2a 1b -> 14a 17b                                          
   -0.011821  2a 1b -> 32a 17b                                          
    0.013761  2a 1b -> 11a 4b                                           
   -0.018516  2a 1b -> 29a 4b                                           
   -0.017062  2a 1b -> 11a 8b                                           
    0.024820  2a 1b -> 29a 8b                                           
    0.012623  2a 1b -> 29a 15b                                          
    0.013761  2a 1b -> 13a 3b                                           
   -0.018516  2a 1b -> 28a 3b                                           
   -0.017062  2a 1b -> 13a 6b                                           
    0.024820  2a 1b -> 28a 6b                                           
    0.012623  2a 1b -> 28a 16b                                          
   -0.014495  4a 1b -> 9a 4b                                            
    0.020827  4a 1b -> 25a 4b                                           
[...]
    0.010456  1a 1b -> 15a 8b                                           
    0.044275  1a 1b -> 8a 15b                                           
    0.027182  1a 1b -> 6a 3b                                            
   -0.037421  1a 1b -> 6a 6b                                            
   -0.022136  1a 1b -> 6a 16b                                           
    0.013828  2a 1b -> 5a 2b                                            
   -0.015733  2a 1b -> 5a 7b                                            
    0.026168  2a 1b -> 7a 5b                                            
   -0.024964  2a 1b -> 7a 17b                                           
   -0.018004  2a 1b -> 8a 29b                                           
   -0.027653  4a 1b -> 5a 4b                                            
    0.031463  4a 1b -> 5a 8b                                            
   -0.011104  4a 1b -> 17a 8b                                           
   -0.052331  4a 1b -> 8a 5b                                            
    0.049923  4a 1b -> 8a 17b                                           
    0.016935  4a 1b -> 8a 27b                                           
    0.013825  3a 1b -> 5a 3b                                            
   -0.015730  3a 1b -> 5a 6b                                            
   -0.018004  3a 1b -> 8a 26b                                           
    0.026163  3a 1b -> 6a 5b                                            
   -0.024960  3a 1b -> 6a 17b                                           
    0.016666  1a 2a -> 5a 7a                                            
    0.020288  1a 2a -> 7a 17a                                           
   -0.033329  1a 4a -> 5a 8a                                            
   -0.040572  1a 4a -> 8a 17a                                           
    0.012530  1a 4a -> 8a 25a                                           
    0.028256  2a 4a -> 7a 8a                                            
   -0.074994  2a 4a -> 8a 14a                                           
   -0.035374  2a 4a -> 7a 15a                                           
   -0.010077  2a 4a -> 7a 31a                                           
   -0.018219  2a 4a -> 8a 32a                                           
    0.016663  1a 3a -> 5a 6a                                            
    0.020284  1a 3a -> 6a 17a                                           
    0.056518  2a 3a -> 6a 7a                                            
    0.039621  2a 3a -> 6a 14a                                           
   -0.039627  2a 3a -> 7a 16a                                           
    0.028261  3a 4a -> 6a 8a                                            
   -0.035367  3a 4a -> 6a 15a                                           
   -0.074995  3a 4a -> 8a 16a                                           
   -0.018218  3a 4a -> 8a 30a                                           
   -0.010076  3a 4a -> 6a 31a                                           
    0.010168  2a 3a 4a -> 6a 7a 15a                                     
    0.011643  2a 3a 4a -> 8a 14a 16a                                    
 
 Starting right-hand LR-CC iteration for root                      3 ...
 ======================================================================
 Norm of residual vector:     0.00945805      Convergence:   1.00000000
 CPU time [min]:   581.240                   Wall time [min]:    23.117
 
 Iteration  1  CI energy:   -54.07199698  Energy decrease:   0.44521947
 ======================================================================
 Norm of residual vector:     0.00179891      Convergence:   0.00155229
 CPU time [min]:   612.224                   Wall time [min]:    24.406
 
 Iteration  2  CI energy:   -54.07200314  Energy decrease:   0.00000616
 ======================================================================
 Norm of residual vector:     0.00044624      Convergence:   0.00035327
 CPU time [min]:   643.688                   Wall time [min]:    25.649
 
 Iteration  3  CI energy:   -54.07199861  Energy decrease:   0.00000453
 ======================================================================
 Norm of residual vector:     0.00016144      Convergence:   0.00013336
 CPU time [min]:   675.072                   Wall time [min]:    26.914
 
 Iteration  4  CI energy:   -54.07199084  Energy decrease:   0.00000777
 ======================================================================
 Norm of residual vector:     0.00007532      Convergence:   0.00007008
 CPU time [min]:   706.541                   Wall time [min]:    28.301
 
 Iteration  5  CI energy:   -54.07198847  Energy decrease:   0.00000236
 ======================================================================
 Norm of residual vector:     0.00002343      Convergence:   0.00002359
 CPU time [min]:   738.882                   Wall time [min]:    29.623
 
 Iteration  6  CI energy:   -54.07198784  Energy decrease:   0.00000063
 ======================================================================
 Norm of residual vector:     0.00000794      Convergence:   0.00000770
 CPU time [min]:   770.232                   Wall time [min]:    30.891
 
 Iteration  7  CI energy:   -54.07198779  Energy decrease:   0.00000005
 ======================================================================
 Norm of residual vector:     0.00000282      Convergence:   0.00000264
 CPU time [min]:   802.076                   Wall time [min]:    32.098
 
 Iteration  8  CI energy:   -54.07198771  Energy decrease:   0.00000008
 ======================================================================
 Norm of residual vector:     0.00000099      Convergence:   0.00000095
 CPU time [min]:   834.027                   Wall time [min]:    33.367
 
 Iteration  9  CI energy:   -54.07198769  Energy decrease:   0.00000002
 ======================================================================
 Norm of residual vector:     0.00000039      Convergence:   0.00000053
 CPU time [min]:   865.532                   Wall time [min]:    34.557
 
 Iteration 10  CI energy:   -54.07198769  Energy decrease:   1.0472E-09
 ======================================================================
 Norm of residual vector:     0.00000022      Convergence:   0.00000024
 CPU time [min]:   897.831                   Wall time [min]:    35.794
 
 Iteration 11  CI energy:   -54.07198769  Energy decrease:   3.7448E-10
 ======================================================================
 Norm of residual vector:     0.0000E+00      Convergence:   8.8204E-08
 CPU time [min]:   929.744                   Wall time [min]:    36.998
 
 Iteration 12  CI energy:   -54.07198769  Energy decrease:   4.2785E-10
 ======================================================================
 
 Iteration has converged in 12 steps.
 
 Final results:
 Total LR-CCSDTQP energy [au]:       -54.071987689589
 Excitation energy [eV]:          12.1153
 Excitation energy [cm^-1]:    97716.42
 Absorption wavelength [nm]:     102.34
 Spin multiplicity:                     2
 
 
 
 Dominant CI coefficients
 Printing threshold:  1.00E-02
 
    0.017802  1a -> 10a                                                 
    0.390212  2a -> 7a                                                  
    0.062985  2a -> 14a                                                 
    0.390171  4a -> 8a                                                  
    0.062979  4a -> 15a                                                 
   -0.780383  3a -> 6a                                                  
   -0.125964  3a -> 16a                                                 
   -0.027185  1a 1b -> 7a 2b                                            
    0.037426  1a 1b -> 7a 7b                                            
    0.022139  1a 1b -> 7a 14b                                           
   -0.027183  1a 1b -> 8a 4b                                            
    0.037422  1a 1b -> 8a 8b                                            
    0.022137  1a 1b -> 8a 15b                                           
    0.054368  1a 1b -> 6a 3b                                            
   -0.074847  1a 1b -> 6a 6b                                            
   -0.010456  1a 1b -> 16a 6b                                           
   -0.044275  1a 1b -> 6a 16b                                           
   -0.013827  2a 1b -> 5a 2b                                            
    0.015733  2a 1b -> 5a 7b                                            
   -0.026167  2a 1b -> 7a 5b                                            
    0.024963  2a 1b -> 7a 17b                                           
    0.018004  2a 1b -> 6a 28b                                           
   -0.013826  4a 1b -> 5a 4b                                            
    0.015731  4a 1b -> 5a 8b                                            
   -0.026164  4a 1b -> 8a 5b                                            
    0.024960  4a 1b -> 8a 17b                                           
    0.018004  4a 1b -> 6a 26b                                           
    0.027653  3a 1b -> 5a 3b                                            
   -0.031463  3a 1b -> 5a 6b                                            
    0.011104  3a 1b -> 17a 6b                                           
    0.052331  3a 1b -> 6a 5b                                            
   -0.049923  3a 1b -> 6a 17b                                           
    0.010987  3a 1b -> 6a 25b                                           
    0.014840  3a 1b -> 6a 27b                                           
   -0.016666  1a 2a -> 5a 7a                                            
   -0.020287  1a 2a -> 7a 17a                                           
   -0.016664  1a 4a -> 5a 8a                                            
   -0.020285  1a 4a -> 8a 17a                                           
    0.056518  2a 4a -> 7a 8a                                            
   -0.039622  2a 4a -> 8a 14a                                           
    0.039626  2a 4a -> 7a 15a                                           
    0.033329  1a 3a -> 5a 6a                                            
    0.040572  1a 3a -> 6a 17a                                           
    0.012305  1a 3a -> 6a 27a                                           
    0.028257  2a 3a -> 6a 7a                                            
    0.074995  2a 3a -> 6a 14a                                           
    0.035372  2a 3a -> 7a 16a                                           
    0.010077  2a 3a -> 7a 30a                                           
    0.018219  2a 3a -> 6a 32a                                           
   -0.028260  3a 4a -> 6a 8a                                            
   -0.074995  3a 4a -> 6a 15a                                           
   -0.035368  3a 4a -> 8a 16a                                           
   -0.010076  3a 4a -> 8a 30a                                           
   -0.018218  3a 4a -> 6a 31a                                           
    0.011643  2a 3a 4a -> 6a 14a 15a                                    
   -0.010168  2a 3a 4a -> 7a 8a 16a                                     
 
 Starting right-hand LR-CC iteration for root                      4 ...
 ======================================================================
 Norm of residual vector:     0.00945805      Convergence:   1.00000000
 CPU time [min]:   960.418                   Wall time [min]:    38.190
 
 Iteration  1  CI energy:   -54.07199698  Energy decrease:   0.44521947
 ======================================================================
 Norm of residual vector:     0.00179889      Convergence:   0.00155229
 CPU time [min]:   991.914                   Wall time [min]:    39.407
 
 Iteration  2  CI energy:   -54.07200314  Energy decrease:   0.00000616
 ======================================================================
 Norm of residual vector:     0.00044626      Convergence:   0.00035327
 CPU time [min]:  1024.435                   Wall time [min]:    40.811
 
 Iteration  3  CI energy:   -54.07199861  Energy decrease:   0.00000453
 ======================================================================
 Norm of residual vector:     0.00016145      Convergence:   0.00013336
 CPU time [min]:  1055.770                   Wall time [min]:    42.237
 
 Iteration  4  CI energy:   -54.07199084  Energy decrease:   0.00000777
 ======================================================================
 Norm of residual vector:     0.00007533      Convergence:   0.00007008
 CPU time [min]:  1086.848                   Wall time [min]:    43.479
 
 Iteration  5  CI energy:   -54.07198847  Energy decrease:   0.00000236
 ======================================================================
 Norm of residual vector:     0.00002344      Convergence:   0.00002359
 CPU time [min]:  1118.106                   Wall time [min]:    44.685
 
 Iteration  6  CI energy:   -54.07198784  Energy decrease:   0.00000063
 ======================================================================
 Norm of residual vector:     0.00000794      Convergence:   0.00000770
 CPU time [min]:  1149.671                   Wall time [min]:    45.911
 
 Iteration  7  CI energy:   -54.07198779  Energy decrease:   0.00000005
 ======================================================================
 Norm of residual vector:     0.00000282      Convergence:   0.00000264
 CPU time [min]:  1182.084                   Wall time [min]:    47.116
 
 Iteration  8  CI energy:   -54.07198771  Energy decrease:   0.00000008
 ======================================================================
 Norm of residual vector:     0.00000099      Convergence:   0.00000091
 CPU time [min]:  1213.684                   Wall time [min]:    48.296
 
 Iteration  9  CI energy:   -54.07198769  Energy decrease:   0.00000002
 ======================================================================
 Norm of residual vector:     0.00000036      Convergence:   0.00000035
 CPU time [min]:  1245.327                   Wall time [min]:    49.519
 
 Iteration 10  CI energy:   -54.07198769  Energy decrease:   9.7896E-10
 ======================================================================
 Norm of residual vector:     0.00000016      Convergence:   0.00000021
 CPU time [min]:  1277.724                   Wall time [min]:    50.754
 
 Iteration 11  CI energy:   -54.07198769  Energy decrease:   6.2172E-10
 ======================================================================
 Norm of residual vector:     0.0000E+00      Convergence:   9.2144E-08
 CPU time [min]:  1309.827                   Wall time [min]:    51.943
 
 Iteration 12  CI energy:   -54.07198769  Energy decrease:   2.0805E-10
 ======================================================================
 
 Iteration has converged in 12 steps.
 
 Final results:
 Total LR-CCSDTQP energy [au]:       -54.071987689581
 Excitation energy [eV]:          12.1153
 Excitation energy [cm^-1]:    97716.42
 Absorption wavelength [nm]:     102.34
 Spin multiplicity:                     2
 
 Dominant CI coefficients
 Printing threshold:  1.00E-02
 
   -0.014511  1a -> 9a                                                  
    0.010470  1a -> 10a                                                 
    0.780383  2a -> 7a                                                  
    0.125964  2a -> 14a                                                 
   -0.390204  4a -> 8a                                                  
   -0.062984  4a -> 15a                                                 
   -0.390179  3a -> 6a                                                  
   -0.062980  3a -> 16a                                                 
   -0.054368  1a 1b -> 7a 2b                                            
    0.074847  1a 1b -> 7a 7b                                            
    0.010456  1a 1b -> 14a 7b                                           
    0.044275  1a 1b -> 7a 14b                                           
    0.027185  1a 1b -> 8a 4b                                            
   -0.037425  1a 1b -> 8a 8b                                            
   -0.022138  1a 1b -> 8a 15b                                           
    0.027183  1a 1b -> 6a 3b                                            
   -0.037422  1a 1b -> 6a 6b                                            
   -0.022137  1a 1b -> 6a 16b                                           
   -0.027653  2a 1b -> 5a 2b                                            
    0.031463  2a 1b -> 5a 7b                                            
   -0.011104  2a 1b -> 17a 7b                                           
   -0.052331  2a 1b -> 7a 5b                                            
    0.049923  2a 1b -> 7a 17b                                           
    0.018346  2a 1b -> 7a 25b                                           
    0.013827  4a 1b -> 5a 4b                                            
   -0.015732  4a 1b -> 5a 8b                                            
   -0.018004  4a 1b -> 7a 29b                                           
    0.026166  4a 1b -> 8a 5b                                            
   -0.024962  4a 1b -> 8a 17b                                           
    0.013826  3a 1b -> 5a 3b                                            
   -0.015731  3a 1b -> 5a 6b                                            
   -0.018004  3a 1b -> 7a 28b                                           
    0.026165  3a 1b -> 6a 5b                                            
   -0.024961  3a 1b -> 6a 17b                                           
   -0.033329  1a 2a -> 5a 7a                                            
   -0.040572  1a 2a -> 7a 17a                                           
    0.016665  1a 4a -> 5a 8a                                            
    0.020287  1a 4a -> 8a 17a                                           
    0.028258  2a 4a -> 7a 8a                                            
    0.035372  2a 4a -> 8a 14a                                           
    0.074995  2a 4a -> 7a 15a                                           
    0.018219  2a 4a -> 7a 31a                                           
    0.010077  2a 4a -> 8a 32a                                           
    0.016664  1a 3a -> 5a 6a                                            
    0.020285  1a 3a -> 6a 17a                                           
   -0.028260  2a 3a -> 6a 7a                                            
    0.035369  2a 3a -> 6a 14a                                           
    0.074995  2a 3a -> 7a 16a                                           
    0.018218  2a 3a -> 7a 30a                                           
    0.010076  2a 3a -> 6a 32a                                           
   -0.056518  3a 4a -> 6a 8a                                            
   -0.039623  3a 4a -> 6a 15a                                           
    0.039625  3a 4a -> 8a 16a                                           
   -0.010168  2a 3a 4a -> 6a 8a 14a                                     
   -0.011643  2a 3a 4a -> 7a 15a 16a                                    
 
 ************************ 2018-07-06 02:10:47 *************************
                      Normal termination of mrcc.
 **********************************************************************
--executable dmrcc finished with status     0 in     4066.97 seconds (walltime).
  The final electronic energy is       -54.071987689580553 a.u. 
  This computation required                         4085.93 seconds (walltime).
--- SharcNET Job Epilogue ---
Job completed successfully.
               jobid: 1552013
               resid: 3029744
         exit status: 0
      allocated time: 4087.18
           user time: 92718.9
         system time: 14385.7
peak rss=4655452160; peak vsz=4655452160 (bytes)
atime=4087.18; utime=92718.9; stime=14385.7; exit=0
