 --invoking executable--
/home/nike/cfour_v2.00beta/cfour_v2.00beta/bin/xjoda


   *************************************************************************
         <<<     CCCCCC     CCCCCC   |||     CCCCCC     CCCCCC   >>>
       <<<      CCC        CCC       |||    CCC        CCC         >>>
      <<<      CCC        CCC        |||   CCC        CCC            >>>
    <<<        CCC        CCC        |||   CCC        CCC              >>>
      <<<      CCC        CCC        |||   CCC        CCC            >>>
       <<<      CCC        CCC       |||    CCC        CCC         >>>
         <<<     CCCCCC     CCCCCC   |||     CCCCCC     CCCCCC   >>>
   *************************************************************************

     ****************************************************************
     * CFOUR Coupled-Cluster techniques for Computational Chemistry *
     ****************************************************************
 

   Department of Chemistry                Institut fuer Physikalische Chemie
   University of Texas at Austin          Universitaet Mainz
   Austin, TX  78712, USA                 D-55099 Mainz, Germany
 
                       Version 2.00beta
 
                     blg4113.int.ets1.calculquebec.ca                  
                     Sa 7. Mär 17:15:11 EST 2020                      
                     integer*8 version is running
 
********************************************************************************
*                          Input from ZMAT file                                *
********************************************************************************
TITLE                                                                           
As                                                                              
H 1 R                                                                           
H 1 R 2 A                                                                       
H 1 R 2 A 3 D                                                                   
                                                                                
R=2.85537617431                                                                 
A=92.083                                                                        
D=92.2                                                                          
                                                                                
*ACES2(CALC=CCSD(T)                                                             
UNITS=BOHR                                                                      
#GEOM=1.511*10/5.29177210903                                                    
#COORD=CARTESIAN                                                                
COORD=INTERNAL                                                                  
PRINT=4                                                                         
JODA_PRINT=4                                                                    
INPUT_MRCC=OFF                                                                  
#CC_PROG=MRCC                                                                   
#FROZEN_CORE=ON                                                                 
DROPMO=1>9                                                                      
CONTRACTION=GENERAL                                                             
#CONTRACTION=SEGMENTED                                                          
RELATIVISTIC=OFF                                                                
#EXCITE=EOMEE                                                                   
#ESTATE_CONV=5                                                                  
#ESTATE_SYM=2/2/2/2/2/2/2/2                                                     
XFORM_TOL=18                                                                    
SAVE_INTS=ON                                                                    
SCF_EXPORDER=6                                                                  
SCF_EXPSTART=5                                                                  
#SCF_DAMPING=1000                                                               
SCF_EXTRAPOLATION=ON                                                            
SCF_CONV=12                                                                     
SCF_MAXCYC=99999                                                                
CC_CONV=9                                                                       
CC_MAXCYC=999                                                                   
T3_EXTRAPOL=ON                                                                  
REFERENCE=RHF                                                                   
CHARGE=+0                                                                       
MULT=1                                                                          
ABCDTYPE=STANDARD                                                               
#OCCUPATION=3-2-2-0-1-0-0-0/3-1-1-0-1-0-0-0                                     
MEM=12                                                                          
MEM_UNIT=GB                                                                     
BASIS=SPECIAL)                                                                  
                                                                                
AS:def2-TZVPP                                                                   
H:def2-TZVPP                                                                    
H:def2-TZVPP                                                                    
H:def2-TZVPP                                                                    
                                                                                
********************************************************************************
  @GTFLGS-W, Keyword #GEOM not known and is ignored.
  @GTFLGS-W, Keyword #COORD not known and is ignored.
  @GTFLGS-W, Keyword #CC_PROG not known and is ignored.
  @GTFLGS-W, Keyword #FROZEN_CORE not known and is ignored.
  @GTFLGS-W, Keyword #CONTRACTION not known and is ignored.
  @GTFLGS-W, Keyword #EXCITE not known and is ignored.
  @GTFLGS-W, Keyword #ESTATE_CONV not known and is ignored.
  @GTFLGS-W, Keyword #ESTATE_SYM not known and is ignored.
  @GTFLGS-W, Keyword #SCF_DAMPING not known and is ignored.
  @GTFLGS-W, Keyword #OCCUPATION not known and is ignored.
    -------------------------------------------------------------------
                    CFOUR Control Parameters 
    -------------------------------------------------------------------
        External           Internal           Value            Units
          Name               Name
    -------------------------------------------------------------------
       ABCDTYPE             IABCDT         STANDARD     [  0]   ***   
       ANHARMONIC           IANHAR         OFF          [  0]   ***   
       ANH_ALGORIT          IANALG         STANDARD     [  0]   ***   
       ANH_DERIVAT          IANDER         SECOND       [  1]   ***   
       ANH_STEPSIZ          ICUBST             50000          x 10-6  
       ANH_SYMMETR          IANHSM         ABELIAN      [  0]   ***   
       AO_LADDERS           IAOLAD         SINGLEPASS   [  1]   ***   
       BASIS                IBASIS         SPECIAL      [  0]   ***   
       BREIT                IBREIT         OFF          [  0]   ***   
       BRUCK_CONV           IBRTOL          10D-  4             ***   
       BRUECKNER            IBRKNR             OFF      [  0]   ***   
       BUFFERSIZE           IBUFFS            600               ***   
       CACHE_RECS           ICHREC             10               ***   
       CALCLEVEL            ICLLVL           CCSD(T)    [ 22]   ***   
       CCORBOPT             ICCORB             OFF      [  0] x 0.01  
       CC_CONV              ICCCNV          10D-  9             ***   
       CC_EXPORDER          ICCEOR              5               ***   
       CC_EXTRAPOL          ICCEXT             DIIS     [  1]   ***   
       CC_MAXCYC            ICCCYC            999              cycles 
       CC_PROGRAM           ICCPRO         VCC          [  0]   ***   
       CHARGE               ICHRGE              0               ***   
       CHOLESKY             ICHOLE         OFF          [  0]   ***   
       CIS_CONV             ICISTL              5               ***   
       COMM_SIZE            IPSIZE            ***               ***   
       CONSTANT             ICONST         OLD          [  1]   ***   
       CONTINUUM            ICONTU         NONE         [  0]   ***   
       CONTRACTION          ICNTYP          GENERAL     [  1]   ***   
       COORDINATES          ICOORD         INTERNAL     [  0]   ***   
       CPHF_CONVER          ICPHFT          10D- 16             ***   
       CPHF_MAXCYC          ICPHFC             64              cycles 
       CUBIC                ICUBIC         OFF          [  0]   ***   
       CURVILINEAR          ICURVY            OFF       [  0]   ***   
       DBOC                 IDBOC          OFF          [  0]   ***   
       DCT                  IDCT           OFF          [  0]   ***   
       DERIV_LEV            IDRLVL            ZERO      [  0]   ***   
       DIAG_MRCC            IEOMST          10D-  0             ***   
       DIFF_TYPE            IDIFTY         RELAXED      [  0]   ***   
       DIRECT               IDIRCT         OFF          [  0]   ***   
       DROPMO               IDRPMO   1,  2,  3,  4,  5,  6,  7,  8,
                                     9,
       ECP                  IECP           OFF          [  0]   ***   
       EIGENVECTOR          IVEC                1               ***   
       EL_ANHARM            IELANH         OFF          [  0]   ***   
       EOMFOLLOW            IEOMSR         ENERGY       [  0]   ***   
       EOM_MRCC             IMRCCE         NEW          [  1]   ***   
       EOM_NONIT            EOMNON         OFF          [  0]   ***   
       EOM_NSING            IEOMSI          10D-  0             ***   
       EOM_NSTATES          IMRCCD         DAVIDSON     [  0]   ***   
       EOM_NTRIP            IEOMTR          10D-  0             ***   
       EOM_ORDER            IEXORD         ENERGY       [  0]   ***   
       ESTATE_CONV          IEXTOL          10D-  5             ***   
       ESTATE_DIAG          IEXDIG         ITERATIVE    [  0]   ***   
       ESTATE_LOCK          IESLOC         ON           [  1]   ***   
       ESTATE_MAXC          IEXMXC             20               ***   
       ESTATE_PROP          IEXPRP         OFF          [  0]   ***   
       EVAL_HESS            IRECAL              0            # of cyc.
       EXCITATION           IEXCIT              0               ***   
       EXCITE               IEXCIT         NONE         [  0]   ***   
       FCGRADNEW            IFCGNW         OFF          [  0]   ***   
       FC_FIELD             IFINFC              0             x 10-6  
       FD_CALTYPE           IFDCAL         GRADONLY     [  0]   ***   
       FD_PROJECT           IFDPRJ         OFF          [  1]   ***   
       FD_STEPSIZE          IDISFD              0            10-4 bohr
       FD_USEGROUP          IFDGRP         FULL         [  0]   ***   
       FILE_RECSIZ          IFLREC              4096           words  
       FINITE_PERT          IFIPER              0             x 10-6  
       FIXGEOM              IFIXGM         OFF          [  0]   ***   
       FOCK                 IFOCK          AO           [  1]   ***   
       FREQ_ALGORI          IVIALG         STANDARD     [  0]   ***   
       FROZEN_CORE          IFROCO         OFF          [  0]   ***   
       FROZEN_VIRT          IFROVI         OFF          [  0]   ***   
       GAMMA_ABCD           IGABCD         STORE        [  0]   ***   
       GAMMA_ABCI           IGABCI         STORE        [  0]   ***   
       GENBAS_1             IGNBS1              0               ***   
       GENBAS_2             IGNBS2              0               ***   
       GENBAS_3             IGNBS3              0               ***   
       GENBAS_4             IGNBS4              0               ***   
       GEO_CONV             ICONTL              5              H/bohr 
       GEO_MAXCYC           IOPTCY             50               ***   
       GEO_MAXSTEP          IMXSTP            300            millibohr
       GEO_METHOD           INR            SINGLE_POINT [  5]   ***   
       GIAO                 IGIAO          OFF          [  1]   ***   
       GIMIC                IGIMIC         OFF          [  0]   ***   
       GRID                 IGRID          OFF          [  0]   ***   
       GRID_ALGO            IGALGO         SERIAL       [  0]   ***   
       GUESS                IGUESS            MOREAD    [  0]   ***   
       HBAR                 IHBAR              OFF      [  0]   ***   
       HESS_TYPE            IHESTP         SCF          [  0]   ***   
       HF2_FILE             IHF2Fl         USE          [  1]   ***   
       HFSTABILITY          ISTABL         OFF          [  0]   ***   
       INCORE               INCORE             OFF      [  0]   ***   
       INPUT_MRCC           IMRCC          OFF          [  0]   ***   
       INTEGRALS            INTTYP             VMOL     [  1]   ***   
       JODA_PRINT           IJPRNT              4               ***   
       LINDEP_TOL           ILINDP              8               ***   
       LINEQ_CONV           IZTACN          10D-  7           cycles  
       LINEQ_EXPOR          ILMAXD              5               ***   
       LINEQ_MAXCY          ILMAXC             50               ***   
       LINEQ_TYPE           ILTYPE         DIIS         [  1]   ***   
       LOCK_ORBOCC          ILOCOC             OFF      [  0]   ***   
       MEMORY_SIZE          IMEMSZ         *********           words  
       MEM_UNIT             IMEMU          GB           [  3]   ***   
       MRCC                 IMRCCC         OFF          [  0]   ***   
       MULTIPLICTY          IMULTP              1               ***   
       NEGEVAL              IDIE             ABORT      [  0]   ***   
       NEWNORM              INEWNO         OFF          [  0]   ***   
       NON-HF               INONHF             OFF      [  0]   ***   
       NTOP_TAMP            ITOPT2             15               ***   
       NUC_MODEL            INUCMO         POINT        [  0]   ***   
       OCCUPATION           IOCCU   ESTIMATED BY SCF 
       OPEN-SHELL           IOPEN          SPIN-ORBITAL [  0]   ***   
       ORBITALS             IORBTP           STANDARD   [  0]   ***   
       PARALLEL             IPARAL         ON           [  1]   ***   
       PARA_INT             IPINTS         ON           [  1]   ***   
       PARA_PRINT           IPPRIN              0               ***   
       PERT_ORB             IPTORB         STANDARD     [  0]   ***   
       POINTS               IGRDFD              0               ***   
       PRINT                IPRNT               4               ***   
       PROPS                IPROPS             OFF      [  0]   ***   
       PROP_INTEGR          IINTYP         INTERNAL     [  0]   ***   
       PSI                  IPSI           OFF          [  0]   ***   
       QUARTIC              IQUART         OFF          [  0]   ***   
       RAMAN_INT            IRAMIN         OFF          [  0]   ***   
       RAMAN_ORB            IRAMRE         UNRELAXED    [  0]   ***   
       RDO                  IRDOFM             OFF      [  0]   ***   
       REFERENCE            IREFNC             RHF      [  0]   ***   
       RELATIVIST           IRELAT         OFF          [  0]   ***   
       RELAX_DENS           IRDENS             OFF      [  0]   ***   
       RESET_FLAGS          IRESET             OFF      [  0]   ***   
       RESTART_CC           ICCRES         OFF          [  0]   ***   
       ROT_EVEC             ROTVEC              0               ***   
       SAVE_INTS            ISVINT              ON      [  1]   ***   
       SCALE_ON             ISTCRT              0               ***   
       SCF_CONV             ISCFCV          10D- 12             ***   
       SCF_DAMPING          IDAMP               0             x 10-3  
       SCF_EXPORDE          IRPPOR              6               ***   
       SCF_EXPSTAR          IRPPLS              5               ***   
       SCF_EXTRAPO          IRPP                ON      [  1]   ***   
       SCF_MAXCYC           ISCFCY            ***              cycles 
       SCF_NOSTOP           ISCFST         OFF          [  0]   ***   
       SCF_PRINT            ISCFPR              0               ***   
       SD_FIELD             IFINSD              0             x 10-6  
       SEQUENCE             ISEQUE         OFF          [  0]   ***   
       SOPERT               IPERSO         OFF          [  0]   ***   
       SPHERICAL            IDFGHI             ON       [  1]   ***   
       SPINORBIT            ISOCAL         OFF          [  0]   ***   
       SPINROTATIO          ISRCON         OFF          [  0]   ***   
       SPIN_FLIP            ISPFLP         OFF          [  0]   ***   
       SPIN_ORBIT           ISPORB         OFF          [  0]   ***   
       SPIN_SCAL            ISCSMP         OFF          [  0]   ***   
       SUBGROUP             ISUBGP         DEFAULT      [  0]   ***   
       SUBGRPAXIS           ISBXYZ         X            [  0]   ***   
       SYMMETRY             ISYM             ON         [  0]   ***   
       SYM_CHECK            ISYMCK         OVERRIDE     [  1]   ***   
       T3_EXTRAPOL          IT3EXT         ON           [  1]   ***   
       TAMP_SUM             IEVERY              5               ***   
       TESTSUITE            ITESTS         OFF          [  0]   ***   
       THERMOCH             ITHERM         OFF          [  0]   ***   
       TOL_CHOLESK          ITOLCH          10D-  4             ***   
       TRANGRAD             IRESRM         OFF          [  0]   ***   
       TRANS_INV            ITRAIN         USE          [  0]   ***   
       TREAT_PERT           ITREAT         SIMULTANEOUS [  0]   ***   
       UIJ_THRESHO          IUIJTH              1               ***   
       UNITS                IUNITS         BOHR         [  1]   ***   
       UNOS                 IUNOS          OFF          [  0]   ***   
       UPDATE_HESS          IHUPDT         ON           [  1]   ***   
       VIBPHASE             ISETPH         STANDARD     [  0]   ***   
       VIBRATION            IVIB              NO        [  0]   ***   
       VIB_ALGORIT          IGEALG         STANDARD     [  0]   ***   
       VNATORB              IVNORB         OFF          [  0]   ***   
       VTRAN                IVTRAN         FULL/PARTIAL [  0]   ***   
       XFIELD               IXEFLD              0             x 10-6  
       XFORM_TOL            IXFTOL          10D- 18             ***   
       YFIELD               IYEFLD              0             x 10-6  
       ZFIELD               IZEFLD              0             x 10-6  
    -------------------------------------------------------------------
   4 entries found in Z-matrix 
   Job Title : TITLE                                                                           
 Variable names read by FETCHZ
  1           
  2           
  3           
  4 R         
  5           
  6           
  7 R         
  8 A         
  9           
 10 R         
 11 A         
 12 D         
 Atomic symbols read by FETCHZ
  1 As   
  2 H    
  3 H    
  4 H    
 Connectivity matrix read by FETCHZ
  1   0
  2   0
  3   0
  4   1
  5   0
  6   0
  7   1
  8   2
  9   0
 10   1
 11   2
 12   3
   There are  3 unique internal coordinates.
   Of these,  0 will be optimized.
   User supplied Z-matrix: 
--------------------------------------------------------------------------------
       SYMBOL    BOND      LENGTH    ANGLE     ANGLE     DIHED     ANGLE
                  TO      (ANGST)    WRT      (DEG)      WRT      (DEG)
--------------------------------------------------------------------------------
        As   
        H          1         R    
        H          1         R          2        A    
        H          1         R          2        A          3        D    
                  *Initial values for internal coordinates* 
                      Name             Value
                        R               2.8553761743
                        A              92.0830000000
                        D              92.2000000000
--------------------------------------------------------------------------------
  1  AS        33    74.92159
  2  H          1     1.00783
  3  H          1     1.00783
  4  H          1     1.00783
   74.9215942000
    1.0078250350
    1.0078250350
    1.0078250350
 After translation to center of mass coordinates 
       -0.035479110220    0.036868250512   -0.034235975606
       -0.035479110220    0.036868250512    2.821140198704
        2.818010294898    0.036868250512   -0.138020905616
       -0.145018316736   -2.814517894393   -0.138020905616
  Inertia tensor (amu*bohr**2)
   16.23540   -0.41674    0.38169
   -0.41674   16.26742   -0.39663
    0.38169   -0.39663   16.20817
    Inertia tensor:
       16.235398987851   -0.416738896262    0.381686008127
       -0.416738896262   16.267417974899   -0.396630447533
        0.381686008127   -0.396630447533   16.208169796331
    Principal axis orientation for molecular system: 
        0.000000000000    0.000141311999   -0.061563927867
        0.000000000001   -2.376638541421    1.520867942765
        2.056084963025    1.183066712032    1.527893595817
       -2.056084963026    1.183066712031    1.527893595817
    Diagonalized inertia tensor:
       15.834362187133    0.000000000000    0.000000000000
        0.000000000000   15.841683853656    0.000000000000
        0.000000000000    0.000000000000   17.034940718290
    Eigenvectors of inertia tensor: 
        0.720551111680    0.384279017977    0.577179115872
        0.693401828276   -0.399324983447   -0.599777843988
        0.000000000000   -0.832387646435    0.554193834378
 factor:   60.1997200000000     
   Rotational constants (in cm-1): 
          3.5338966537             3.8000834101             3.8018405344
   Rotational constants (in MHz): 
     105943.5712548299        113923.6505716206        113976.3278420219
  @SYMMETRY-I, Handedness of inertial frame:-1.00000
  @SYMMETRY-I, Sense of inertial frame y-axis will be changed.
  @SYMMETRY-I, The symmetry group is 1-fold degenerate.
  @SYMMETRY-I, The molecule belongs to an Abelian group.
   Principal axis orientation for molecule:
        0.000000000000   -0.000141311999   -0.061563927867
        0.000000000001    2.376638541421    1.520867942765
        2.056084963025   -1.183066712032    1.527893595817
       -2.056084963026   -1.183066712031    1.527893595817
   Reflection in plane  1 is a valid symmetry operation.
  Symmetry bits:    1   0   0
********************************************************************************
   The full molecular point group is C s .
   The largest Abelian subgroup of the full molecular point group is C s .
   The computational point group is C s .
********************************************************************************
--------------------------------------------------------------------------------
   Analysis of internal coordinates specified by Z-matrix 
--------------------------------------------------------------------------------
   *The nuclear repulsion energy is   35.401137442811226 a.u.
   *There are   4 degrees of freedom within the tot. symm. molecular subspace.
   *Z-matrix requests optimization of   0 coordinates.
   *The optimization is constrained.
   *The following   3 parameters can have non-zero 
    derivatives within the totally symmetric subspace:
             A    [ 3]  D    [ 6]  R    [ 1]
   *The following   0 parameters are to be optimized:

   *The following coordinates must be varied in an  unconstrained optimization.
             A    [ 3]  D    [ 6]  R    [ 1]
--------------------------------------------------------------------------------
 ----------------------------------------------------------------
 Z-matrix   Atomic            Coordinates (in bohr)
  Symbol    Number           X              Y              Z
 ----------------------------------------------------------------
     AS       33        -0.00014131    -0.06156393     0.00000000
     H         1         2.37663854     1.52086794     0.00000000
     H         1        -1.18306671     1.52789360     2.05608496
     H         1        -1.18306671     1.52789360    -2.05608496
 ----------------------------------------------------------------
   Interatomic distance matrix (Angstroms) 
 
                 AS            H             H             H    
                [ 1]        [ 2]        [ 3]        [ 4]
  AS   [ 1]     0.00000
  H    [ 2]     1.51100     0.00000
  H    [ 3]     1.51100     2.17536     0.00000
  H    [ 4]     1.51100     2.17536     2.17607     0.00000
  Inertia tensor (amu*bohr**2)
   15.84168   -0.00000    0.00000
   -0.00000   17.03494   -0.00000
    0.00000   -0.00000   15.83436
   Rotational constants (in cm-1): 
          3.8000834101             3.5338966537             3.8018405344
   Rotational constants (in MHz): 
     113923.6505716206        105943.5712548299        113976.3278420220
  @GTFLGS-W, Keyword #GEOM not known and is ignored.
  @GTFLGS-W, Keyword #COORD not known and is ignored.
  @GTFLGS-W, Keyword #CC_PROG not known and is ignored.
  @GTFLGS-W, Keyword #FROZEN_CORE not known and is ignored.
  @GTFLGS-W, Keyword #CONTRACTION not known and is ignored.
  @GTFLGS-W, Keyword #EXCITE not known and is ignored.
  @GTFLGS-W, Keyword #ESTATE_CONV not known and is ignored.
  @GTFLGS-W, Keyword #ESTATE_SYM not known and is ignored.
  @GTFLGS-W, Keyword #SCF_DAMPING not known and is ignored.
  @GTFLGS-W, Keyword #OCCUPATION not known and is ignored.
  There are   90 basis functions.
 @GEOPT-W, Archive file not created for single-point calculation.
  @CHECKOUT-I, Total execution time (CPU/WALL):        0.75/       1.85 seconds.
--executable xjoda finished with status     0 in        4.68 seconds (walltime).
 --invoking executable--
/home/nike/cfour_v2.00beta/cfour_v2.00beta/bin/xvmol
 Serial version of molecule started
********************************************************************************
                    Input from MOL file
********************************************************************************
INTGRL        1    0    1    0    0    0    0    0    0                         
         *** CFOUR Program System (Release V0.1) ***                            
TITLE                                                                           
    3    1 Z          0.10E-08              0    0                              
   9999.00      3.00                                                            
         33.00000000    1    4    1    1    1    1                              
AS#1  -0.000141311999337  -0.061563927866986   0.000000000000000                
   17    6                                                                      
   498032.421580000       2.274019690000000E-004  0.000000000000000E+000        
  0.000000000000000E+000  0.000000000000000E+000  0.000000000000000E+000        
  0.000000000000000E+000                                                        
   74656.8687430000       1.763281641300000E-003  0.000000000000000E+000        
  0.000000000000000E+000  0.000000000000000E+000  0.000000000000000E+000        
  0.000000000000000E+000                                                        
   16990.9600040000       9.172804038100000E-003  0.000000000000000E+000        
  0.000000000000000E+000  0.000000000000000E+000  0.000000000000000E+000        
  0.000000000000000E+000                                                        
   4809.62003210000       3.733782934400000E-002  0.000000000000000E+000        
  0.000000000000000E+000  0.000000000000000E+000  0.000000000000000E+000        
  0.000000000000000E+000                                                        
   1566.28870550000       0.121995361170000       0.000000000000000E+000        
  0.000000000000000E+000  0.000000000000000E+000  0.000000000000000E+000        
  0.000000000000000E+000                                                        
   563.213604990000       0.291374753240000       0.000000000000000E+000        
  0.000000000000000E+000  0.000000000000000E+000  0.000000000000000E+000        
  0.000000000000000E+000                                                        
   219.111799780000       0.423263514790000       0.000000000000000E+000        
  0.000000000000000E+000  0.000000000000000E+000  0.000000000000000E+000        
  0.000000000000000E+000                                                        
   86.8660610300000       0.229214642780000       0.000000000000000E+000        
  0.000000000000000E+000  0.000000000000000E+000  0.000000000000000E+000        
  0.000000000000000E+000                                                        
   538.195124790000       0.000000000000000E+000 -2.525419729700000E-002        
  0.000000000000000E+000  0.000000000000000E+000  0.000000000000000E+000        
  0.000000000000000E+000                                                        
   167.148502240000       0.000000000000000E+000 -0.119154611150000             
  0.000000000000000E+000  0.000000000000000E+000  0.000000000000000E+000        
  0.000000000000000E+000                                                        
   27.6055171590000       0.000000000000000E+000  0.546284959800000             
  0.000000000000000E+000  0.000000000000000E+000  0.000000000000000E+000        
  0.000000000000000E+000                                                        
   11.9478585210000       0.000000000000000E+000  0.530015209760000             
  0.000000000000000E+000  0.000000000000000E+000  0.000000000000000E+000        
  0.000000000000000E+000                                                        
   18.5380231330000       0.000000000000000E+000  0.000000000000000E+000        
 -0.234791881360000       0.000000000000000E+000  0.000000000000000E+000        
  0.000000000000000E+000                                                        
   3.20189857390000       0.000000000000000E+000  0.000000000000000E+000        
  0.691670534280000       0.000000000000000E+000  0.000000000000000E+000        
  0.000000000000000E+000                                                        
   1.43565220770000       0.000000000000000E+000  0.000000000000000E+000        
  0.000000000000000E+000   1.00000000000000       0.000000000000000E+000        
  0.000000000000000E+000                                                        
  0.318378052000000       0.000000000000000E+000  0.000000000000000E+000        
  0.000000000000000E+000  0.000000000000000E+000   1.00000000000000             
  0.000000000000000E+000                                                        
  0.116226321860000       0.000000000000000E+000  0.000000000000000E+000        
  0.000000000000000E+000  0.000000000000000E+000  0.000000000000000E+000        
   1.00000000000000                                                             
   13    5                                                                      
   2678.94215460000       2.331895528700000E-003  0.000000000000000E+000        
  0.000000000000000E+000  0.000000000000000E+000  0.000000000000000E+000        
   634.617658400000       1.904214997700000E-002  0.000000000000000E+000        
  0.000000000000000E+000  0.000000000000000E+000  0.000000000000000E+000        
   203.939676060000       9.022974491300000E-002  0.000000000000000E+000        
  0.000000000000000E+000  0.000000000000000E+000  0.000000000000000E+000        
   76.3238903690000       0.261690376930000       0.000000000000000E+000        
  0.000000000000000E+000  0.000000000000000E+000  0.000000000000000E+000        
   30.6641249430000       0.418571681550000       0.000000000000000E+000        
  0.000000000000000E+000  0.000000000000000E+000  0.000000000000000E+000        
   12.5050567320000       0.234478301900000       0.000000000000000E+000        
  0.000000000000000E+000  0.000000000000000E+000  0.000000000000000E+000        
   49.2562295490000       0.000000000000000E+000 -2.123553987000000E-002        
  0.000000000000000E+000  0.000000000000000E+000  0.000000000000000E+000        
   7.72748914660000       0.000000000000000E+000  0.304702066680000             
  0.000000000000000E+000  0.000000000000000E+000  0.000000000000000E+000        
   3.54104934760000       0.000000000000000E+000  0.528883731070000             
  0.000000000000000E+000  0.000000000000000E+000  0.000000000000000E+000        
   1.69855855010000       0.000000000000000E+000  0.372722509550000             
  0.000000000000000E+000  0.000000000000000E+000  0.000000000000000E+000        
  0.768480710440000       0.000000000000000E+000  0.000000000000000E+000        
   1.00000000000000       0.000000000000000E+000  0.000000000000000E+000        
  0.300508232600000       0.000000000000000E+000  0.000000000000000E+000        
  0.000000000000000E+000   1.00000000000000       0.000000000000000E+000        
  9.819063943700000E-002  0.000000000000000E+000  0.000000000000000E+000        
  0.000000000000000E+000  0.000000000000000E+000   1.00000000000000             
    8    4                                                                      
   135.332893050000       9.929114410599999E-003  0.000000000000000E+000        
  0.000000000000000E+000  0.000000000000000E+000                                
   39.8602127440000       6.656884349599999E-002  0.000000000000000E+000        
  0.000000000000000E+000  0.000000000000000E+000                                
   14.4464283590000       0.222757683070000       0.000000000000000E+000        
  0.000000000000000E+000  0.000000000000000E+000                                
   5.64329003560000       0.403092243820000       0.000000000000000E+000        
  0.000000000000000E+000  0.000000000000000E+000                                
   2.16681886230000       0.416716679460000       0.000000000000000E+000        
  0.000000000000000E+000  0.000000000000000E+000                                
  0.765149705690000       0.000000000000000E+000  0.189355022880000             
  0.000000000000000E+000  0.000000000000000E+000                                
  0.424346530000000       0.000000000000000E+000  0.000000000000000E+000        
   1.00000000000000       0.000000000000000E+000                                
  0.163315270000000       0.000000000000000E+000  0.000000000000000E+000        
  0.000000000000000E+000   1.00000000000000                                     
    1    1                                                                      
  0.432719410000000        1.00000000000000                                     
          1.00000000    1    3    1    1    1                                   
H #2   2.376638541421395   1.520867942764585   0.000000000000556                
    5    3                                                                      
   34.0613410000000       6.025197800000000E-003  0.000000000000000E+000        
  0.000000000000000E+000                                                        
   5.12357460000000       4.502109400000000E-002  0.000000000000000E+000        
  0.000000000000000E+000                                                        
   1.16466260000000       0.201897260000000       0.000000000000000E+000        
  0.000000000000000E+000                                                        
  0.327230410000000       0.000000000000000E+000   1.00000000000000             
  0.000000000000000E+000                                                        
  0.103072410000000       0.000000000000000E+000  0.000000000000000E+000        
   1.00000000000000                                                             
    2    2                                                                      
   1.40700000000000        1.00000000000000       0.000000000000000E+000        
  0.388000000000000       0.000000000000000E+000   1.00000000000000             
    1    1                                                                      
   1.05700000000000        1.00000000000000                                     
          1.00000000    1    3    1    1    1                                   
H #3  -1.183066712031722   1.527893595817124   2.056084963025460                
    5    3                                                                      
   34.0613410000000       6.025197800000000E-003  0.000000000000000E+000        
  0.000000000000000E+000                                                        
   5.12357460000000       4.502109400000000E-002  0.000000000000000E+000        
  0.000000000000000E+000                                                        
   1.16466260000000       0.201897260000000       0.000000000000000E+000        
  0.000000000000000E+000                                                        
  0.327230410000000       0.000000000000000E+000   1.00000000000000             
  0.000000000000000E+000                                                        
  0.103072410000000       0.000000000000000E+000  0.000000000000000E+000        
   1.00000000000000                                                             
    2    2                                                                      
   1.40700000000000        1.00000000000000       0.000000000000000E+000        
  0.388000000000000       0.000000000000000E+000   1.00000000000000             
    1    1                                                                      
   1.05700000000000        1.00000000000000                                     
FINISH                                                                          
 
********************************************************************************
 One- and two-electron integrals over symmetry-adapted AOs are calculated.

  Spherical harmonics are used.
  
   3 types of atoms
   1 symmetry operations

   Reflection in the XY-plane
  
  Integrals less than  0.10E-13 are neglected.

  Atomic type number  1 :
  -----------------------

    Nuclear charge:                       33
    number of symmetry independent atoms:  1
    highest orbital type:                  f

      1 groups of CGTOs of s type
      1 groups of CGTOs of p type
      1 groups of CGTOs of d type
      1 groups of CGTOs of f type

    nuclear coordinates (in a.u.) are :

    AS#1       -0.000141311999337       -0.061563927866986        0.000000000000000
  
   Basis function not normalized: 
   Center (as ordered in MOL file):   1
   Angular Momentum type          : s
   Offset within angular momentum :  1
   <chi|chi>                      :    1.0277819600
   Basis function not normalized: 
   Center (as ordered in MOL file):   1
   Angular Momentum type          : s
   Offset within angular momentum :  2
   <chi|chi>                      :    1.0121708709
   Basis function not normalized: 
   Center (as ordered in MOL file):   1
   Angular Momentum type          : s
   Offset within angular momentum :  3
   <chi|chi>                      :    1.7156760475
   Basis function not normalized: 
   Center (as ordered in MOL file):   1
   Angular Momentum type          : p
   Offset within angular momentum :  1
   <chi|chi>                      :    1.1481836361
   Basis function not normalized: 
   Center (as ordered in MOL file):   1
   Angular Momentum type          : p
   Offset within angular momentum :  2
   <chi|chi>                      :    0.9048496964
   Basis function not normalized: 
   Center (as ordered in MOL file):   1
   Angular Momentum type          : d
   Offset within angular momentum :  1
   <chi|chi>                      :    1.1006496627
   Basis function not normalized: 
   Center (as ordered in MOL file):   1
   Angular Momentum type          : d
   Offset within angular momentum :  2
   <chi|chi>                      :    5.2810851531
  Atomic type number  2 :
  -----------------------

    Nuclear charge:                        1
    number of symmetry independent atoms:  1
    highest orbital type:                  d

      1 groups of CGTOs of s type
      1 groups of CGTOs of p type
      1 groups of CGTOs of d type

    nuclear coordinates (in a.u.) are :

    H #2        2.376638541421395        1.520867942764585        0.000000000000556
  
   Basis function not normalized: 
   Center (as ordered in MOL file):   2
   Angular Momentum type          : s
   Offset within angular momentum :  1
   <chi|chi>                      :    4.2221530402
  Atomic type number  3 :
  -----------------------

    Nuclear charge:                        1
    number of symmetry independent atoms:  1
    highest orbital type:                  d

      1 groups of CGTOs of s type
      1 groups of CGTOs of p type
      1 groups of CGTOs of d type

    nuclear coordinates (in a.u.) are :

    H #3       -1.183066712031722        1.527893595817124        2.056084963025460
  
   Basis function not normalized: 
   Center (as ordered in MOL file):   3
   Angular Momentum type          : s
   Offset within angular momentum :  1
   <chi|chi>                      :    4.2221530402
   Internuclear distances (A) :

     for atom AS#1 (coordinates :  -0.00014  -0.06156   0.00000)

     H #2   1     distance is  1.511
     H #3   1     distance is  1.511

     for atom H #2 (coordinates :   2.37664   1.52087   0.00000)

     H #3   1     distance is  2.175

     for atom H #3 (coordinates :  -1.18307   1.52789   2.05608)

     H #3   2     distance is  2.176

   Group multiplication table :

         1   2
         2   1

   Gaussian basis information :

   atom                 exponent      coefficients

 AS#1  1    S   
+                 1  498032.421580   0.0002274   0.0000000   0.0000000   0.0000000   0.0000000   0.0000000
                  2   74656.868743   0.0017633   0.0000000   0.0000000   0.0000000   0.0000000   0.0000000
                  3   16990.960004   0.0091728   0.0000000   0.0000000   0.0000000   0.0000000   0.0000000
                  4    4809.620032   0.0373378   0.0000000   0.0000000   0.0000000   0.0000000   0.0000000
                  5    1566.288706   0.1219954   0.0000000   0.0000000   0.0000000   0.0000000   0.0000000
                  6     563.213605   0.2913748   0.0000000   0.0000000   0.0000000   0.0000000   0.0000000
                  7     219.111800   0.4232635   0.0000000   0.0000000   0.0000000   0.0000000   0.0000000
                  8      86.866061   0.2292146   0.0000000   0.0000000   0.0000000   0.0000000   0.0000000
                  9     538.195125   0.0000000  -0.0252542   0.0000000   0.0000000   0.0000000   0.0000000
                 10     167.148502   0.0000000  -0.1191546   0.0000000   0.0000000   0.0000000   0.0000000
                 11      27.605517   0.0000000   0.5462850   0.0000000   0.0000000   0.0000000   0.0000000
                 12      11.947859   0.0000000   0.5300152   0.0000000   0.0000000   0.0000000   0.0000000
                 13      18.538023   0.0000000   0.0000000  -0.2347919   0.0000000   0.0000000   0.0000000
                 14       3.201899   0.0000000   0.0000000   0.6916705   0.0000000   0.0000000   0.0000000
                 15       1.435652   0.0000000   0.0000000   0.0000000   1.0000000   0.0000000   0.0000000
                 16       0.318378   0.0000000   0.0000000   0.0000000   0.0000000   1.0000000   0.0000000
                 17       0.116226   0.0000000   0.0000000   0.0000000   0.0000000   0.0000000   1.0000000

 AS#1  1    X   
+                18    2678.942155   0.0023319   0.0000000   0.0000000   0.0000000   0.0000000
                 19     634.617658   0.0190421   0.0000000   0.0000000   0.0000000   0.0000000
                 20     203.939676   0.0902297   0.0000000   0.0000000   0.0000000   0.0000000
                 21      76.323890   0.2616904   0.0000000   0.0000000   0.0000000   0.0000000
                 22      30.664125   0.4185717   0.0000000   0.0000000   0.0000000   0.0000000
                 23      12.505057   0.2344783   0.0000000   0.0000000   0.0000000   0.0000000
                 24      49.256230   0.0000000  -0.0212355   0.0000000   0.0000000   0.0000000
                 25       7.727489   0.0000000   0.3047021   0.0000000   0.0000000   0.0000000
                 26       3.541049   0.0000000   0.5288837   0.0000000   0.0000000   0.0000000
                 27       1.698559   0.0000000   0.3727225   0.0000000   0.0000000   0.0000000
                 28       0.768481   0.0000000   0.0000000   1.0000000   0.0000000   0.0000000
                 29       0.300508   0.0000000   0.0000000   0.0000000   1.0000000   0.0000000
                 30       0.098191   0.0000000   0.0000000   0.0000000   0.0000000   1.0000000

 AS#1  1    Y   
+                31    2678.942155   0.0023319   0.0000000   0.0000000   0.0000000   0.0000000
                 32     634.617658   0.0190421   0.0000000   0.0000000   0.0000000   0.0000000
                 33     203.939676   0.0902297   0.0000000   0.0000000   0.0000000   0.0000000
                 34      76.323890   0.2616904   0.0000000   0.0000000   0.0000000   0.0000000
                 35      30.664125   0.4185717   0.0000000   0.0000000   0.0000000   0.0000000
                 36      12.505057   0.2344783   0.0000000   0.0000000   0.0000000   0.0000000
                 37      49.256230   0.0000000  -0.0212355   0.0000000   0.0000000   0.0000000
                 38       7.727489   0.0000000   0.3047021   0.0000000   0.0000000   0.0000000
                 39       3.541049   0.0000000   0.5288837   0.0000000   0.0000000   0.0000000
                 40       1.698559   0.0000000   0.3727225   0.0000000   0.0000000   0.0000000
                 41       0.768481   0.0000000   0.0000000   1.0000000   0.0000000   0.0000000
                 42       0.300508   0.0000000   0.0000000   0.0000000   1.0000000   0.0000000
                 43       0.098191   0.0000000   0.0000000   0.0000000   0.0000000   1.0000000

 AS#1  1    Z   
+                44    2678.942155   0.0023319   0.0000000   0.0000000   0.0000000   0.0000000
                 45     634.617658   0.0190421   0.0000000   0.0000000   0.0000000   0.0000000
                 46     203.939676   0.0902297   0.0000000   0.0000000   0.0000000   0.0000000
                 47      76.323890   0.2616904   0.0000000   0.0000000   0.0000000   0.0000000
                 48      30.664125   0.4185717   0.0000000   0.0000000   0.0000000   0.0000000
                 49      12.505057   0.2344783   0.0000000   0.0000000   0.0000000   0.0000000
                 50      49.256230   0.0000000  -0.0212355   0.0000000   0.0000000   0.0000000
                 51       7.727489   0.0000000   0.3047021   0.0000000   0.0000000   0.0000000
                 52       3.541049   0.0000000   0.5288837   0.0000000   0.0000000   0.0000000
                 53       1.698559   0.0000000   0.3727225   0.0000000   0.0000000   0.0000000
                 54       0.768481   0.0000000   0.0000000   1.0000000   0.0000000   0.0000000
                 55       0.300508   0.0000000   0.0000000   0.0000000   1.0000000   0.0000000
                 56       0.098191   0.0000000   0.0000000   0.0000000   0.0000000   1.0000000

 AS#1  1    XX  
+                57     135.332893   0.0099291   0.0000000   0.0000000   0.0000000
                 58      39.860213   0.0665688   0.0000000   0.0000000   0.0000000
                 59      14.446428   0.2227577   0.0000000   0.0000000   0.0000000
                 60       5.643290   0.4030922   0.0000000   0.0000000   0.0000000
                 61       2.166819   0.4167167   0.0000000   0.0000000   0.0000000
                 62       0.765150   0.0000000   0.1893550   0.0000000   0.0000000
                 63       0.424347   0.0000000   0.0000000   1.0000000   0.0000000
                 64       0.163315   0.0000000   0.0000000   0.0000000   1.0000000

 AS#1  1    XY  
+                65     135.332893   0.0099291   0.0000000   0.0000000   0.0000000
                 66      39.860213   0.0665688   0.0000000   0.0000000   0.0000000
                 67      14.446428   0.2227577   0.0000000   0.0000000   0.0000000
                 68       5.643290   0.4030922   0.0000000   0.0000000   0.0000000
                 69       2.166819   0.4167167   0.0000000   0.0000000   0.0000000
                 70       0.765150   0.0000000   0.1893550   0.0000000   0.0000000
                 71       0.424347   0.0000000   0.0000000   1.0000000   0.0000000
                 72       0.163315   0.0000000   0.0000000   0.0000000   1.0000000

 AS#1  1    XZ  
+                73     135.332893   0.0099291   0.0000000   0.0000000   0.0000000
                 74      39.860213   0.0665688   0.0000000   0.0000000   0.0000000
                 75      14.446428   0.2227577   0.0000000   0.0000000   0.0000000
                 76       5.643290   0.4030922   0.0000000   0.0000000   0.0000000
                 77       2.166819   0.4167167   0.0000000   0.0000000   0.0000000
                 78       0.765150   0.0000000   0.1893550   0.0000000   0.0000000
                 79       0.424347   0.0000000   0.0000000   1.0000000   0.0000000
                 80       0.163315   0.0000000   0.0000000   0.0000000   1.0000000

 AS#1  1    YY  
+                81     135.332893   0.0099291   0.0000000   0.0000000   0.0000000
                 82      39.860213   0.0665688   0.0000000   0.0000000   0.0000000
                 83      14.446428   0.2227577   0.0000000   0.0000000   0.0000000
                 84       5.643290   0.4030922   0.0000000   0.0000000   0.0000000
                 85       2.166819   0.4167167   0.0000000   0.0000000   0.0000000
                 86       0.765150   0.0000000   0.1893550   0.0000000   0.0000000
                 87       0.424347   0.0000000   0.0000000   1.0000000   0.0000000
                 88       0.163315   0.0000000   0.0000000   0.0000000   1.0000000

 AS#1  1    YZ  
+                89     135.332893   0.0099291   0.0000000   0.0000000   0.0000000
                 90      39.860213   0.0665688   0.0000000   0.0000000   0.0000000
                 91      14.446428   0.2227577   0.0000000   0.0000000   0.0000000
                 92       5.643290   0.4030922   0.0000000   0.0000000   0.0000000
                 93       2.166819   0.4167167   0.0000000   0.0000000   0.0000000
                 94       0.765150   0.0000000   0.1893550   0.0000000   0.0000000
                 95       0.424347   0.0000000   0.0000000   1.0000000   0.0000000
                 96       0.163315   0.0000000   0.0000000   0.0000000   1.0000000

 AS#1  1    ZZ  
+                97     135.332893   0.0099291   0.0000000   0.0000000   0.0000000
                 98      39.860213   0.0665688   0.0000000   0.0000000   0.0000000
                 99      14.446428   0.2227577   0.0000000   0.0000000   0.0000000
                100       5.643290   0.4030922   0.0000000   0.0000000   0.0000000
                101       2.166819   0.4167167   0.0000000   0.0000000   0.0000000
                102       0.765150   0.0000000   0.1893550   0.0000000   0.0000000
                103       0.424347   0.0000000   0.0000000   1.0000000   0.0000000
                104       0.163315   0.0000000   0.0000000   0.0000000   1.0000000

 AS#1  1    F300
+               105       0.432719   1.0000000

 AS#1  1    F210
+               106       0.432719   1.0000000

 AS#1  1    F201
+               107       0.432719   1.0000000

 AS#1  1    F120
+               108       0.432719   1.0000000

 AS#1  1    F111
+               109       0.432719   1.0000000

 AS#1  1    F102
+               110       0.432719   1.0000000

 AS#1  1    F030
+               111       0.432719   1.0000000

 AS#1  1    F021
+               112       0.432719   1.0000000

 AS#1  1    F012
+               113       0.432719   1.0000000

 AS#1  1    F003
+               114       0.432719   1.0000000

 H #2  1    S   
+               115      34.061341   0.0060252   0.0000000   0.0000000
                116       5.123575   0.0450211   0.0000000   0.0000000
                117       1.164663   0.2018973   0.0000000   0.0000000
                118       0.327230   0.0000000   1.0000000   0.0000000
                119       0.103072   0.0000000   0.0000000   1.0000000

 H #2  1    X   
+               120       1.407000   1.0000000   0.0000000
                121       0.388000   0.0000000   1.0000000

 H #2  1    Y   
+               122       1.407000   1.0000000   0.0000000
                123       0.388000   0.0000000   1.0000000

 H #2  1    Z   
+               124       1.407000   1.0000000   0.0000000
                125       0.388000   0.0000000   1.0000000

 H #2  1    XX  
+               126       1.057000   1.0000000

 H #2  1    XY  
+               127       1.057000   1.0000000

 H #2  1    XZ  
+               128       1.057000   1.0000000

 H #2  1    YY  
+               129       1.057000   1.0000000

 H #2  1    YZ  
+               130       1.057000   1.0000000

 H #2  1    ZZ  
+               131       1.057000   1.0000000

 H #3  1    S   
+               132      34.061341   0.0060252   0.0000000   0.0000000
                133       5.123575   0.0450211   0.0000000   0.0000000
                134       1.164663   0.2018973   0.0000000   0.0000000
                135       0.327230   0.0000000   1.0000000   0.0000000
                136       0.103072   0.0000000   0.0000000   1.0000000

 H #3  2    S   
+               137      34.061341   0.0060252   0.0000000   0.0000000
                138       5.123575   0.0450211   0.0000000   0.0000000
                139       1.164663   0.2018973   0.0000000   0.0000000
                140       0.327230   0.0000000   1.0000000   0.0000000
                141       0.103072   0.0000000   0.0000000   1.0000000

 H #3  1    X   
+               142       1.407000   1.0000000   0.0000000
                143       0.388000   0.0000000   1.0000000

 H #3  2    X   
+               144       1.407000   1.0000000   0.0000000
                145       0.388000   0.0000000   1.0000000

 H #3  1    Y   
+               146       1.407000   1.0000000   0.0000000
                147       0.388000   0.0000000   1.0000000

 H #3  2    Y   
+               148       1.407000   1.0000000   0.0000000
                149       0.388000   0.0000000   1.0000000

 H #3  1    Z   
+               150       1.407000   1.0000000   0.0000000
                151       0.388000   0.0000000   1.0000000

 H #3  2    Z   
+               152       1.407000   1.0000000   0.0000000
                153       0.388000   0.0000000   1.0000000

 H #3  1    XX  
+               154       1.057000   1.0000000

 H #3  2    XX  
+               155       1.057000   1.0000000

 H #3  1    XY  
+               156       1.057000   1.0000000

 H #3  2    XY  
+               157       1.057000   1.0000000

 H #3  1    XZ  
+               158       1.057000   1.0000000

 H #3  2    XZ  
+               159       1.057000   1.0000000

 H #3  1    YY  
+               160       1.057000   1.0000000

 H #3  2    YY  
+               161       1.057000   1.0000000

 H #3  1    YZ  
+               162       1.057000   1.0000000

 H #3  2    YZ  
+               163       1.057000   1.0000000

 H #3  1    ZZ  
+               164       1.057000   1.0000000

 H #3  2    ZZ  
+               165       1.057000   1.0000000
100 90
  1  2  3  4  5  6  7  8  9 10 11 12 13 14 15 16 17 18 19 20 21 22 23 24 25
 26 27 28************ 29 30 31*** 32*** 33 34 35 36 37 38 39 40 41 42*** 43
 44 45 46 47 48 49 50 51 52 53 54 55 56*** 57 58 59 60 61 62 63 64 65 66 67
 68 69 70 71 72*** 73 74 75 76 77 78 79 80 81 82 83 84 85 86 87 88 89 90***
1

             SYMMETRY TRANSFORMATION INFO
             90 SYMMETRY ADAPTED BASIS FUNCTIONS 


          irreducible representation number 1

    1    1  AS#1     1s     1   1   1.0
    2    2  AS#1     1s     1   2   1.0
    3    3  AS#1     1s     1   3   1.0
    4    4  AS#1     1s     1   4   1.0
    5    5  AS#1     1s     1   5   1.0
    6    6  AS#1     1s     1   6   1.0
    7    7  AS#1     2px    1   7   1.0
    8    8  AS#1     2px    1   8   1.0
    9    9  AS#1     2px    1   9   1.0
   10   10  AS#1     2px    1  10   1.0
   11   11  AS#1     2px    1  11   1.0
   12   12  AS#1     2py    1  12   1.0
   13   13  AS#1     2py    1  13   1.0
   14   14  AS#1     2py    1  14   1.0
   15   15  AS#1     2py    1  15   1.0
   16   16  AS#1     2py    1  16   1.0
   17   17  AS#1     3d2-   3  22  -1.0  34  -1.0  42   2.0
   18   18  AS#1     3d2-   3  23  -1.0  35  -1.0  43   2.0
   19   19  AS#1     3d2-   3  24  -1.0  36  -1.0  44   2.0
   20   20  AS#1     3d2-   3  25  -1.0  37  -1.0  45   2.0
   21   21  AS#1     3d1-   1  26   1.0
   22   22  AS#1     3d1-   1  27   1.0
   23   23  AS#1     3d1-   1  28   1.0
   24   24  AS#1     3d1-   1  29   1.0
   25   25  AS#1     3d1+   2  22   1.0  34  -1.0
   26   26  AS#1     3d1+   2  23   1.0  35  -1.0
   27   27  AS#1     3d1+   2  24   1.0  36  -1.0
   28   28  AS#1     3d1+   2  25   1.0  37  -1.0
   29   29  AS#1     4f3-   3  46  -1.0  49  -1.0  51   4.0
   30   30  AS#1     4f2-   3  47  -1.0  52  -1.0  54   4.0
   31   31  AS#1     4f0    2  46   1.0  49  -3.0
   32   32  AS#1     4f2+   2  47   3.0  52  -1.0
   33   33  H #2     1s     1  56   1.0
   34   34  H #2     1s     1  57   1.0
   35   35  H #2     1s     1  58   1.0
   36   36  H #2     2px    1  59   1.0
   37   37  H #2     2px    1  60   1.0
   38   38  H #2     2py    1  61   1.0
   39   39  H #2     2py    1  62   1.0
   40   40  H #2     3d2-   3  65  -1.0  68  -1.0  70   2.0
   41   41  H #2     3d1-   1  66   1.0
   42   42  H #2     3d1+   2  65   1.0  68  -1.0
   43   43  H #3     1s     2  71   1.0  72   1.0
   44   44  H #3     1s     2  73   1.0  74   1.0
   45   45  H #3     1s     2  75   1.0  76   1.0
   46   46  H #3     2px    2  77   1.0  78   1.0
   47   47  H #3     2px    2  79   1.0  80   1.0
   48   48  H #3     2py    2  81   1.0  82   1.0
   49   49  H #3     2py    2  83   1.0  84   1.0
   50   50  H #3     2pz    2  85   1.0  86  -1.0
   51   51  H #3     2pz    2  87   1.0  88  -1.0
   52   52  H #3     3d2-   6  89  -1.0  95  -1.0  99   2.0  90  -1.0  96  -1.0 100   2.0
   53   53  H #3     3d1-   2  91   1.0  92   1.0
   54   54  H #3     3d0    2  93   1.0  94  -1.0
   55   55  H #3     3d1+   4  89   1.0  95  -1.0  90   1.0  96  -1.0
   56   56  H #3     3d2+   2  97   1.0  98  -1.0


          irreducible representation number 2

   57    1  AS#1     2pz    1  17   1.0
   58    2  AS#1     2pz    1  18   1.0
   59    3  AS#1     2pz    1  19   1.0
   60    4  AS#1     2pz    1  20   1.0
   61    5  AS#1     2pz    1  21   1.0
   62    6  AS#1     3d0    1  30   1.0
   63    7  AS#1     3d0    1  31   1.0
   64    8  AS#1     3d0    1  32   1.0
   65    9  AS#1     3d0    1  33   1.0
   66   10  AS#1     3d2+   1  38   1.0
   67   11  AS#1     3d2+   1  39   1.0
   68   12  AS#1     3d2+   1  40   1.0
   69   13  AS#1     3d2+   1  41   1.0
   70   14  AS#1     4f1-   3  48  -3.0  53  -3.0  55   2.0
   71   15  AS#1     4f1+   1  50   1.0
   72   16  AS#1     4f3+   2  48   1.0  53  -1.0
   73   17  H #2     2pz    1  63   1.0
   74   18  H #2     2pz    1  64   1.0
   75   19  H #2     3d0    1  67   1.0
   76   20  H #2     3d2+   1  69   1.0
   77   21  H #3     1s     2  71   1.0  72  -1.0
   78   22  H #3     1s     2  73   1.0  74  -1.0
   79   23  H #3     1s     2  75   1.0  76  -1.0
   80   24  H #3     2px    2  77   1.0  78  -1.0
   81   25  H #3     2px    2  79   1.0  80  -1.0
   82   26  H #3     2py    2  81   1.0  82  -1.0
   83   27  H #3     2py    2  83   1.0  84  -1.0
   84   28  H #3     2pz    2  85   1.0  86   1.0
   85   29  H #3     2pz    2  87   1.0  88   1.0
   86   30  H #3     3d2-   6  89  -1.0  95  -1.0  99   2.0  90   1.0  96   1.0 100  -2.0
   87   31  H #3     3d1-   2  91   1.0  92  -1.0
   88   32  H #3     3d0    2  93   1.0  94   1.0
   89   33  H #3     3d1+   4  89   1.0  95  -1.0  90  -1.0  96   1.0
   90   34  H #3     3d2+   2  97   1.0  98   1.0
  Nuclear repulsion energy :   35.4011374428 a.u.
  required memory for a1 array                9188362  words 
  required memory for a2 array                2676157  words 
 @GETMEM-I,  Allocated     105 MB of main memory.
  @MOLECU-I, One electron integrals (CPU/WALL):        0.06/       0.09 seconds.
  @TWOEL-I,    1324456 integrals of symmetry type  I I I I
  @TWOEL-I,    1695748 integrals of symmetry type  I J I J
  @TWOEL-I,     885323 integrals of symmetry type  I I J J
  @TWOEL-I, Total number of 2-e integrals    3905527.
  @MOLECU-I, Two electron integrals (CPU/WALL):        2.14/       2.59 seconds.
  @CHECKOUT-I, Total execution time (CPU/WALL):        2.57/       3.46 seconds.
--executable xvmol finished with status     0 in        3.64 seconds (walltime).
 --invoking executable--
/home/nike/cfour_v2.00beta/cfour_v2.00beta/bin/xvmol2ja
 @GETMEM-I,  Allocated   11444 MB of main memory.
  @CHECKOUT-I, Total execution time (CPU/WALL):        0.02/       0.03 seconds.
--executable xvmol2ja finished with status     0 in        0.14 seconds (walltime).
 --invoking executable--
/home/nike/cfour_v2.00beta/cfour_v2.00beta/bin/xvscf
  There are   90 functions in the AO basis.

  There are 2 irreducible representations.

       Irrep        # of functions
         1                 56
         2                 34


  Parameters for SCF calculation: 
        SCF reference function:  RHF  
  Maximum number of iterations: ****
     Full symmetry point group: C s 
     Computational point group: C s 
        Initial density matrix: MOREAD                 
     SCF convergence tolerance: 10**(-12)
  DIIS convergence acceleration:  ON
          Latest start for DIIS:   5
                     DIIS order:   6

  Memory information:     392844 words required.
  Fock matrices are constructed from AO integral file.
 @GETMEM-I,  Allocated       2 MB of main memory.
  Initialization and symmetry analysis required      0.024 seconds.

  @INITGES-I, Occupancies from core Hamiltonian:

          Alpha population by irrep:  13    5
           Beta population by irrep:  13    5


 total no. of electrons in initial guess :  0.000000000000000E+000
  --------------------------------------------------------------------
  Iteration         Total Energy            Largest Density Difference
  --------------------------------------------------------------------
       0            35.401137442811255              0.0000000000D+00
   current occupation vector 
    13  5
    13  5
  processed                1324456  ao basis integrals from 
                  2208  buffers.
  processed                 885323  ao basis integrals from 
                  1476  buffers.
  processed                1695748  ao basis integrals from 
                  2827  buffers.
       1         -2193.412808148103068              0.1923229423D+02
   current occupation vector 
    13  5
    13  5
  processed                1324456  ao basis integrals from 
                  2208  buffers.
  processed                 885323  ao basis integrals from 
                  1476  buffers.
  processed                1695748  ao basis integrals from 
                  2827  buffers.
       2         -2133.854961404878395              0.2875853887D+02
   current occupation vector 
    13  5
    13  5
  processed                1324456  ao basis integrals from 
                  2208  buffers.
  processed                 885323  ao basis integrals from 
                  1476  buffers.
  processed                1695748  ao basis integrals from 
                  2827  buffers.
       3         -2207.377675269398424              0.2912000404D+02
   current occupation vector 
    13  5
    13  5
  processed                1324456  ao basis integrals from 
                  2208  buffers.
  processed                 885323  ao basis integrals from 
                  1476  buffers.
  processed                1695748  ao basis integrals from 
                  2827  buffers.
       4         -2138.859067051674174              0.2850257918D+02
   current occupation vector 
    13  5
    13  5
 
 sum over diagonal and offdiagdiagonal of C(T)*S*C for irrep
                     1
 -1.532107773982716E-014  1.069339692223840E-012
 reorthoganalization of MOs is carried out
 sum over diagonal and offdiagdiagonal of C(T)*S*C for irrep
                     1
 -1.165734175856414E-014 -7.926053071608815E-015
 
 sum over diagonal and offdiagdiagonal of C(T)*S*C for irrep
                     2
 -6.261657858885883E-014 -4.808660263883638E-014
 reorthoganalization of MOs is carried out
 sum over diagonal and offdiagdiagonal of C(T)*S*C for irrep
                     2
  9.436895709313831E-015  5.422098003721196E-015
  processed                1324456  ao basis integrals from 
                  2208  buffers.
  processed                 885323  ao basis integrals from 
                  1476  buffers.
  processed                1695748  ao basis integrals from 
                  2827  buffers.
       5         -2207.780152872901908              0.2852076721D+02
   current occupation vector 
    13  5
    13  5
  processed                1324456  ao basis integrals from 
                  2208  buffers.
  processed                 885323  ao basis integrals from 
                  1476  buffers.
  processed                1695748  ao basis integrals from 
                  2827  buffers.
       6         -2235.704232679939196              0.6634010141D+01
   current occupation vector 
    13  5
    13  5
  processed                1324456  ao basis integrals from 
                  2208  buffers.
  processed                 885323  ao basis integrals from 
                  1476  buffers.
  processed                1695748  ao basis integrals from 
                  2827  buffers.
       7         -2235.892338171622214              0.7987605538D+00
   current occupation vector 
    13  5
    13  5
  processed                1324456  ao basis integrals from 
                  2208  buffers.
  processed                 885323  ao basis integrals from 
                  1476  buffers.
  processed                1695748  ao basis integrals from 
                  2827  buffers.
       8         -2235.920476543528366              0.7201285301D-01
   current occupation vector 
    13  5
    13  5
  processed                1324456  ao basis integrals from 
                  2208  buffers.
  processed                 885323  ao basis integrals from 
                  1476  buffers.
  processed                1695748  ao basis integrals from 
                  2827  buffers.
       9         -2235.930967063872686              0.8176123789D-01
   current occupation vector 
    13  5
    13  5
 
 sum over diagonal and offdiagdiagonal of C(T)*S*C for irrep
                     1
 -2.597921877622866E-014 -1.241986533617998E-013
 reorthoganalization of MOs is carried out
 sum over diagonal and offdiagdiagonal of C(T)*S*C for irrep
                     1
  1.332267629550188E-015  3.947860268632166E-014
 
 sum over diagonal and offdiagdiagonal of C(T)*S*C for irrep
                     2
 -3.219646771412954E-014 -1.520933506835796E-013
 reorthoganalization of MOs is carried out
 sum over diagonal and offdiagdiagonal of C(T)*S*C for irrep
                     2
 -5.551115123125783E-016  3.980592733028516E-015
  processed                1324456  ao basis integrals from 
                  2208  buffers.
  processed                 885323  ao basis integrals from 
                  1476  buffers.
  processed                1695748  ao basis integrals from 
                  2827  buffers.
      10         -2235.931250325666042              0.8855926568D-02
   current occupation vector 
    13  5
    13  5
  processed                1324456  ao basis integrals from 
                  2208  buffers.
  processed                 885323  ao basis integrals from 
                  1476  buffers.
  processed                1695748  ao basis integrals from 
                  2827  buffers.
      11         -2235.931262005938152              0.2276824673D-02
   current occupation vector 
    13  5
    13  5
  processed                1324456  ao basis integrals from 
                  2208  buffers.
  processed                 885323  ao basis integrals from 
                  1476  buffers.
  processed                1695748  ao basis integrals from 
                  2827  buffers.
      12         -2235.931262808814608              0.9236180496D-03
   current occupation vector 
    13  5
    13  5
  processed                1324456  ao basis integrals from 
                  2208  buffers.
  processed                 885323  ao basis integrals from 
                  1476  buffers.
  processed                1695748  ao basis integrals from 
                  2827  buffers.
      13         -2235.931262846856953              0.2253877440D-03
   current occupation vector 
    13  5
    13  5
  processed                1324456  ao basis integrals from 
                  2208  buffers.
  processed                 885323  ao basis integrals from 
                  1476  buffers.
  processed                1695748  ao basis integrals from 
                  2827  buffers.
      14         -2235.931262847550443              0.4033200153D-04
   current occupation vector 
    13  5
    13  5
 
 sum over diagonal and offdiagdiagonal of C(T)*S*C for irrep
                     1
 -4.263256414560601E-014 -8.561672259995514E-014
 reorthoganalization of MOs is carried out
 sum over diagonal and offdiagdiagonal of C(T)*S*C for irrep
                     1
 -4.440892098500626E-016 -1.619672599959414E-014
 
 sum over diagonal and offdiagdiagonal of C(T)*S*C for irrep
                     2
 -2.342570581959080E-014 -1.521727159832331E-013
 reorthoganalization of MOs is carried out
 sum over diagonal and offdiagdiagonal of C(T)*S*C for irrep
                     2
 -8.770761894538737E-015  2.017877447108385E-015
  processed                1324456  ao basis integrals from 
                  2208  buffers.
  processed                 885323  ao basis integrals from 
                  1476  buffers.
  processed                1695748  ao basis integrals from 
                  2827  buffers.
      15         -2235.931262847556809              0.4928946408D-05
   current occupation vector 
    13  5
    13  5
  processed                1324456  ao basis integrals from 
                  2208  buffers.
  processed                 885323  ao basis integrals from 
                  1476  buffers.
  processed                1695748  ao basis integrals from 
                  2827  buffers.
      16         -2235.931262847563175              0.3783983863D-06
   current occupation vector 
    13  5
    13  5
  processed                1324456  ao basis integrals from 
                  2208  buffers.
  processed                 885323  ao basis integrals from 
                  1476  buffers.
  processed                1695748  ao basis integrals from 
                  2827  buffers.
      17         -2235.931262847562266              0.1513407569D-06
   current occupation vector 
    13  5
    13  5
  processed                1324456  ao basis integrals from 
                  2208  buffers.
  processed                 885323  ao basis integrals from 
                  1476  buffers.
  processed                1695748  ao basis integrals from 
                  2827  buffers.
      18         -2235.931262847558173              0.4884606908D-07
   current occupation vector 
    13  5
    13  5
  processed                1324456  ao basis integrals from 
                  2208  buffers.
  processed                 885323  ao basis integrals from 
                  1476  buffers.
  processed                1695748  ao basis integrals from 
                  2827  buffers.
      19         -2235.931262847565449              0.2548554812D-08
   current occupation vector 
    13  5
    13  5
 
 sum over diagonal and offdiagdiagonal of C(T)*S*C for irrep
                     1
  7.771561172376096E-016 -1.233464330992132E-013
 reorthoganalization of MOs is carried out
 sum over diagonal and offdiagdiagonal of C(T)*S*C for irrep
                     1
  6.661338147750939E-015  3.055586540074546E-014
 
 sum over diagonal and offdiagdiagonal of C(T)*S*C for irrep
                     2
 -5.684341886080801E-014 -1.577671987201323E-013
 reorthoganalization of MOs is carried out
 sum over diagonal and offdiagdiagonal of C(T)*S*C for irrep
                     2
  1.154631945610163E-014 -7.591330595514356E-015
  processed                1324456  ao basis integrals from 
                  2208  buffers.
  processed                 885323  ao basis integrals from 
                  1476  buffers.
  processed                1695748  ao basis integrals from 
                  2827  buffers.
      20         -2235.931262847557718              0.8851925859D-09
   current occupation vector 
    13  5
    13  5
  processed                1324456  ao basis integrals from 
                  2208  buffers.
  processed                 885323  ao basis integrals from 
                  1476  buffers.
  processed                1695748  ao basis integrals from 
                  2827  buffers.
      21         -2235.931262847560902              0.3605790111D-09
   current occupation vector 
    13  5
    13  5
  processed                1324456  ao basis integrals from 
                  2208  buffers.
  processed                 885323  ao basis integrals from 
                  1476  buffers.
  processed                1695748  ao basis integrals from 
                  2827  buffers.
      22         -2235.931262847560902              0.7318479156D-10
   current occupation vector 
    13  5
    13  5
  processed                1324456  ao basis integrals from 
                  2208  buffers.
  processed                 885323  ao basis integrals from 
                  1476  buffers.
  processed                1695748  ao basis integrals from 
                  2827  buffers.
      23         -2235.931262847560447              0.8918310535D-11
   current occupation vector 
    13  5
    13  5
  processed                1324456  ao basis integrals from 
                  2208  buffers.
  processed                 885323  ao basis integrals from 
                  1476  buffers.
  processed                1695748  ao basis integrals from 
                  2827  buffers.
      24         -2235.931262847559537              0.3746336574D-11
   current occupation vector 
    13  5
    13  5
 
 sum over diagonal and offdiagdiagonal of C(T)*S*C for irrep
                     1
  1.598721155460225E-014 -6.225454917518449E-014
 reorthoganalization of MOs is carried out
 sum over diagonal and offdiagdiagonal of C(T)*S*C for irrep
                     1
  3.441691376337985E-015 -8.549377901249247E-015
 
 sum over diagonal and offdiagdiagonal of C(T)*S*C for irrep
                     2
 -4.840572387365683E-014 -1.414993076433901E-013
 reorthoganalization of MOs is carried out
 sum over diagonal and offdiagdiagonal of C(T)*S*C for irrep
                     2
  1.776356839400250E-015 -2.216074011895027E-014
  processed                1324456  ao basis integrals from 
                  2208  buffers.
  processed                 885323  ao basis integrals from 
                  1476  buffers.
  processed                1695748  ao basis integrals from 
                  2827  buffers.
      25         -2235.931262847563175              0.1174838005D-11
   current occupation vector 
    13  5
    13  5
  processed                1324456  ao basis integrals from 
                  2208  buffers.
  processed                 885323  ao basis integrals from 
                  1476  buffers.
  processed                1695748  ao basis integrals from 
                  2827  buffers.
      26         -2235.931262847559992              0.2057354287D-11
   current occupation vector 
    13  5
    13  5

  SCF has converged.

 Density matrix saved to file den.dat
 total electron number:   36.0000000000000     
  processed                1324456  ao basis integrals from 
                  2208  buffers.
  processed                 885323  ao basis integrals from 
                  1476  buffers.
  processed                1695748  ao basis integrals from 
                  2827  buffers.
     E(SCF)=     -2235.931262847561356              0.3264055692D-12


  ORBITAL EIGENVECTORS

  SYMMETRY BLOCK 1 (ALPHA)

                          MO #  1       MO #  2       MO #  3       MO #  4

    BASIS/ORB E         -432.56977     -56.29547     -50.14027     -50.13958
                        ----------    ----------    ----------    ----------
    1; AS#1                0.99744       0.32487      -0.00000       0.00028
    2; AS#1                0.00757      -1.03930       0.00000      -0.00085
    3; AS#1               -0.00317      -0.03932      -0.00000       0.00022
    4; AS#1                0.00272       0.01242       0.00000      -0.00034
    5; AS#1               -0.00126      -0.00420      -0.00000      -0.00013
    6; AS#1               -0.00030      -0.00055       0.00000       0.00197
    7; AS#1                0.00000      -0.00000       0.99208       0.00232
    8; AS#1               -0.00000      -0.00000       0.02198       0.00005
    9; AS#1                0.00000       0.00000      -0.00766      -0.00002
   10; AS#1               -0.00000      -0.00000       0.00566       0.00001
   11; AS#1               -0.00000      -0.00000      -0.00035      -0.00000
   12; AS#1                0.00001      -0.00078      -0.00232       0.99212
   13; AS#1               -0.00003      -0.00017      -0.00005       0.02186
   14; AS#1                0.00020       0.00064       0.00002      -0.00717
   15; AS#1               -0.00070      -0.00206      -0.00001       0.00430
   16; AS#1               -0.00007      -0.00013       0.00000      -0.00027
   17; AS#1               -0.00000      -0.00000      -0.00001      -0.00001
   18; AS#1                0.00000       0.00001       0.00013       0.00002
   19; AS#1               -0.00001      -0.00002      -0.00027      -0.00002
   20; AS#1                0.00000       0.00000      -0.00009      -0.00003
   21; AS#1               -0.00000       0.00000       0.00013       0.00000
   22; AS#1               -0.00000      -0.00000      -0.00079      -0.00000
   23; AS#1                0.00000       0.00000       0.00157       0.00000
   24; AS#1               -0.00000      -0.00000       0.00071       0.00000
   25; AS#1               -0.00000      -0.00001       0.00001      -0.00004
   26; AS#1                0.00001       0.00002      -0.00013       0.00005
   27; AS#1               -0.00002      -0.00005       0.00027      -0.00006
   28; AS#1                0.00000       0.00000       0.00009      -0.00010
   29; AS#1                0.00002       0.00007      -0.00001      -0.00002
   30; AS#1               -0.00001      -0.00004      -0.00007       0.00001
[...]
  Current DIIS expansion coefficients : 
 [   1] 0.0017526713 [   2] 0.0019462212 [   3]-0.0582457149 [   4]-0.0083025070
 [   5] 1.0628493293
  Convergence information after    10 iterations: 
  Largest element of residual vector :  0.84838605E-06.
  Largest element of DIIS residual   :  0.33638070E-06.
   Largest T1 amplitudes for spin case AA:
   i       a                 i       a                 i       a    
-----------------------------------------------------------------------------
[  5      11    ] 0.02092 [  9      53    ] 0.02091 [  6      13    ]-0.01311
[  4      10    ] 0.01215 [  6      15    ] 0.01065 [  5      16    ]-0.00807
[  9      56    ] 0.00806 [  4      17    ] 0.00797 [  6      10    ] 0.00702
[  3      25    ] 0.00581 [  6      17    ] 0.00556 [  3      13    ]-0.00549
[  2      14    ]-0.00494 [  8      55    ]-0.00494 [  2      24    ]-0.00448
-----------------------------------------------------------------------------
   Norm of T1AA vector (      345 symmetry allowed elements):  0.0467981050.
-----------------------------------------------------------------------------
   Largest T2 amplitudes for spin case AB:
       _       _                 _       _                 _       _
   i   j   a   b             i   j   a   b             i   j   a   b
-----------------------------------------------------------------------------
[  6   6  53  53]-0.04365 [  6   6  11  11]-0.04364 [  5   5  11  11]-0.04343
[  9   9  53  53]-0.04337 [  6   6  13  13]-0.03743 [  6   6  15  15]-0.02463
[  9   9  54  54]-0.02173 [  5   5  12  12]-0.02173 [  6   6  56  53]-0.02065
[  6   6  53  56]-0.02065 [  6   6  16  11] 0.02064 [  6   6  11  16] 0.02064
[  9   9  17  17]-0.02053 [  5   5  17  17]-0.02052 [  5   5  18  11]-0.01946
-----------------------------------------------------------------------------
   Norm of T2AB vector (   210834 symmetry allowed elements):  0.3103714562.
-----------------------------------------------------------------------------
  W(mnij) AB contribution =  0.0502253914 a.u.
  W(abef) AB contribution =  0.0643984385 a.u.
  W(mbej) AB contribution = -0.1570785208 a.u.
   After  11 iterations, amplitude changes are:
    -------------------------------------------------------------------
                 Spin      RMS          Max.      Max. change for
     Amplitude   Case     Change       Change       i    j    a    b
    -------------------------------------------------------------------
        T1        AA    0.0000000008 0.0000001777    6        10
        T2        AA    0.0000000000 0.0000000211    6    5   14   11
        T2        AB    0.0000000000-0.0000000736    6    6   11   11
    -------------------------------------------------------------------
   The AA contribution to the correlation energy is:   -0.0354785 a.u.
   The AB contribution to the correlation energy is:   -0.2338021 a.u.
   The total correlation energy is -0.304759157705 a.u.
   The total correlation energy is -0.304759157705 a.u.
  Current DIIS expansion coefficients : 
 [   1] 1.2141656475 [   2]-0.0000452780 [   3] 0.0161518075 [   4]-0.0795308709
 [   5]-0.1507413061
  Convergence information after    11 iterations: 
  Largest element of residual vector :  0.17770547E-06.
  Largest element of DIIS residual   :  0.72714082E-07.
  W(mnij) AB contribution =  0.0502254103 a.u.
  W(abef) AB contribution =  0.0643984588 a.u.
  W(mbej) AB contribution = -0.1570785753 a.u.
   After  12 iterations, amplitude changes are:
    -------------------------------------------------------------------
                 Spin      RMS          Max.      Max. change for
     Amplitude   Case     Change       Change       i    j    a    b
    -------------------------------------------------------------------
        T1        AA    0.0000000002 0.0000000505    6        10
        T2        AA    0.0000000000 0.0000000061    9    4   53   17
        T2        AB    0.0000000000 0.0000000210    6    9   10   53
    -------------------------------------------------------------------
   The AA contribution to the correlation energy is:   -0.0354785 a.u.
   The AB contribution to the correlation energy is:   -0.2338021 a.u.
   The total correlation energy is -0.304759141203 a.u.
   The total correlation energy is -0.304759141203 a.u.
  Current DIIS expansion coefficients : 
 [   1]-0.2073100114 [   2] 1.2446491945 [   3]-0.0009644642 [   4] 0.0191731420
 [   5]-0.0555478609
  Convergence information after    12 iterations: 
  Largest element of residual vector :  0.50493072E-07.
  Largest element of DIIS residual   :  0.27823627E-07.
  W(mnij) AB contribution =  0.0502254108 a.u.
  W(abef) AB contribution =  0.0643984635 a.u.
  W(mbej) AB contribution = -0.1570785878 a.u.
   After  13 iterations, amplitude changes are:
    -------------------------------------------------------------------
                 Spin      RMS          Max.      Max. change for
     Amplitude   Case     Change       Change       i    j    a    b
    -------------------------------------------------------------------
        T1        AA    0.0000000001 0.0000000176    6        17
        T2        AA    0.0000000000-0.0000000018    5    4   17   11
        T2        AB    0.0000000000 0.0000000062    6    5   11   11
    -------------------------------------------------------------------
   The AA contribution to the correlation energy is:   -0.0354785 a.u.
   The AB contribution to the correlation energy is:   -0.2338021 a.u.
   The total correlation energy is -0.304759144158 a.u.
   The total correlation energy is -0.304759144158 a.u.
  Current DIIS expansion coefficients : 
 [   1]-0.0262977430 [   2]-0.1858489285 [   3] 1.2067875975 [   4] 0.0036527833
 [   5] 0.0017062908
  Convergence information after    13 iterations: 
  Largest element of residual vector :  0.17560107E-07.
  Largest element of DIIS residual   :  0.16652346E-07.
  W(mnij) AB contribution =  0.0502254110 a.u.
  W(abef) AB contribution =  0.0643984638 a.u.
  W(mbej) AB contribution = -0.1570785908 a.u.
   After  14 iterations, amplitude changes are:
    -------------------------------------------------------------------
                 Spin      RMS          Max.      Max. change for
     Amplitude   Case     Change       Change       i    j    a    b
    -------------------------------------------------------------------
        T1        AA    0.0000000001 0.0000000110    6        10
        T2        AA    0.0000000000 0.0000000006    9    6   53   17
        T2        AB    0.0000000000 0.0000000024    5    6   11   11
    -------------------------------------------------------------------
   The AA contribution to the correlation energy is:   -0.0354785 a.u.
   The AB contribution to the correlation energy is:   -0.2338021 a.u.
   The total correlation energy is -0.304759145683 a.u.
   The total correlation energy is -0.304759145683 a.u.
  Current DIIS expansion coefficients : 
 [   1] 0.0311925876 [   2]-0.1048385424 [   3]-0.1897693027 [   4] 1.2674471440
 [   5]-0.0040318865
  Convergence information after    14 iterations: 
  Largest element of residual vector :  0.11010021E-07.
  Largest element of DIIS residual   :  0.77984168E-08.
  W(mnij) AB contribution =  0.0502254122 a.u.
  W(abef) AB contribution =  0.0643984652 a.u.
  W(mbej) AB contribution = -0.1570785954 a.u.
   After  15 iterations, amplitude changes are:
    -------------------------------------------------------------------
                 Spin      RMS          Max.      Max. change for
     Amplitude   Case     Change       Change       i    j    a    b
    -------------------------------------------------------------------
        T1        AA    0.0000000000 0.0000000047    6        10
        T2        AA    0.0000000000-0.0000000003    6    5   11   10
        T2        AB    0.0000000000 0.0000000006    6    6   13   10
    -------------------------------------------------------------------
   The AA contribution to the correlation energy is:   -0.0354785 a.u.
   The AB contribution to the correlation energy is:   -0.2338021 a.u.
   The total correlation energy is -0.304759146435 a.u.
   The total correlation energy is -0.304759146435 a.u.
  Current DIIS expansion coefficients : 
 [   1]-0.0027379556 [   2] 0.0384853691 [   3]-0.0426414862 [   4]-0.4105331968
 [   5] 1.4174272695
  Convergence information after    15 iterations: 
  Largest element of residual vector :  0.46708348E-08.
  Largest element of DIIS residual   :  0.28865314E-08.
   Largest T1 amplitudes for spin case AA:
   i       a                 i       a                 i       a    
-----------------------------------------------------------------------------
[  5      11    ] 0.02092 [  9      53    ] 0.02091 [  6      13    ]-0.01311
[  4      10    ] 0.01215 [  6      15    ] 0.01065 [  5      16    ]-0.00807
[  9      56    ] 0.00806 [  4      17    ] 0.00797 [  6      10    ] 0.00702
[  3      25    ] 0.00581 [  6      17    ] 0.00556 [  3      13    ]-0.00549
[  2      14    ]-0.00494 [  8      55    ]-0.00494 [  2      24    ]-0.00448
-----------------------------------------------------------------------------
   Norm of T1AA vector (      345 symmetry allowed elements):  0.0467980898.
-----------------------------------------------------------------------------
   Largest T2 amplitudes for spin case AB:
       _       _                 _       _                 _       _
   i   j   a   b             i   j   a   b             i   j   a   b
-----------------------------------------------------------------------------
[  6   6  53  53]-0.04365 [  6   6  11  11]-0.04364 [  5   5  11  11]-0.04343
[  9   9  53  53]-0.04337 [  6   6  13  13]-0.03743 [  6   6  15  15]-0.02463
[  9   9  54  54]-0.02173 [  5   5  12  12]-0.02173 [  6   6  56  53]-0.02065
[  6   6  53  56]-0.02065 [  6   6  16  11] 0.02064 [  6   6  11  16] 0.02064
[  9   9  17  17]-0.02053 [  5   5  17  17]-0.02052 [  5   5  18  11]-0.01946
-----------------------------------------------------------------------------
   Norm of T2AB vector (   210834 symmetry allowed elements):  0.3103715544.
-----------------------------------------------------------------------------
  W(mnij) AB contribution =  0.0502254124 a.u.
  W(abef) AB contribution =  0.0643984653 a.u.
  W(mbej) AB contribution = -0.1570785964 a.u.
   After  16 iterations, amplitude changes are:
    -------------------------------------------------------------------
                 Spin      RMS          Max.      Max. change for
     Amplitude   Case     Change       Change       i    j    a    b
    -------------------------------------------------------------------
        T1        AA    0.0000000000 0.0000000015    6        10
        T2        AA    0.0000000000 0.0000000001    9    6   53   10
        T2        AB    0.0000000000-0.0000000002    6    6   11   11
    -------------------------------------------------------------------
   The AA contribution to the correlation energy is:   -0.0354785 a.u.
   The AB contribution to the correlation energy is:   -0.2338021 a.u.
   The total correlation energy is -0.304759147016 a.u.
   The total correlation energy is -0.304759147016 a.u.
  Current DIIS expansion coefficients : 
 [   1] 1.1147040005 [   2]-0.0018270268 [   3] 0.0240263837 [   4]-0.0417351820
 [   5]-0.0951681755
  Convergence information after    16 iterations: 
  Largest element of residual vector :  0.15263374E-08.
  Largest element of DIIS residual   :  0.10830783E-08.
  W(mnij) AB contribution =  0.0502254125 a.u.
  W(abef) AB contribution =  0.0643984654 a.u.
  W(mbej) AB contribution = -0.1570785967 a.u.
   After  17 iterations, amplitude changes are:
    -------------------------------------------------------------------
                 Spin      RMS          Max.      Max. change for
     Amplitude   Case     Change       Change       i    j    a    b
    -------------------------------------------------------------------
        T1        AA    0.0000000000 0.0000000006    6        10
        T2        AA    0.0000000000 0.0000000000    9    6   53   10
        T2        AB    0.0000000000 0.0000000001    6    6   15   10
    -------------------------------------------------------------------
   The AA contribution to the correlation energy is:   -0.0354785 a.u.
   The AB contribution to the correlation energy is:   -0.2338021 a.u.
   The total correlation energy is -0.304759146917 a.u.
   The total correlation energy is -0.304759146917 a.u.
  Current DIIS expansion coefficients : 
 [   1]-0.0750391269 [   2] 1.1431146966 [   3] 0.0044583908 [   4] 0.0012953361
 [   5]-0.0738292967
  Convergence information after    17 iterations: 
  Largest element of residual vector :  0.59568117E-09.
  Largest element of DIIS residual   :  0.30594482E-09.
  Amplitude equations converged in    17iterations.
   The AA contribution to the correlation energy is:   -0.0354785 a.u.
   The AB contribution to the correlation energy is:   -0.2338021 a.u.
   The total correlation energy is -0.304759146932 a.u.
   The total correlation energy is -0.304759146932 a.u.
   The CC iterations have converged.

   Largest T1 amplitudes for spin case AA:
   i       a                 i       a                 i       a    
-----------------------------------------------------------------------------
[  5      11    ] 0.02092 [  9      53    ] 0.02091 [  6      13    ]-0.01311
[  4      10    ] 0.01215 [  6      15    ] 0.01065 [  5      16    ]-0.00807
[  9      56    ] 0.00806 [  4      17    ] 0.00797 [  6      10    ] 0.00702
[  3      25    ] 0.00581 [  6      17    ] 0.00556 [  3      13    ]-0.00549
[  2      14    ]-0.00494 [  8      55    ]-0.00494 [  2      24    ]-0.00448
-----------------------------------------------------------------------------
   Norm of T1AA vector (      345 symmetry allowed elements):  0.0467980904.
-----------------------------------------------------------------------------
   Largest T2 amplitudes for spin case AB:
       _       _                 _       _                 _       _
   i   j   a   b             i   j   a   b             i   j   a   b
-----------------------------------------------------------------------------
[  6   6  53  53]-0.04365 [  6   6  11  11]-0.04364 [  5   5  11  11]-0.04343
[  9   9  53  53]-0.04337 [  6   6  13  13]-0.03743 [  6   6  15  15]-0.02463
[  9   9  54  54]-0.02173 [  5   5  12  12]-0.02173 [  6   6  56  53]-0.02065
[  6   6  53  56]-0.02065 [  6   6  16  11] 0.02064 [  6   6  11  16] 0.02064
[  9   9  17  17]-0.02053 [  5   5  17  17]-0.02052 [  5   5  18  11]-0.01946
-----------------------------------------------------------------------------
   Norm of T2AB vector (   210834 symmetry allowed elements):  0.3103715546.
-----------------------------------------------------------------------------
       Summary of iterative solution of CC equations 
      -----------------------------------------------------------
                       Correlation           Total
       Iteration         Energy              Energy
      -----------------------------------------------------------
            0        -0.287031588440   -2236.218294436001  DIIS 
            1        -0.293463981528   -2236.224726829089  DIIS 
            2        -0.302758772265   -2236.234021619826  DIIS 
            3        -0.303744502254   -2236.235007349816  DIIS 
            4        -0.304711653846   -2236.235974501407  DIIS 
            5        -0.304759200791   -2236.236022048353  DIIS 
            6        -0.304757498549   -2236.236020346111  DIIS 
            7        -0.304758971280   -2236.236021818841  DIIS 
            8        -0.304758222839   -2236.236021070401  DIIS 
            9        -0.304759261170   -2236.236022108731  DIIS 
           10        -0.304759067305   -2236.236021914866  DIIS 
           11        -0.304759157705   -2236.236022005266  DIIS 
           12        -0.304759141203   -2236.236021988764  DIIS 
           13        -0.304759144158   -2236.236021991720  DIIS 
           14        -0.304759145683   -2236.236021993245  DIIS 
           15        -0.304759146435   -2236.236021993996  DIIS 
           16        -0.304759147016   -2236.236021994577  DIIS 
           17        -0.304759146932   -2236.236021994493  DIIS 
      -----------------------------------------------------------
      A miracle has come to pass. The CC iterations have converged.
 @DIMT3-I, Dimensions of T3 amplitudes : 
               # abc          # ijk       Symmetry    Spin 
                    29799             38     1          1
                    29841             46     2          1
                    92450            162     1          2
                    91582            162     2          2
                    92450            162     1          3
                    91582            162     2          3
                    29799             38     1          4
                    29841             46     2          4
 @DIMT3-I, Dimensions of T3 amplitudes : 
               # abc          # ijk       Symmetry    Spin 
                    29799             38     1          1
                    29841             46     2          1
                    92450            162     1          2
                    91582            162     2          2
                    92450            162     1          3
                    91582            162     2          3
                    29799             38     1          4
                    29841             46     2          4
 @TRPS-I, Welcome to TRPS. Watch your RUs ! 
 @TRPS-I, Method is CCSD(T) 
 @TRPS-I, Calculation type is energy 
 @TRPS-I, Reference function information : 
          Reference function is Hartree-Fock 
          Reference function is RHF Hartree-Fock 
 @TRPS-I, INT1 is true 
 @TRPS-I, INT2 is false 
 @TRPS-I, Lengths of ijka integrals. #1      11664
                                     #2      11664
                                     #3      26433
                                     #4      26433
                                    Max      26433
 @INITRP-I, Initializing W intermediate lists. 
 @SETOOOV-I, Some OOOV lists are being transposed. 
 @TRPS-I, Available memory in integer words   1499959040
          Number of pre-allocated words for TRPS2       107342
          Number of free words for TRPS2   1499851698
 @TRPS2-I, Spin case AAB 
 @TRPS2-I, Number of free integer words 1499851698
           Number of free double  words 1499851698
           Ratio                                 1
 @TRPS2-I, E4TBAA      -0.004827240693
  @TRPS2-I, E4TAAA  -3.389457598383170E-004
 @TRPS2-I, E5ST A    0.000184575647684
 @TRPS2-I, E5ST B    0.000146596843603
 @SETOOOV-I, Some OOOV lists are being transposed. 
 @CCENRG-I, CCSD/QCISD energy will now be evaluated. 
 @CCENRG-I, Correlation energies. ECCAA       -0.035478536413
                                  ECCBB        0.000000000000
                                  ECCAB       -0.233802074105
                                  Total       -0.304759146932
 @CCENRG-I, Reference   energy   -2235.931262847561
            CCSD/QCISD energy    -2236.236021994493
          E4T (T(CCSD)) = -0.010332372905
          E5ST          =  0.000662344983
          E4ST          =  0.000000000000
          In other words  
          <T3[2](Dagger) D3  T3[2]> = -0.010332372905
          <T1   (Dagger) Q1 WT3[2]> =  0.000662344983
          <T2   (Dagger) Q2 FT3[2]> =  0.000000000000
        E(CCSD)           =   -2236.236021994493
        E(CCSD + T(CCSD)) =   -2236.246354367398
        E(CCSD(T))        =   -2236.245692022416
  @CHECKOUT-I, Total execution time (CPU/WALL):       14.72/      28.30 seconds.
--executable xvcc finished with status     0 in       28.46 seconds (walltime).
  The final electronic energy is     -2236.245692022415824 a.u. 
  This computation required                           51.58 seconds (walltime).
