 --invoking executable--
/home/nike/cfour_v2.00beta/cfour_v2.00beta/bin/xjoda


   *************************************************************************
         <<<     CCCCCC     CCCCCC   |||     CCCCCC     CCCCCC   >>>
       <<<      CCC        CCC       |||    CCC        CCC         >>>
      <<<      CCC        CCC        |||   CCC        CCC            >>>
    <<<        CCC        CCC        |||   CCC        CCC              >>>
      <<<      CCC        CCC        |||   CCC        CCC            >>>
       <<<      CCC        CCC       |||    CCC        CCC         >>>
         <<<     CCCCCC     CCCCCC   |||     CCCCCC     CCCCCC   >>>
   *************************************************************************

     ****************************************************************
     * CFOUR Coupled-Cluster techniques for Computational Chemistry *
     ****************************************************************
 

   Department of Chemistry                Institut fuer Physikalische Chemie
   University of Texas at Austin          Universitaet Mainz
   Austin, TX  78712, USA                 D-55099 Mainz, Germany
 
                       Version 2.00beta
 
                     blg4116.int.ets1.calculquebec.ca                  
                     Sa 7. Mär 16:31:57 EST 2020                      
                     integer*8 version is running
 
********************************************************************************
*                          Input from ZMAT file                                *
********************************************************************************
TITLE                                                                           
S                                                                               
F 1 R1                                                                          
F 1 R1 2 A1                                                                     
F 1 R2 2 A2 3 D1                                                                
F 1 R2 2 A2 3 D2                                                                
                                                                                
R1=3.11048920113                                                                
R2=2.91962686255                                                                
A1=173.07                                                                       
A2=87.81                                                                        
D1=50.8                                                                         
D2=309.2                                                                        
                                                                                
*ACES2(CALC=CCSD(T)                                                             
UNITS=BOHR                                                                      
#GEOM=1.646*10/5.29177210903_1.545*10/5.29177210903_fromAbstractOfTolles1962JCP_
#COORD=CARTESIAN                                                                
COORD=INTERNAL                                                                  
PRINT=4                                                                         
JODA_PRINT=4                                                                    
INPUT_MRCC=OFF                                                                  
#CC_PROG=MRCC                                                                   
#FROZEN_CORE=ON                                                                 
DROPMO=1>9                                                                      
CONTRACTION=GENERAL                                                             
#CONTRACTION=SEGMENTED                                                          
RELATIVISTIC=OFF                                                                
#EXCITE=EOMEE                                                                   
#ESTATE_CONV=5                                                                  
#ESTATE_SYM=2/2/2/2/2/2/2/2                                                     
XFORM_TOL=18                                                                    
SAVE_INTS=ON                                                                    
SCF_EXPORDER=6                                                                  
SCF_EXPSTART=5                                                                  
#SCF_DAMPING=1000                                                               
SCF_EXTRAPOLATION=ON                                                            
SCF_CONV=12                                                                     
SCF_MAXCYC=99999                                                                
CC_CONV=9                                                                       
CC_MAXCYC=999                                                                   
T3_EXTRAPOL=ON                                                                  
REFERENCE=RHF                                                                   
CHARGE=+0                                                                       
MULT=1                                                                          
ABCDTYPE=STANDARD                                                               
#OCCUPATION=3-2-2-0-1-0-0-0/3-1-1-0-1-0-0-0                                     
MEM=12                                                                          
MEM_UNIT=GB                                                                     
ECP=OFF                                                                         
BASIS=SPECIAL)                                                                  
                                                                                
S:def2-TZVPP                                                                    
F:def2-TZVPP                                                                    
F:def2-TZVPP                                                                    
F:def2-TZVPP                                                                    
F:def2-TZVPP                                                                    
                                                                                
S:def2-TZVPP                                                                    
F:def2-TZVPP                                                                    
F:def2-TZVPP                                                                    
F:def2-TZVPP                                                                    
F:def2-TZVPP                                                                    
                                                                                
********************************************************************************
  @GTFLGS-W, Keyword #GEOM not known and is ignored.
  @GTFLGS-W, Keyword #COORD not known and is ignored.
  @GTFLGS-W, Keyword #CC_PROG not known and is ignored.
  @GTFLGS-W, Keyword #FROZEN_CORE not known and is ignored.
  @GTFLGS-W, Keyword #CONTRACTION not known and is ignored.
  @GTFLGS-W, Keyword #EXCITE not known and is ignored.
  @GTFLGS-W, Keyword #ESTATE_CONV not known and is ignored.
  @GTFLGS-W, Keyword #ESTATE_SYM not known and is ignored.
  @GTFLGS-W, Keyword #SCF_DAMPING not known and is ignored.
  @GTFLGS-W, Keyword #OCCUPATION not known and is ignored.
    -------------------------------------------------------------------
                    CFOUR Control Parameters 
    -------------------------------------------------------------------
        External           Internal           Value            Units
          Name               Name
    -------------------------------------------------------------------
       ABCDTYPE             IABCDT         STANDARD     [  0]   ***   
       ANHARMONIC           IANHAR         OFF          [  0]   ***   
       ANH_ALGORIT          IANALG         STANDARD     [  0]   ***   
       ANH_DERIVAT          IANDER         SECOND       [  1]   ***   
       ANH_STEPSIZ          ICUBST             50000          x 10-6  
       ANH_SYMMETR          IANHSM         ABELIAN      [  0]   ***   
       AO_LADDERS           IAOLAD         SINGLEPASS   [  1]   ***   
       BASIS                IBASIS         SPECIAL      [  0]   ***   
       BREIT                IBREIT         OFF          [  0]   ***   
       BRUCK_CONV           IBRTOL          10D-  4             ***   
       BRUECKNER            IBRKNR             OFF      [  0]   ***   
       BUFFERSIZE           IBUFFS            600               ***   
       CACHE_RECS           ICHREC             10               ***   
       CALCLEVEL            ICLLVL           CCSD(T)    [ 22]   ***   
       CCORBOPT             ICCORB             OFF      [  0] x 0.01  
       CC_CONV              ICCCNV          10D-  9             ***   
       CC_EXPORDER          ICCEOR              5               ***   
       CC_EXTRAPOL          ICCEXT             DIIS     [  1]   ***   
       CC_MAXCYC            ICCCYC            999              cycles 
       CC_PROGRAM           ICCPRO         VCC          [  0]   ***   
       CHARGE               ICHRGE              0               ***   
       CHOLESKY             ICHOLE         OFF          [  0]   ***   
       CIS_CONV             ICISTL              5               ***   
       COMM_SIZE            IPSIZE            ***               ***   
       CONSTANT             ICONST         OLD          [  1]   ***   
       CONTINUUM            ICONTU         NONE         [  0]   ***   
       CONTRACTION          ICNTYP          GENERAL     [  1]   ***   
       COORDINATES          ICOORD         INTERNAL     [  0]   ***   
       CPHF_CONVER          ICPHFT          10D- 16             ***   
       CPHF_MAXCYC          ICPHFC             64              cycles 
       CUBIC                ICUBIC         OFF          [  0]   ***   
       CURVILINEAR          ICURVY            OFF       [  0]   ***   
       DBOC                 IDBOC          OFF          [  0]   ***   
       DCT                  IDCT           OFF          [  0]   ***   
       DERIV_LEV            IDRLVL            ZERO      [  0]   ***   
       DIAG_MRCC            IEOMST          10D-  0             ***   
       DIFF_TYPE            IDIFTY         RELAXED      [  0]   ***   
       DIRECT               IDIRCT         OFF          [  0]   ***   
       DROPMO               IDRPMO   1,  2,  3,  4,  5,  6,  7,  8,
                                     9,
       ECP                  IECP           OFF          [  0]   ***   
       EIGENVECTOR          IVEC                1               ***   
       EL_ANHARM            IELANH         OFF          [  0]   ***   
       EOMFOLLOW            IEOMSR         ENERGY       [  0]   ***   
       EOM_MRCC             IMRCCE         NEW          [  1]   ***   
       EOM_NONIT            EOMNON         OFF          [  0]   ***   
       EOM_NSING            IEOMSI          10D-  0             ***   
       EOM_NSTATES          IMRCCD         DAVIDSON     [  0]   ***   
       EOM_NTRIP            IEOMTR          10D-  0             ***   
       EOM_ORDER            IEXORD         ENERGY       [  0]   ***   
       ESTATE_CONV          IEXTOL          10D-  5             ***   
       ESTATE_DIAG          IEXDIG         ITERATIVE    [  0]   ***   
       ESTATE_LOCK          IESLOC         ON           [  1]   ***   
       ESTATE_MAXC          IEXMXC             20               ***   
       ESTATE_PROP          IEXPRP         OFF          [  0]   ***   
       EVAL_HESS            IRECAL              0            # of cyc.
       EXCITATION           IEXCIT              0               ***   
       EXCITE               IEXCIT         NONE         [  0]   ***   
       FCGRADNEW            IFCGNW         OFF          [  0]   ***   
       FC_FIELD             IFINFC              0             x 10-6  
       FD_CALTYPE           IFDCAL         GRADONLY     [  0]   ***   
       FD_PROJECT           IFDPRJ         OFF          [  1]   ***   
       FD_STEPSIZE          IDISFD              0            10-4 bohr
       FD_USEGROUP          IFDGRP         FULL         [  0]   ***   
       FILE_RECSIZ          IFLREC              4096           words  
       FINITE_PERT          IFIPER              0             x 10-6  
       FIXGEOM              IFIXGM         OFF          [  0]   ***   
       FOCK                 IFOCK          AO           [  1]   ***   
       FREQ_ALGORI          IVIALG         STANDARD     [  0]   ***   
       FROZEN_CORE          IFROCO         OFF          [  0]   ***   
       FROZEN_VIRT          IFROVI         OFF          [  0]   ***   
       GAMMA_ABCD           IGABCD         STORE        [  0]   ***   
       GAMMA_ABCI           IGABCI         STORE        [  0]   ***   
       GENBAS_1             IGNBS1              0               ***   
       GENBAS_2             IGNBS2              0               ***   
       GENBAS_3             IGNBS3              0               ***   
       GENBAS_4             IGNBS4              0               ***   
       GEO_CONV             ICONTL              5              H/bohr 
       GEO_MAXCYC           IOPTCY             50               ***   
       GEO_MAXSTEP          IMXSTP            300            millibohr
       GEO_METHOD           INR            SINGLE_POINT [  5]   ***   
       GIAO                 IGIAO          OFF          [  1]   ***   
       GIMIC                IGIMIC         OFF          [  0]   ***   
       GRID                 IGRID          OFF          [  0]   ***   
       GRID_ALGO            IGALGO         SERIAL       [  0]   ***   
       GUESS                IGUESS            MOREAD    [  0]   ***   
       HBAR                 IHBAR              OFF      [  0]   ***   
       HESS_TYPE            IHESTP         SCF          [  0]   ***   
       HF2_FILE             IHF2Fl         USE          [  1]   ***   
       HFSTABILITY          ISTABL         OFF          [  0]   ***   
       INCORE               INCORE             OFF      [  0]   ***   
       INPUT_MRCC           IMRCC          OFF          [  0]   ***   
       INTEGRALS            INTTYP             VMOL     [  1]   ***   
       JODA_PRINT           IJPRNT              4               ***   
       LINDEP_TOL           ILINDP              8               ***   
       LINEQ_CONV           IZTACN          10D-  7           cycles  
       LINEQ_EXPOR          ILMAXD              5               ***   
       LINEQ_MAXCY          ILMAXC             50               ***   
       LINEQ_TYPE           ILTYPE         DIIS         [  1]   ***   
       LOCK_ORBOCC          ILOCOC             OFF      [  0]   ***   
       MEMORY_SIZE          IMEMSZ         *********           words  
       MEM_UNIT             IMEMU          GB           [  3]   ***   
       MRCC                 IMRCCC         OFF          [  0]   ***   
       MULTIPLICTY          IMULTP              1               ***   
       NEGEVAL              IDIE             ABORT      [  0]   ***   
       NEWNORM              INEWNO         OFF          [  0]   ***   
       NON-HF               INONHF             OFF      [  0]   ***   
       NTOP_TAMP            ITOPT2             15               ***   
       NUC_MODEL            INUCMO         POINT        [  0]   ***   
       OCCUPATION           IOCCU   ESTIMATED BY SCF 
       OPEN-SHELL           IOPEN          SPIN-ORBITAL [  0]   ***   
       ORBITALS             IORBTP           STANDARD   [  0]   ***   
       PARALLEL             IPARAL         ON           [  1]   ***   
       PARA_INT             IPINTS         ON           [  1]   ***   
       PARA_PRINT           IPPRIN              0               ***   
       PERT_ORB             IPTORB         STANDARD     [  0]   ***   
       POINTS               IGRDFD              0               ***   
       PRINT                IPRNT               4               ***   
       PROPS                IPROPS             OFF      [  0]   ***   
       PROP_INTEGR          IINTYP         INTERNAL     [  0]   ***   
       PSI                  IPSI           OFF          [  0]   ***   
       QUARTIC              IQUART         OFF          [  0]   ***   
       RAMAN_INT            IRAMIN         OFF          [  0]   ***   
       RAMAN_ORB            IRAMRE         UNRELAXED    [  0]   ***   
       RDO                  IRDOFM             OFF      [  0]   ***   
       REFERENCE            IREFNC             RHF      [  0]   ***   
       RELATIVIST           IRELAT         OFF          [  0]   ***   
       RELAX_DENS           IRDENS             OFF      [  0]   ***   
       RESET_FLAGS          IRESET             OFF      [  0]   ***   
       RESTART_CC           ICCRES         OFF          [  0]   ***   
       ROT_EVEC             ROTVEC              0               ***   
       SAVE_INTS            ISVINT              ON      [  1]   ***   
       SCALE_ON             ISTCRT              0               ***   
       SCF_CONV             ISCFCV          10D- 12             ***   
       SCF_DAMPING          IDAMP               0             x 10-3  
       SCF_EXPORDE          IRPPOR              6               ***   
       SCF_EXPSTAR          IRPPLS              5               ***   
       SCF_EXTRAPO          IRPP                ON      [  1]   ***   
       SCF_MAXCYC           ISCFCY            ***              cycles 
       SCF_NOSTOP           ISCFST         OFF          [  0]   ***   
       SCF_PRINT            ISCFPR              0               ***   
       SD_FIELD             IFINSD              0             x 10-6  
       SEQUENCE             ISEQUE         OFF          [  0]   ***   
       SOPERT               IPERSO         OFF          [  0]   ***   
       SPHERICAL            IDFGHI             ON       [  1]   ***   
       SPINORBIT            ISOCAL         OFF          [  0]   ***   
       SPINROTATIO          ISRCON         OFF          [  0]   ***   
       SPIN_FLIP            ISPFLP         OFF          [  0]   ***   
       SPIN_ORBIT           ISPORB         OFF          [  0]   ***   
       SPIN_SCAL            ISCSMP         OFF          [  0]   ***   
       SUBGROUP             ISUBGP         DEFAULT      [  0]   ***   
       SUBGRPAXIS           ISBXYZ         X            [  0]   ***   
       SYMMETRY             ISYM             ON         [  0]   ***   
       SYM_CHECK            ISYMCK         OVERRIDE     [  1]   ***   
       T3_EXTRAPOL          IT3EXT         ON           [  1]   ***   
       TAMP_SUM             IEVERY              5               ***   
       TESTSUITE            ITESTS         OFF          [  0]   ***   
       THERMOCH             ITHERM         OFF          [  0]   ***   
       TOL_CHOLESK          ITOLCH          10D-  4             ***   
       TRANGRAD             IRESRM         OFF          [  0]   ***   
       TRANS_INV            ITRAIN         USE          [  0]   ***   
       TREAT_PERT           ITREAT         SIMULTANEOUS [  0]   ***   
       UIJ_THRESHO          IUIJTH              1               ***   
       UNITS                IUNITS         BOHR         [  1]   ***   
       UNOS                 IUNOS          OFF          [  0]   ***   
       UPDATE_HESS          IHUPDT         ON           [  1]   ***   
       VIBPHASE             ISETPH         STANDARD     [  0]   ***   
       VIBRATION            IVIB              NO        [  0]   ***   
       VIB_ALGORIT          IGEALG         STANDARD     [  0]   ***   
       VNATORB              IVNORB         OFF          [  0]   ***   
       VTRAN                IVTRAN         FULL/PARTIAL [  0]   ***   
       XFIELD               IXEFLD              0             x 10-6  
       XFORM_TOL            IXFTOL          10D- 18             ***   
       YFIELD               IYEFLD              0             x 10-6  
       ZFIELD               IZEFLD              0             x 10-6  
    -------------------------------------------------------------------
   5 entries found in Z-matrix 
   Job Title : TITLE                                                                           
 Variable names read by FETCHZ
  1           
  2           
  3           
  4 R1        
  5           
  6           
  7 R1        
  8 A1        
  9           
 10 R2        
 11 A2        
 12 D1        
 13 R2        
 14 A2        
 15 D2        
 Atomic symbols read by FETCHZ
  1 S    
  2 F    
  3 F    
  4 F    
  5 F    
 Connectivity matrix read by FETCHZ
  1   0
  2   0
  3   0
  4   1
  5   0
  6   0
  7   1
  8   2
  9   0
 10   1
 11   2
 12   3
 13   1
 14   2
 15   3
   There are  6 unique internal coordinates.
   Of these,  0 will be optimized.
   User supplied Z-matrix: 
--------------------------------------------------------------------------------
       SYMBOL    BOND      LENGTH    ANGLE     ANGLE     DIHED     ANGLE
                  TO      (ANGST)    WRT      (DEG)      WRT      (DEG)
--------------------------------------------------------------------------------
        S    
        F          1         R1   
        F          1         R1         2        A1   
        F          1         R2         2        A2         3        D1   
        F          1         R2         2        A2         3        D2   
                  *Initial values for internal coordinates* 
                      Name             Value
                        R1              3.1104892011
                        A1            173.0700000000
                        R2              2.9196268625
                        A2             87.8100000000
                        D1             50.8000000000
                        D2            309.2000000000
--------------------------------------------------------------------------------
  1  S         16    31.97207
  2  F          9    18.99840
  3  F          9    18.99840
  4  F          9    18.99840
  5  F          9    18.99840
@GMETRY-W, Internal coordinate # 15 not within bounds:
   Value was:    5.39656 and has been changed to   -0.88663.
   31.9720707000
   18.9984032200
   18.9984032200
   18.9984032200
   18.9984032200
 After translation to center of mass coordinates 
       -0.714986693386   -0.000000000000   -0.043263621675
       -0.714986693386   -0.000000000000    3.067225579455
       -0.339685552237   -0.000000000000   -3.131028529144
        1.128955239055   -2.260896183153    0.068305259807
        1.128955239055    2.260896183153    0.068305259807
  Inertia tensor (amu*bohr**2)
  559.44592    0.00000   17.53888
    0.00000  441.89649   -0.00000
   17.53888   -0.00000  270.90345
    Inertia tensor:
      559.445915856173    0.000000000000   17.538883464069
        0.000000000000  441.896493988891   -0.000000000000
       17.538883464069   -0.000000000000  270.903447276448
    Principal axis orientation for molecular system: 
        0.000036956272   -0.000000000000   -0.716294430604
        3.104837642659   -0.000000000000   -0.528263134917
       -3.104768217283   -0.000000000000   -0.528337242357
       -0.000065809211   -2.260896183153    1.131019688589
       -0.000065809211    2.260896183153    1.131019688589
    Diagonalized inertia tensor:
      269.841266700057    0.000000000000    0.000000000000
        0.000000000000  441.896493988891    0.000000000000
        0.000000000000    0.000000000000  560.508096432564
    Eigenvectors of inertia tensor: 
       -0.060450714832    0.000000000000    0.998171183253
       -0.000000000000    1.000000000000   -0.000000000000
        0.998171183253    0.000000000000    0.060450714832
 factor:   60.1997200000000     
   Rotational constants (in cm-1): 
          0.1074020525             0.1362303635             0.2230930826
   Rotational constants (in MHz): 
       3219.8329824253          4084.0841245854          6688.1632964467
  @SYMMETRY-I, Handedness of inertial frame:-1.00000
  @SYMMETRY-I, Sense of inertial frame y-axis will be changed.
  @SYMMETRY-I, The symmetry group is 1-fold degenerate.
  @SYMMETRY-I, The molecule belongs to an Abelian group.
   Principal axis orientation for molecule:
        0.000036956272    0.000000000000   -0.716294430604
        3.104837642659    0.000000000000   -0.528263134917
       -3.104768217283    0.000000000000   -0.528337242357
       -0.000065809211    2.260896183153    1.131019688589
       -0.000065809211   -2.260896183153    1.131019688589
   Reflection in plane  2 is a valid symmetry operation.
  Symmetry bits:    2   0   0
********************************************************************************
   The full molecular point group is C s .
   The largest Abelian subgroup of the full molecular point group is C s .
   The computational point group is C s .
********************************************************************************
--------------------------------------------------------------------------------
   Analysis of internal coordinates specified by Z-matrix 
--------------------------------------------------------------------------------
   *The nuclear repulsion energy is  299.630441067837126 a.u.
   *There are   6 degrees of freedom within the tot. symm. molecular subspace.
   *Z-matrix requests optimization of   0 coordinates.
   *The optimization is constrained.
   *The following   5 parameters can have non-zero 
    derivatives within the totally symmetric subspace:
             A2   [ 5]  D1   [ 6]  A1   [ 3]  R1   [ 2]  R2   [ 7]
   *The following   0 parameters are to be optimized:

   *The following coordinates must be varied in an  unconstrained optimization.
             A2   [ 5]  D1   [ 6]  A1   [ 3]  R1   [ 2]  R2   [ 7]
--------------------------------------------------------------------------------
 ----------------------------------------------------------------
 Z-matrix   Atomic            Coordinates (in bohr)
  Symbol    Number           X              Y              Z
 ----------------------------------------------------------------
     S        16        -0.71629443     0.00003696     0.00000000
     F         9        -0.52826313     3.10483764     0.00000000
     F         9        -0.52833724    -3.10476822     0.00000000
     F         9         1.13101969    -0.00006581     2.26089618
     F         9         1.13101969    -0.00006581    -2.26089618
 ----------------------------------------------------------------
   Interatomic distance matrix (Angstroms) 
 
                 S             F             F             F             F    
                [ 1]        [ 2]        [ 3]        [ 4]        [ 5]
  S    [ 1]     0.00000
  F    [ 2]     1.64600     0.00000
  F    [ 3]     1.64600     3.28598     0.00000
  F    [ 4]     1.54500     2.21404     2.21398     0.00000
  F    [ 5]     1.54500     2.21404     2.21398     2.39283     0.00000
  Inertia tensor (amu*bohr**2)
  560.50810   -0.00000   -0.00000
   -0.00000  269.84127    0.00000
   -0.00000    0.00000  441.89649
   Rotational constants (in cm-1): 
          0.1074020525             0.2230930826             0.1362303635
   Rotational constants (in MHz): 
       3219.8329824253          6688.1632964467          4084.0841245854
  @GTFLGS-W, Keyword #GEOM not known and is ignored.
  @GTFLGS-W, Keyword #COORD not known and is ignored.
  @GTFLGS-W, Keyword #CC_PROG not known and is ignored.
  @GTFLGS-W, Keyword #FROZEN_CORE not known and is ignored.
  @GTFLGS-W, Keyword #CONTRACTION not known and is ignored.
  @GTFLGS-W, Keyword #EXCITE not known and is ignored.
  @GTFLGS-W, Keyword #ESTATE_CONV not known and is ignored.
  @GTFLGS-W, Keyword #ESTATE_SYM not known and is ignored.
  @GTFLGS-W, Keyword #SCF_DAMPING not known and is ignored.
  @GTFLGS-W, Keyword #OCCUPATION not known and is ignored.
  There are  166 basis functions.
 @GEOPT-W, Archive file not created for single-point calculation.
  @CHECKOUT-I, Total execution time (CPU/WALL):        0.69/       1.18 seconds.
--executable xjoda finished with status     0 in        4.50 seconds (walltime).
 --invoking executable--
/home/nike/cfour_v2.00beta/cfour_v2.00beta/bin/xvmol
 Serial version of molecule started
********************************************************************************
                    Input from MOL file
********************************************************************************
INTGRL        1    0    1    0    0    0    0    0    0                         
         *** CFOUR Program System (Release V0.1) ***                            
TITLE                                                                           
    4    1 Z          0.10E-08              0    0                              
   9999.00      3.00                                                            
         16.00000000    1    4    1    1    1    1                              
S #1  -0.716294430603740   0.000036956272141   0.000000000000000                
   14    5                                                                      
   60700.9281040000       5.469594422500000E-004  0.000000000000000E+000        
  0.000000000000000E+000  0.000000000000000E+000  0.000000000000000E+000        
   9102.61068540000       4.229722455700000E-003  0.000000000000000E+000        
  0.000000000000000E+000  0.000000000000000E+000  0.000000000000000E+000        
   2071.41660090000       2.174782415900000E-002  0.000000000000000E+000        
  0.000000000000000E+000  0.000000000000000E+000  0.000000000000000E+000        
   586.024768210000       8.510005358900000E-002  0.000000000000000E+000        
  0.000000000000000E+000  0.000000000000000E+000  0.000000000000000E+000        
   190.553950210000       0.247991284590000       0.000000000000000E+000        
  0.000000000000000E+000  0.000000000000000E+000  0.000000000000000E+000        
   67.6303842600000       0.467036404060000       0.000000000000000E+000        
  0.000000000000000E+000  0.000000000000000E+000  0.000000000000000E+000        
   25.1273069050000       0.364345875500000       0.000000000000000E+000        
  0.000000000000000E+000  0.000000000000000E+000  0.000000000000000E+000        
   112.574630100000       0.000000000000000E+000  2.167004024000000E-002        
  0.000000000000000E+000  0.000000000000000E+000  0.000000000000000E+000        
   34.7955542170000       0.000000000000000E+000  9.360230176000001E-002        
  0.000000000000000E+000  0.000000000000000E+000  0.000000000000000E+000        
   6.51155562150000       0.000000000000000E+000 -0.260680014220000             
  0.000000000000000E+000  0.000000000000000E+000  0.000000000000000E+000        
   3.23990322610000       0.000000000000000E+000  0.000000000000000E+000        
   1.28420894350000       0.000000000000000E+000  0.000000000000000E+000        
   1.54771608810000       0.000000000000000E+000  0.000000000000000E+000        
  0.660364165840000       0.000000000000000E+000  0.000000000000000E+000        
  0.405410301120000       0.000000000000000E+000  0.000000000000000E+000        
  0.000000000000000E+000   1.00000000000000       0.000000000000000E+000        
  0.145506510590000       0.000000000000000E+000  0.000000000000000E+000        
  0.000000000000000E+000  0.000000000000000E+000   1.00000000000000             
    9    5                                                                      
   564.367160270000       2.479679631700000E-003  0.000000000000000E+000        
  0.000000000000000E+000  0.000000000000000E+000  0.000000000000000E+000        
   133.426243790000       1.967793025000000E-002  0.000000000000000E+000        
  0.000000000000000E+000  0.000000000000000E+000  0.000000000000000E+000        
   42.4682711890000       8.998000825800000E-002  0.000000000000000E+000        
  0.000000000000000E+000  0.000000000000000E+000  0.000000000000000E+000        
   15.6165275800000       0.257058805750000       0.000000000000000E+000        
  0.000000000000000E+000  0.000000000000000E+000  0.000000000000000E+000        
   6.10939884690000       0.435151672920000       0.000000000000000E+000        
  0.000000000000000E+000  0.000000000000000E+000  0.000000000000000E+000        
   2.44041601980000       0.000000000000000E+000  0.348832405950000             
  0.000000000000000E+000  0.000000000000000E+000  0.000000000000000E+000        
  0.838822012960000       0.000000000000000E+000  0.000000000000000E+000        
   1.00000000000000       0.000000000000000E+000  0.000000000000000E+000        
  0.312887469000000       0.000000000000000E+000  0.000000000000000E+000        
  0.000000000000000E+000   1.00000000000000       0.000000000000000E+000        
  0.107701090040000       0.000000000000000E+000  0.000000000000000E+000        
  0.000000000000000E+000  0.000000000000000E+000   1.00000000000000             
    3    3                                                                      
  0.273000000000000        1.00000000000000       0.000000000000000E+000        
  0.000000000000000E+000                                                        
   3.75600000000000       0.000000000000000E+000   1.00000000000000             
  0.000000000000000E+000                                                        
  0.812000000000000       0.000000000000000E+000  0.000000000000000E+000        
   1.00000000000000                                                             
    1    1                                                                      
  0.557000000000000        1.00000000000000                                     
          9.00000000    1    4    1    1    1    1                              
F #2  -0.528263134917089   3.104837642659069   0.000000000000000                
   11    5                                                                      
   35479.1004410000       2.154501488800000E-004  0.000000000000000E+000        
  0.000000000000000E+000  0.000000000000000E+000  0.000000000000000E+000        
   5318.47289830000       1.670068652700000E-003  0.000000000000000E+000        
  0.000000000000000E+000  0.000000000000000E+000  0.000000000000000E+000        
   1210.48109750000       8.673321147599999E-003  0.000000000000000E+000        
  0.000000000000000E+000  0.000000000000000E+000  0.000000000000000E+000        
   342.855181400000       3.504993317500000E-002  0.000000000000000E+000        
  0.000000000000000E+000  0.000000000000000E+000  0.000000000000000E+000        
   112.019431810000       0.111653201330000       0.000000000000000E+000        
  0.000000000000000E+000  0.000000000000000E+000  0.000000000000000E+000        
   40.7147402480000       0.259885066470000       0.000000000000000E+000        
  0.000000000000000E+000  0.000000000000000E+000  0.000000000000000E+000        
   16.0396781110000       0.000000000000000E+000  0.394229668800000             
  0.000000000000000E+000  0.000000000000000E+000  0.000000000000000E+000        
   6.50381867400000       0.000000000000000E+000  0.249982385510000             
  0.000000000000000E+000  0.000000000000000E+000  0.000000000000000E+000        
   1.54404775090000       0.000000000000000E+000  0.000000000000000E+000        
   1.00000000000000       0.000000000000000E+000  0.000000000000000E+000        
  0.612234528620000       0.000000000000000E+000  0.000000000000000E+000        
  0.000000000000000E+000   1.00000000000000       0.000000000000000E+000        
  0.240279796980000       0.000000000000000E+000  0.000000000000000E+000        
  0.000000000000000E+000  0.000000000000000E+000   1.00000000000000             
    6    3                                                                      
   80.2339004830000       6.368599913400000E-003  0.000000000000000E+000        
  0.000000000000000E+000                                                        
   18.5940107430000       4.430314353000000E-002  0.000000000000000E+000        
  0.000000000000000E+000                                                        
   5.68679026530000       0.168672487080000       0.000000000000000E+000        
  0.000000000000000E+000                                                        
   1.95110062940000       0.361663462550000       0.000000000000000E+000        
  0.000000000000000E+000                                                        
  0.669702112980000       0.000000000000000E+000  0.442029014910000             
  0.000000000000000E+000                                                        
  0.216513004100000       0.000000000000000E+000  0.000000000000000E+000        
  0.243198757300000                                                             
    2    2                                                                      
   3.10700000000000        1.00000000000000       0.000000000000000E+000        
  0.855000000000000       0.000000000000000E+000   1.00000000000000             
    1    1                                                                      
   1.91700000000000        1.00000000000000                                     
          9.00000000    1    4    1    1    1    1                              
F #3  -0.528337242357173  -3.104768217282679   0.000000000000000                
   11    5                                                                      
   35479.1004410000       2.154501488800000E-004  0.000000000000000E+000        
  0.000000000000000E+000  0.000000000000000E+000  0.000000000000000E+000        
   5318.47289830000       1.670068652700000E-003  0.000000000000000E+000        
  0.000000000000000E+000  0.000000000000000E+000  0.000000000000000E+000        
   1210.48109750000       8.673321147599999E-003  0.000000000000000E+000        
  0.000000000000000E+000  0.000000000000000E+000  0.000000000000000E+000        
   342.855181400000       3.504993317500000E-002  0.000000000000000E+000        
  0.000000000000000E+000  0.000000000000000E+000  0.000000000000000E+000        
   112.019431810000       0.111653201330000       0.000000000000000E+000        
  0.000000000000000E+000  0.000000000000000E+000  0.000000000000000E+000        
   40.7147402480000       0.259885066470000       0.000000000000000E+000        
  0.000000000000000E+000  0.000000000000000E+000  0.000000000000000E+000        
   16.0396781110000       0.000000000000000E+000  0.394229668800000             
  0.000000000000000E+000  0.000000000000000E+000  0.000000000000000E+000        
   6.50381867400000       0.000000000000000E+000  0.249982385510000             
  0.000000000000000E+000  0.000000000000000E+000  0.000000000000000E+000        
   1.54404775090000       0.000000000000000E+000  0.000000000000000E+000        
   1.00000000000000       0.000000000000000E+000  0.000000000000000E+000        
  0.612234528620000       0.000000000000000E+000  0.000000000000000E+000        
  0.000000000000000E+000   1.00000000000000       0.000000000000000E+000        
  0.240279796980000       0.000000000000000E+000  0.000000000000000E+000        
  0.000000000000000E+000  0.000000000000000E+000   1.00000000000000             
    6    3                                                                      
   80.2339004830000       6.368599913400000E-003  0.000000000000000E+000        
  0.000000000000000E+000                                                        
   18.5940107430000       4.430314353000000E-002  0.000000000000000E+000        
  0.000000000000000E+000                                                        
   5.68679026530000       0.168672487080000       0.000000000000000E+000        
  0.000000000000000E+000                                                        
   1.95110062940000       0.361663462550000       0.000000000000000E+000        
  0.000000000000000E+000                                                        
  0.669702112980000       0.000000000000000E+000  0.442029014910000             
  0.000000000000000E+000                                                        
  0.216513004100000       0.000000000000000E+000  0.000000000000000E+000        
  0.243198757300000                                                             
    2    2                                                                      
   3.10700000000000        1.00000000000000       0.000000000000000E+000        
  0.855000000000000       0.000000000000000E+000   1.00000000000000             
    1    1                                                                      
   1.91700000000000        1.00000000000000                                     
          9.00000000    1    4    1    1    1    1                              
F #4   1.131019688588849  -0.000065809210677   2.260896183152716                
   11    5                                                                      
   35479.1004410000       2.154501488800000E-004  0.000000000000000E+000        
  0.000000000000000E+000  0.000000000000000E+000  0.000000000000000E+000        
   5318.47289830000       1.670068652700000E-003  0.000000000000000E+000        
  0.000000000000000E+000  0.000000000000000E+000  0.000000000000000E+000        
   1210.48109750000       8.673321147599999E-003  0.000000000000000E+000        
  0.000000000000000E+000  0.000000000000000E+000  0.000000000000000E+000        
   342.855181400000       3.504993317500000E-002  0.000000000000000E+000        
  0.000000000000000E+000  0.000000000000000E+000  0.000000000000000E+000        
   112.019431810000       0.111653201330000       0.000000000000000E+000        
  0.000000000000000E+000  0.000000000000000E+000  0.000000000000000E+000        
   40.7147402480000       0.259885066470000       0.000000000000000E+000        
  0.000000000000000E+000  0.000000000000000E+000  0.000000000000000E+000        
   16.0396781110000       0.000000000000000E+000  0.394229668800000             
  0.000000000000000E+000  0.000000000000000E+000  0.000000000000000E+000        
   6.50381867400000       0.000000000000000E+000  0.249982385510000             
  0.000000000000000E+000  0.000000000000000E+000  0.000000000000000E+000        
   1.54404775090000       0.000000000000000E+000  0.000000000000000E+000        
   1.00000000000000       0.000000000000000E+000  0.000000000000000E+000        
  0.612234528620000       0.000000000000000E+000  0.000000000000000E+000        
  0.000000000000000E+000   1.00000000000000       0.000000000000000E+000        
  0.240279796980000       0.000000000000000E+000  0.000000000000000E+000        
  0.000000000000000E+000  0.000000000000000E+000   1.00000000000000             
    6    3                                                                      
   80.2339004830000       6.368599913400000E-003  0.000000000000000E+000        
  0.000000000000000E+000                                                        
   18.5940107430000       4.430314353000000E-002  0.000000000000000E+000        
  0.000000000000000E+000                                                        
   5.68679026530000       0.168672487080000       0.000000000000000E+000        
  0.000000000000000E+000                                                        
   1.95110062940000       0.361663462550000       0.000000000000000E+000        
  0.000000000000000E+000                                                        
  0.669702112980000       0.000000000000000E+000  0.442029014910000             
  0.000000000000000E+000                                                        
  0.216513004100000       0.000000000000000E+000  0.000000000000000E+000        
  0.243198757300000                                                             
    2    2                                                                      
   3.10700000000000        1.00000000000000       0.000000000000000E+000        
  0.855000000000000       0.000000000000000E+000   1.00000000000000             
    1    1                                                                      
   1.91700000000000        1.00000000000000                                     
FINISH                                                                          
 
********************************************************************************
 One- and two-electron integrals over symmetry-adapted AOs are calculated.

  Spherical harmonics are used.
  
   4 types of atoms
   1 symmetry operations

   Reflection in the XY-plane
  
  Integrals less than  0.10E-13 are neglected.

  Atomic type number  1 :
  -----------------------

    Nuclear charge:                       16
    number of symmetry independent atoms:  1
    highest orbital type:                  f

      1 groups of CGTOs of s type
      1 groups of CGTOs of p type
      1 groups of CGTOs of d type
      1 groups of CGTOs of f type

    nuclear coordinates (in a.u.) are :

    S #1       -0.716294430603740        0.000036956272141        0.000000000000000
  
   Basis function not normalized: 
   Center (as ordered in MOL file):   1
   Angular Momentum type          : s
   Offset within angular momentum :  1
   <chi|chi>                      :    0.9576592130
   Basis function not normalized: 
   Center (as ordered in MOL file):   1
   Angular Momentum type          : s
   Offset within angular momentum :  2
   <chi|chi>                      :    4.6356950771
   Basis function not normalized: 
   Center (as ordered in MOL file):   1
   Angular Momentum type          : s
   Offset within angular momentum :  3
   <chi|chi>                      :    0.5256008359
   Basis function not normalized: 
   Center (as ordered in MOL file):   1
   Angular Momentum type          : p
   Offset within angular momentum :  1
   <chi|chi>                      :    1.4069125377
   Basis function not normalized: 
   Center (as ordered in MOL file):   1
   Angular Momentum type          : p
   Offset within angular momentum :  2
   <chi|chi>                      :    2.8667061401
  Atomic type number  2 :
  -----------------------

    Nuclear charge:                        9
    number of symmetry independent atoms:  1
    highest orbital type:                  f

      1 groups of CGTOs of s type
      1 groups of CGTOs of p type
      1 groups of CGTOs of d type
      1 groups of CGTOs of f type

    nuclear coordinates (in a.u.) are :

    F #2       -0.528263134917089        3.104837642659069        0.000000000000000
  
   Basis function not normalized: 
   Center (as ordered in MOL file):   2
   Angular Momentum type          : s
   Offset within angular momentum :  1
   <chi|chi>                      :    2.6077954182
   Basis function not normalized: 
   Center (as ordered in MOL file):   2
   Angular Momentum type          : s
   Offset within angular momentum :  2
   <chi|chi>                      :    1.6055721547
   Basis function not normalized: 
   Center (as ordered in MOL file):   2
   Angular Momentum type          : p
   Offset within angular momentum :  1
   <chi|chi>                      :    1.9347023376
   Basis function not normalized: 
   Center (as ordered in MOL file):   2
   Angular Momentum type          : p
   Offset within angular momentum :  2
   <chi|chi>                      :    2.2622949315
   Basis function not normalized: 
   Center (as ordered in MOL file):   2
   Angular Momentum type          : p
   Offset within angular momentum :  3
   <chi|chi>                      :    4.1118631160
  Atomic type number  3 :
  -----------------------

    Nuclear charge:                        9
    number of symmetry independent atoms:  1
    highest orbital type:                  f

      1 groups of CGTOs of s type
      1 groups of CGTOs of p type
      1 groups of CGTOs of d type
      1 groups of CGTOs of f type

    nuclear coordinates (in a.u.) are :

    F #3       -0.528337242357173       -3.104768217282679        0.000000000000000
  
   Basis function not normalized: 
   Center (as ordered in MOL file):   3
   Angular Momentum type          : s
   Offset within angular momentum :  1
   <chi|chi>                      :    2.6077954182
   Basis function not normalized: 
   Center (as ordered in MOL file):   3
   Angular Momentum type          : s
   Offset within angular momentum :  2
   <chi|chi>                      :    1.6055721547
   Basis function not normalized: 
   Center (as ordered in MOL file):   3
   Angular Momentum type          : p
   Offset within angular momentum :  1
   <chi|chi>                      :    1.9347023376
   Basis function not normalized: 
   Center (as ordered in MOL file):   3
   Angular Momentum type          : p
   Offset within angular momentum :  2
   <chi|chi>                      :    2.2622949315
   Basis function not normalized: 
   Center (as ordered in MOL file):   3
   Angular Momentum type          : p
   Offset within angular momentum :  3
   <chi|chi>                      :    4.1118631160
  Atomic type number  4 :
  -----------------------

    Nuclear charge:                        9
    number of symmetry independent atoms:  1
    highest orbital type:                  f

      1 groups of CGTOs of s type
      1 groups of CGTOs of p type
      1 groups of CGTOs of d type
      1 groups of CGTOs of f type

    nuclear coordinates (in a.u.) are :

    F #4        1.131019688588849       -0.000065809210677        2.260896183152716
  
   Basis function not normalized: 
   Center (as ordered in MOL file):   4
   Angular Momentum type          : s
   Offset within angular momentum :  1
   <chi|chi>                      :    2.6077954182
   Basis function not normalized: 
   Center (as ordered in MOL file):   4
   Angular Momentum type          : s
   Offset within angular momentum :  2
   <chi|chi>                      :    1.6055721547
   Basis function not normalized: 
   Center (as ordered in MOL file):   4
   Angular Momentum type          : p
   Offset within angular momentum :  1
   <chi|chi>                      :    1.9347023376
   Basis function not normalized: 
   Center (as ordered in MOL file):   4
   Angular Momentum type          : p
   Offset within angular momentum :  2
   <chi|chi>                      :    2.2622949315
   Basis function not normalized: 
   Center (as ordered in MOL file):   4
   Angular Momentum type          : p
   Offset within angular momentum :  3
   <chi|chi>                      :    4.1118631160
   Internuclear distances (A) :

     for atom S #1 (coordinates :  -0.71629   0.00004   0.00000)

     F #2   1     distance is  1.646
     F #3   1     distance is  1.646
     F #4   1     distance is  1.545

     for atom F #2 (coordinates :  -0.52826   3.10484   0.00000)

     F #3   1     distance is  3.286
     F #4   1     distance is  2.214

     for atom F #3 (coordinates :  -0.52834  -3.10477   0.00000)

     F #4   1     distance is  2.214

     for atom F #4 (coordinates :   1.13102  -0.00007   2.26090)

     F #4   2     distance is  2.393

   Group multiplication table :

         1   2
         2   1

   Gaussian basis information :

   atom                 exponent      coefficients

 S #1  1    S   
+                 1   60700.928104   0.0005470   0.0000000   0.0000000   0.0000000   0.0000000
                  2    9102.610685   0.0042297   0.0000000   0.0000000   0.0000000   0.0000000
                  3    2071.416601   0.0217478   0.0000000   0.0000000   0.0000000   0.0000000
                  4     586.024768   0.0851001   0.0000000   0.0000000   0.0000000   0.0000000
                  5     190.553950   0.2479913   0.0000000   0.0000000   0.0000000   0.0000000
                  6      67.630384   0.4670364   0.0000000   0.0000000   0.0000000   0.0000000
                  7      25.127307   0.3643459   0.0000000   0.0000000   0.0000000   0.0000000
                  8     112.574630   0.0000000   0.0216700   0.0000000   0.0000000   0.0000000
                  9      34.795554   0.0000000   0.0936023   0.0000000   0.0000000   0.0000000
                 10       6.511556   0.0000000  -0.2606800   0.0000000   0.0000000   0.0000000
                 11       3.239903   0.0000000   0.0000000   1.2842089   0.0000000   0.0000000
                 12       1.547716   0.0000000   0.0000000   0.6603642   0.0000000   0.0000000
                 13       0.405410   0.0000000   0.0000000   0.0000000   1.0000000   0.0000000
                 14       0.145507   0.0000000   0.0000000   0.0000000   0.0000000   1.0000000

 S #1  1    X   
+                15     564.367160   0.0024797   0.0000000   0.0000000   0.0000000   0.0000000
                 16     133.426244   0.0196779   0.0000000   0.0000000   0.0000000   0.0000000
                 17      42.468271   0.0899800   0.0000000   0.0000000   0.0000000   0.0000000
                 18      15.616528   0.2570588   0.0000000   0.0000000   0.0000000   0.0000000
                 19       6.109399   0.4351517   0.0000000   0.0000000   0.0000000   0.0000000
                 20       2.440416   0.0000000   0.3488324   0.0000000   0.0000000   0.0000000
                 21       0.838822   0.0000000   0.0000000   1.0000000   0.0000000   0.0000000
                 22       0.312887   0.0000000   0.0000000   0.0000000   1.0000000   0.0000000
                 23       0.107701   0.0000000   0.0000000   0.0000000   0.0000000   1.0000000

 S #1  1    Y   
+                24     564.367160   0.0024797   0.0000000   0.0000000   0.0000000   0.0000000
                 25     133.426244   0.0196779   0.0000000   0.0000000   0.0000000   0.0000000
                 26      42.468271   0.0899800   0.0000000   0.0000000   0.0000000   0.0000000
                 27      15.616528   0.2570588   0.0000000   0.0000000   0.0000000   0.0000000
                 28       6.109399   0.4351517   0.0000000   0.0000000   0.0000000   0.0000000
                 29       2.440416   0.0000000   0.3488324   0.0000000   0.0000000   0.0000000
                 30       0.838822   0.0000000   0.0000000   1.0000000   0.0000000   0.0000000
                 31       0.312887   0.0000000   0.0000000   0.0000000   1.0000000   0.0000000
                 32       0.107701   0.0000000   0.0000000   0.0000000   0.0000000   1.0000000

 S #1  1    Z   
+                33     564.367160   0.0024797   0.0000000   0.0000000   0.0000000   0.0000000
                 34     133.426244   0.0196779   0.0000000   0.0000000   0.0000000   0.0000000
                 35      42.468271   0.0899800   0.0000000   0.0000000   0.0000000   0.0000000
                 36      15.616528   0.2570588   0.0000000   0.0000000   0.0000000   0.0000000
                 37       6.109399   0.4351517   0.0000000   0.0000000   0.0000000   0.0000000
                 38       2.440416   0.0000000   0.3488324   0.0000000   0.0000000   0.0000000
                 39       0.838822   0.0000000   0.0000000   1.0000000   0.0000000   0.0000000
                 40       0.312887   0.0000000   0.0000000   0.0000000   1.0000000   0.0000000
                 41       0.107701   0.0000000   0.0000000   0.0000000   0.0000000   1.0000000

 S #1  1    XX  
+                42       0.273000   1.0000000   0.0000000   0.0000000
                 43       3.756000   0.0000000   1.0000000   0.0000000
                 44       0.812000   0.0000000   0.0000000   1.0000000

 S #1  1    XY  
+                45       0.273000   1.0000000   0.0000000   0.0000000
                 46       3.756000   0.0000000   1.0000000   0.0000000
                 47       0.812000   0.0000000   0.0000000   1.0000000

 S #1  1    XZ  
+                48       0.273000   1.0000000   0.0000000   0.0000000
                 49       3.756000   0.0000000   1.0000000   0.0000000
                 50       0.812000   0.0000000   0.0000000   1.0000000

 S #1  1    YY  
+                51       0.273000   1.0000000   0.0000000   0.0000000
                 52       3.756000   0.0000000   1.0000000   0.0000000
                 53       0.812000   0.0000000   0.0000000   1.0000000

 S #1  1    YZ  
+                54       0.273000   1.0000000   0.0000000   0.0000000
                 55       3.756000   0.0000000   1.0000000   0.0000000
                 56       0.812000   0.0000000   0.0000000   1.0000000

 S #1  1    ZZ  
+                57       0.273000   1.0000000   0.0000000   0.0000000
                 58       3.756000   0.0000000   1.0000000   0.0000000
                 59       0.812000   0.0000000   0.0000000   1.0000000

 S #1  1    F300
+                60       0.557000   1.0000000

 S #1  1    F210
+                61       0.557000   1.0000000

 S #1  1    F201
+                62       0.557000   1.0000000

 S #1  1    F120
+                63       0.557000   1.0000000

 S #1  1    F111
+                64       0.557000   1.0000000

 S #1  1    F102
+                65       0.557000   1.0000000

 S #1  1    F030
+                66       0.557000   1.0000000

 S #1  1    F021
+                67       0.557000   1.0000000

 S #1  1    F012
+                68       0.557000   1.0000000

 S #1  1    F003
+                69       0.557000   1.0000000

 F #2  1    S   
+                70   35479.100441   0.0002155   0.0000000   0.0000000   0.0000000   0.0000000
                 71    5318.472898   0.0016701   0.0000000   0.0000000   0.0000000   0.0000000
                 72    1210.481098   0.0086733   0.0000000   0.0000000   0.0000000   0.0000000
                 73     342.855181   0.0350499   0.0000000   0.0000000   0.0000000   0.0000000
                 74     112.019432   0.1116532   0.0000000   0.0000000   0.0000000   0.0000000
                 75      40.714740   0.2598851   0.0000000   0.0000000   0.0000000   0.0000000
                 76      16.039678   0.0000000   0.3942297   0.0000000   0.0000000   0.0000000
                 77       6.503819   0.0000000   0.2499824   0.0000000   0.0000000   0.0000000
                 78       1.544048   0.0000000   0.0000000   1.0000000   0.0000000   0.0000000
                 79       0.612235   0.0000000   0.0000000   0.0000000   1.0000000   0.0000000
                 80       0.240280   0.0000000   0.0000000   0.0000000   0.0000000   1.0000000

 F #2  1    X   
+                81      80.233900   0.0063686   0.0000000   0.0000000
                 82      18.594011   0.0443031   0.0000000   0.0000000
                 83       5.686790   0.1686725   0.0000000   0.0000000
                 84       1.951101   0.3616635   0.0000000   0.0000000
                 85       0.669702   0.0000000   0.4420290   0.0000000
                 86       0.216513   0.0000000   0.0000000   0.2431988

 F #2  1    Y   
+                87      80.233900   0.0063686   0.0000000   0.0000000
                 88      18.594011   0.0443031   0.0000000   0.0000000
                 89       5.686790   0.1686725   0.0000000   0.0000000
                 90       1.951101   0.3616635   0.0000000   0.0000000
                 91       0.669702   0.0000000   0.4420290   0.0000000
                 92       0.216513   0.0000000   0.0000000   0.2431988

 F #2  1    Z   
+                93      80.233900   0.0063686   0.0000000   0.0000000
                 94      18.594011   0.0443031   0.0000000   0.0000000
                 95       5.686790   0.1686725   0.0000000   0.0000000
                 96       1.951101   0.3616635   0.0000000   0.0000000
                 97       0.669702   0.0000000   0.4420290   0.0000000
                 98       0.216513   0.0000000   0.0000000   0.2431988

 F #2  1    XX  
+                99       3.107000   1.0000000   0.0000000
                100       0.855000   0.0000000   1.0000000

 F #2  1    XY  
+               101       3.107000   1.0000000   0.0000000
                102       0.855000   0.0000000   1.0000000

 F #2  1    XZ  
+               103       3.107000   1.0000000   0.0000000
                104       0.855000   0.0000000   1.0000000

 F #2  1    YY  
+               105       3.107000   1.0000000   0.0000000
                106       0.855000   0.0000000   1.0000000

 F #2  1    YZ  
+               107       3.107000   1.0000000   0.0000000
                108       0.855000   0.0000000   1.0000000

 F #2  1    ZZ  
+               109       3.107000   1.0000000   0.0000000
                110       0.855000   0.0000000   1.0000000

 F #2  1    F300
+               111       1.917000   1.0000000

 F #2  1    F210
+               112       1.917000   1.0000000

 F #2  1    F201
+               113       1.917000   1.0000000

 F #2  1    F120
+               114       1.917000   1.0000000

 F #2  1    F111
+               115       1.917000   1.0000000

 F #2  1    F102
+               116       1.917000   1.0000000

 F #2  1    F030
+               117       1.917000   1.0000000

 F #2  1    F021
+               118       1.917000   1.0000000

 F #2  1    F012
+               119       1.917000   1.0000000

 F #2  1    F003
+               120       1.917000   1.0000000

 F #3  1    S   
+               121   35479.100441   0.0002155   0.0000000   0.0000000   0.0000000   0.0000000
                122    5318.472898   0.0016701   0.0000000   0.0000000   0.0000000   0.0000000
                123    1210.481098   0.0086733   0.0000000   0.0000000   0.0000000   0.0000000
                124     342.855181   0.0350499   0.0000000   0.0000000   0.0000000   0.0000000
                125     112.019432   0.1116532   0.0000000   0.0000000   0.0000000   0.0000000
                126      40.714740   0.2598851   0.0000000   0.0000000   0.0000000   0.0000000
                127      16.039678   0.0000000   0.3942297   0.0000000   0.0000000   0.0000000
                128       6.503819   0.0000000   0.2499824   0.0000000   0.0000000   0.0000000
                129       1.544048   0.0000000   0.0000000   1.0000000   0.0000000   0.0000000
                130       0.612235   0.0000000   0.0000000   0.0000000   1.0000000   0.0000000
                131       0.240280   0.0000000   0.0000000   0.0000000   0.0000000   1.0000000

 F #3  1    X   
+               132      80.233900   0.0063686   0.0000000   0.0000000
                133      18.594011   0.0443031   0.0000000   0.0000000
                134       5.686790   0.1686725   0.0000000   0.0000000
                135       1.951101   0.3616635   0.0000000   0.0000000
                136       0.669702   0.0000000   0.4420290   0.0000000
                137       0.216513   0.0000000   0.0000000   0.2431988

 F #3  1    Y   
+               138      80.233900   0.0063686   0.0000000   0.0000000
                139      18.594011   0.0443031   0.0000000   0.0000000
                140       5.686790   0.1686725   0.0000000   0.0000000
                141       1.951101   0.3616635   0.0000000   0.0000000
                142       0.669702   0.0000000   0.4420290   0.0000000
                143       0.216513   0.0000000   0.0000000   0.2431988

 F #3  1    Z   
+               144      80.233900   0.0063686   0.0000000   0.0000000
                145      18.594011   0.0443031   0.0000000   0.0000000
                146       5.686790   0.1686725   0.0000000   0.0000000
                147       1.951101   0.3616635   0.0000000   0.0000000
                148       0.669702   0.0000000   0.4420290   0.0000000
                149       0.216513   0.0000000   0.0000000   0.2431988

 F #3  1    XX  
+               150       3.107000   1.0000000   0.0000000
                151       0.855000   0.0000000   1.0000000

 F #3  1    XY  
+               152       3.107000   1.0000000   0.0000000
                153       0.855000   0.0000000   1.0000000

 F #3  1    XZ  
+               154       3.107000   1.0000000   0.0000000
                155       0.855000   0.0000000   1.0000000

 F #3  1    YY  
+               156       3.107000   1.0000000   0.0000000
                157       0.855000   0.0000000   1.0000000

 F #3  1    YZ  
+               158       3.107000   1.0000000   0.0000000
                159       0.855000   0.0000000   1.0000000

 F #3  1    ZZ  
+               160       3.107000   1.0000000   0.0000000
                161       0.855000   0.0000000   1.0000000

 F #3  1    F300
+               162       1.917000   1.0000000

 F #3  1    F210
+               163       1.917000   1.0000000

 F #3  1    F201
+               164       1.917000   1.0000000

 F #3  1    F120
+               165       1.917000   1.0000000

 F #3  1    F111
+               166       1.917000   1.0000000

 F #3  1    F102
+               167       1.917000   1.0000000

 F #3  1    F030
+               168       1.917000   1.0000000

 F #3  1    F021
+               169       1.917000   1.0000000

 F #3  1    F012
+               170       1.917000   1.0000000

 F #3  1    F003
+               171       1.917000   1.0000000

 F #4  1    S   
+               172   35479.100441   0.0002155   0.0000000   0.0000000   0.0000000   0.0000000
                173    5318.472898   0.0016701   0.0000000   0.0000000   0.0000000   0.0000000
                174    1210.481098   0.0086733   0.0000000   0.0000000   0.0000000   0.0000000
                175     342.855181   0.0350499   0.0000000   0.0000000   0.0000000   0.0000000
                176     112.019432   0.1116532   0.0000000   0.0000000   0.0000000   0.0000000
                177      40.714740   0.2598851   0.0000000   0.0000000   0.0000000   0.0000000
                178      16.039678   0.0000000   0.3942297   0.0000000   0.0000000   0.0000000
                179       6.503819   0.0000000   0.2499824   0.0000000   0.0000000   0.0000000
                180       1.544048   0.0000000   0.0000000   1.0000000   0.0000000   0.0000000
                181       0.612235   0.0000000   0.0000000   0.0000000   1.0000000   0.0000000
                182       0.240280   0.0000000   0.0000000   0.0000000   0.0000000   1.0000000

 F #4  2    S   
+               183   35479.100441   0.0002155   0.0000000   0.0000000   0.0000000   0.0000000
                184    5318.472898   0.0016701   0.0000000   0.0000000   0.0000000   0.0000000
                185    1210.481098   0.0086733   0.0000000   0.0000000   0.0000000   0.0000000
                186     342.855181   0.0350499   0.0000000   0.0000000   0.0000000   0.0000000
                187     112.019432   0.1116532   0.0000000   0.0000000   0.0000000   0.0000000
                188      40.714740   0.2598851   0.0000000   0.0000000   0.0000000   0.0000000
                189      16.039678   0.0000000   0.3942297   0.0000000   0.0000000   0.0000000
                190       6.503819   0.0000000   0.2499824   0.0000000   0.0000000   0.0000000
                191       1.544048   0.0000000   0.0000000   1.0000000   0.0000000   0.0000000
                192       0.612235   0.0000000   0.0000000   0.0000000   1.0000000   0.0000000
                193       0.240280   0.0000000   0.0000000   0.0000000   0.0000000   1.0000000

 F #4  1    X   
+               194      80.233900   0.0063686   0.0000000   0.0000000
                195      18.594011   0.0443031   0.0000000   0.0000000
                196       5.686790   0.1686725   0.0000000   0.0000000
                197       1.951101   0.3616635   0.0000000   0.0000000
                198       0.669702   0.0000000   0.4420290   0.0000000
                199       0.216513   0.0000000   0.0000000   0.2431988

 F #4  2    X   
+               200      80.233900   0.0063686   0.0000000   0.0000000
                201      18.594011   0.0443031   0.0000000   0.0000000
                202       5.686790   0.1686725   0.0000000   0.0000000
                203       1.951101   0.3616635   0.0000000   0.0000000
                204       0.669702   0.0000000   0.4420290   0.0000000
                205       0.216513   0.0000000   0.0000000   0.2431988

 F #4  1    Y   
+               206      80.233900   0.0063686   0.0000000   0.0000000
                207      18.594011   0.0443031   0.0000000   0.0000000
                208       5.686790   0.1686725   0.0000000   0.0000000
                209       1.951101   0.3616635   0.0000000   0.0000000
                210       0.669702   0.0000000   0.4420290   0.0000000
                211       0.216513   0.0000000   0.0000000   0.2431988

 F #4  2    Y   
+               212      80.233900   0.0063686   0.0000000   0.0000000
                213      18.594011   0.0443031   0.0000000   0.0000000
                214       5.686790   0.1686725   0.0000000   0.0000000
                215       1.951101   0.3616635   0.0000000   0.0000000
                216       0.669702   0.0000000   0.4420290   0.0000000
                217       0.216513   0.0000000   0.0000000   0.2431988

 F #4  1    Z   
+               218      80.233900   0.0063686   0.0000000   0.0000000
                219      18.594011   0.0443031   0.0000000   0.0000000
                220       5.686790   0.1686725   0.0000000   0.0000000
                221       1.951101   0.3616635   0.0000000   0.0000000
                222       0.669702   0.0000000   0.4420290   0.0000000
                223       0.216513   0.0000000   0.0000000   0.2431988

 F #4  2    Z   
+               224      80.233900   0.0063686   0.0000000   0.0000000
                225      18.594011   0.0443031   0.0000000   0.0000000
                226       5.686790   0.1686725   0.0000000   0.0000000
                227       1.951101   0.3616635   0.0000000   0.0000000
                228       0.669702   0.0000000   0.4420290   0.0000000
                229       0.216513   0.0000000   0.0000000   0.2431988

 F #4  1    XX  
+               230       3.107000   1.0000000   0.0000000
                231       0.855000   0.0000000   1.0000000

 F #4  2    XX  
+               232       3.107000   1.0000000   0.0000000
                233       0.855000   0.0000000   1.0000000

 F #4  1    XY  
+               234       3.107000   1.0000000   0.0000000
                235       0.855000   0.0000000   1.0000000

 F #4  2    XY  
+               236       3.107000   1.0000000   0.0000000
                237       0.855000   0.0000000   1.0000000

 F #4  1    XZ  
+               238       3.107000   1.0000000   0.0000000
                239       0.855000   0.0000000   1.0000000

 F #4  2    XZ  
+               240       3.107000   1.0000000   0.0000000
                241       0.855000   0.0000000   1.0000000

 F #4  1    YY  
+               242       3.107000   1.0000000   0.0000000
                243       0.855000   0.0000000   1.0000000

 F #4  2    YY  
+               244       3.107000   1.0000000   0.0000000
                245       0.855000   0.0000000   1.0000000

 F #4  1    YZ  
+               246       3.107000   1.0000000   0.0000000
                247       0.855000   0.0000000   1.0000000

 F #4  2    YZ  
+               248       3.107000   1.0000000   0.0000000
                249       0.855000   0.0000000   1.0000000

 F #4  1    ZZ  
+               250       3.107000   1.0000000   0.0000000
                251       0.855000   0.0000000   1.0000000

 F #4  2    ZZ  
+               252       3.107000   1.0000000   0.0000000
                253       0.855000   0.0000000   1.0000000

 F #4  1    F300
+               254       1.917000   1.0000000

 F #4  2    F300
+               255       1.917000   1.0000000

 F #4  1    F210
+               256       1.917000   1.0000000

 F #4  2    F210
+               257       1.917000   1.0000000

 F #4  1    F201
+               258       1.917000   1.0000000

 F #4  2    F201
+               259       1.917000   1.0000000

 F #4  1    F120
+               260       1.917000   1.0000000

 F #4  2    F120
+               261       1.917000   1.0000000

 F #4  1    F111
+               262       1.917000   1.0000000

 F #4  2    F111
+               263       1.917000   1.0000000

 F #4  1    F102
+               264       1.917000   1.0000000

 F #4  2    F102
+               265       1.917000   1.0000000

 F #4  1    F030
+               266       1.917000   1.0000000

 F #4  2    F030
+               267       1.917000   1.0000000

 F #4  1    F021
+               268       1.917000   1.0000000

 F #4  2    F021
+               269       1.917000   1.0000000

 F #4  1    F012
+               270       1.917000   1.0000000

 F #4  2    F012
+               271       1.917000   1.0000000

 F #4  1    F003
+               272       1.917000   1.0000000

 F #4  2    F003
+               273       1.917000   1.0000000
192166
  1  2  3  4  5  6  7  8  9 10 11 12 13 14 15 16 17 18 19 20 21 22 23 24***
****** 25 26 27*** 28*** 29 30 31 32 33 34 35 36 37 38 39 40 41 42 43 44 45
****** 46 47 48*** 49*** 50 51 52 53 54 55 56 57 58 59 60 61 62 63 64 65 66
****** 67 68 69*** 70*** 71 72 73 74 75 76 77 78 79 80 81 82 83 84 85 86 87
 88 89 90 91 92 93 94****** 95 96 97 98 99***100101******102103104105106107
108109110111112113114115***116117118119120121122123124125***126127128129130
131132133134135***136137138139140141142143144145146147148149150151152153154
155156157158159******160161162163164***165166******
1

             SYMMETRY TRANSFORMATION INFO
            166 SYMMETRY ADAPTED BASIS FUNCTIONS 


          irreducible representation number 1

    1    1  S #1     1s     1   1   1.0
    2    2  S #1     1s     1   2   1.0
    3    3  S #1     1s     1   3   1.0
    4    4  S #1     1s     1   4   1.0
    5    5  S #1     1s     1   5   1.0
    6    6  S #1     2px    1   6   1.0
    7    7  S #1     2px    1   7   1.0
    8    8  S #1     2px    1   8   1.0
    9    9  S #1     2px    1   9   1.0
   10   10  S #1     2px    1  10   1.0
   11   11  S #1     2py    1  11   1.0
   12   12  S #1     2py    1  12   1.0
   13   13  S #1     2py    1  13   1.0
   14   14  S #1     2py    1  14   1.0
   15   15  S #1     2py    1  15   1.0
   16   16  S #1     3d2-   3  21  -1.0  30  -1.0  36   2.0
   17   17  S #1     3d2-   3  22  -1.0  31  -1.0  37   2.0
   18   18  S #1     3d2-   3  23  -1.0  32  -1.0  38   2.0
   19   19  S #1     3d1-   1  24   1.0
   20   20  S #1     3d1-   1  25   1.0
   21   21  S #1     3d1-   1  26   1.0
   22   22  S #1     3d1+   2  21   1.0  30  -1.0
   23   23  S #1     3d1+   2  22   1.0  31  -1.0
   24   24  S #1     3d1+   2  23   1.0  32  -1.0
   25   25  S #1     4f3-   3  39  -1.0  42  -1.0  44   4.0
   26   26  S #1     4f2-   3  40  -1.0  45  -1.0  47   4.0
   27   27  S #1     4f0    2  39   1.0  42  -3.0
   28   28  S #1     4f2+   2  40   3.0  45  -1.0
   29   29  F #2     1s     1  49   1.0
   30   30  F #2     1s     1  50   1.0
   31   31  F #2     1s     1  51   1.0
   32   32  F #2     1s     1  52   1.0
   33   33  F #2     1s     1  53   1.0
   34   34  F #2     2px    1  54   1.0
   35   35  F #2     2px    1  55   1.0
   36   36  F #2     2px    1  56   1.0
   37   37  F #2     2py    1  57   1.0
   38   38  F #2     2py    1  58   1.0
   39   39  F #2     2py    1  59   1.0
   40   40  F #2     3d2-   3  63  -1.0  69  -1.0  73   2.0
   41   41  F #2     3d2-   3  64  -1.0  70  -1.0  74   2.0
   42   42  F #2     3d1-   1  65   1.0
   43   43  F #2     3d1-   1  66   1.0
   44   44  F #2     3d1+   2  63   1.0  69  -1.0
   45   45  F #2     3d1+   2  64   1.0  70  -1.0
   46   46  F #2     4f3-   3  75  -1.0  78  -1.0  80   4.0
   47   47  F #2     4f2-   3  76  -1.0  81  -1.0  83   4.0
   48   48  F #2     4f0    2  75   1.0  78  -3.0
   49   49  F #2     4f2+   2  76   3.0  81  -1.0
   50   50  F #3     1s     1  85   1.0
   51   51  F #3     1s     1  86   1.0
   52   52  F #3     1s     1  87   1.0
   53   53  F #3     1s     1  88   1.0
   54   54  F #3     1s     1  89   1.0
   55   55  F #3     2px    1  90   1.0
   56   56  F #3     2px    1  91   1.0
   57   57  F #3     2px    1  92   1.0
   58   58  F #3     2py    1  93   1.0
   59   59  F #3     2py    1  94   1.0
   60   60  F #3     2py    1  95   1.0
   61   61  F #3     3d2-   3  99  -1.0 105  -1.0 109   2.0
   62   62  F #3     3d2-   3 100  -1.0 106  -1.0 110   2.0
   63   63  F #3     3d1-   1 101   1.0
   64   64  F #3     3d1-   1 102   1.0
   65   65  F #3     3d1+   2  99   1.0 105  -1.0
   66   66  F #3     3d1+   2 100   1.0 106  -1.0
   67   67  F #3     4f3-   3 111  -1.0 114  -1.0 116   4.0
   68   68  F #3     4f2-   3 112  -1.0 117  -1.0 119   4.0
   69   69  F #3     4f0    2 111   1.0 114  -3.0
   70   70  F #3     4f2+   2 112   3.0 117  -1.0
   71   71  F #4     1s     2 121   1.0 122   1.0
   72   72  F #4     1s     2 123   1.0 124   1.0
   73   73  F #4     1s     2 125   1.0 126   1.0
   74   74  F #4     1s     2 127   1.0 128   1.0
   75   75  F #4     1s     2 129   1.0 130   1.0
   76   76  F #4     2px    2 131   1.0 132   1.0
   77   77  F #4     2px    2 133   1.0 134   1.0
   78   78  F #4     2px    2 135   1.0 136   1.0
   79   79  F #4     2py    2 137   1.0 138   1.0
   80   80  F #4     2py    2 139   1.0 140   1.0
   81   81  F #4     2py    2 141   1.0 142   1.0
   82   82  F #4     2pz    2 143   1.0 144  -1.0
   83   83  F #4     2pz    2 145   1.0 146  -1.0
   84   84  F #4     2pz    2 147   1.0 148  -1.0
   85   85  F #4     3d2-   6 149  -1.0 161  -1.0 169   2.0 150  -1.0 162  -1.0 170   2.0
   86   86  F #4     3d2-   6 151  -1.0 163  -1.0 171   2.0 152  -1.0 164  -1.0 172   2.0
   87   87  F #4     3d1-   2 153   1.0 154   1.0
   88   88  F #4     3d1-   2 155   1.0 156   1.0
   89   89  F #4     3d0    2 157   1.0 158  -1.0
   90   90  F #4     3d0    2 159   1.0 160  -1.0
   91   91  F #4     3d1+   4 149   1.0 161  -1.0 150   1.0 162  -1.0
   92   92  F #4     3d1+   4 151   1.0 163  -1.0 152   1.0 164  -1.0
   93   93  F #4     3d2+   2 165   1.0 166  -1.0
   94   94  F #4     3d2+   2 167   1.0 168  -1.0
   95   95  F #4     4f3-   6 173  -1.0 179  -1.0 183   4.0 174  -1.0 180  -1.0 184   4.0
   96   96  F #4     4f2-   6 175  -1.0 185  -1.0 189   4.0 176  -1.0 186  -1.0 190   4.0
   97   97  F #4     4f1-   6 177  -3.0 187  -3.0 191   2.0 178   3.0 188   3.0 192  -2.0
   98   98  F #4     4f0    4 173   1.0 179  -3.0 174   1.0 180  -3.0
   99   99  F #4     4f1+   2 181   1.0 182  -1.0
  100  100  F #4     4f2+   4 175   3.0 185  -1.0 176   3.0 186  -1.0
  101  101  F #4     4f3+   4 177   1.0 187  -1.0 178  -1.0 188   1.0


          irreducible representation number 2

  102    1  S #1     2pz    1  16   1.0
  103    2  S #1     2pz    1  17   1.0
  104    3  S #1     2pz    1  18   1.0
  105    4  S #1     2pz    1  19   1.0
  106    5  S #1     2pz    1  20   1.0
  107    6  S #1     3d0    1  27   1.0
  108    7  S #1     3d0    1  28   1.0
  109    8  S #1     3d0    1  29   1.0
  110    9  S #1     3d2+   1  33   1.0
  111   10  S #1     3d2+   1  34   1.0
  112   11  S #1     3d2+   1  35   1.0
  113   12  S #1     4f1-   3  41  -3.0  46  -3.0  48   2.0
  114   13  S #1     4f1+   1  43   1.0
  115   14  S #1     4f3+   2  41   1.0  46  -1.0
  116   15  F #2     2pz    1  60   1.0
  117   16  F #2     2pz    1  61   1.0
  118   17  F #2     2pz    1  62   1.0
  119   18  F #2     3d0    1  67   1.0
  120   19  F #2     3d0    1  68   1.0
  121   20  F #2     3d2+   1  71   1.0
  122   21  F #2     3d2+   1  72   1.0
  123   22  F #2     4f1-   3  77  -3.0  82  -3.0  84   2.0
  124   23  F #2     4f1+   1  79   1.0
  125   24  F #2     4f3+   2  77   1.0  82  -1.0
  126   25  F #3     2pz    1  96   1.0
  127   26  F #3     2pz    1  97   1.0
  128   27  F #3     2pz    1  98   1.0
  129   28  F #3     3d0    1 103   1.0
  130   29  F #3     3d0    1 104   1.0
  131   30  F #3     3d2+   1 107   1.0
  132   31  F #3     3d2+   1 108   1.0
  133   32  F #3     4f1-   3 113  -3.0 118  -3.0 120   2.0
  134   33  F #3     4f1+   1 115   1.0
  135   34  F #3     4f3+   2 113   1.0 118  -1.0
[...]
  W(mnij) AB contribution =  0.1590708785 a.u.
  W(abef) AB contribution =  0.1836555959 a.u.
  W(mbej) AB contribution = -0.4311160081 a.u.
   After  15 iterations, amplitude changes are:
    -------------------------------------------------------------------
                 Spin      RMS          Max.      Max. change for
     Amplitude   Case     Change       Change       i    j    a    b
    -------------------------------------------------------------------
        T1        AA    0.0000000001-0.0000001008   16       101
        T2        AA    0.0000000000 0.0000000067   13   11  101   18
        T2        AB    0.0000000000 0.0000000200   16   16  101  101
    -------------------------------------------------------------------
   The AA contribution to the correlation energy is:   -0.1427922 a.u.
   The AB contribution to the correlation energy is:   -0.9205065 a.u.
   The total correlation energy is -1.206090824638 a.u.
   The total correlation energy is -1.206090824638 a.u.
  Current DIIS expansion coefficients : 
 [   1] 0.0066199817 [   2] 0.0067261510 [   3]-0.1888137433 [   4] 0.1468706857
 [   5] 1.0285969249
  Convergence information after    15 iterations: 
  Largest element of residual vector : -0.10076829E-06.
  Largest element of DIIS residual   :  0.42104969E-07.
   Largest T1 amplitudes for spin case AA:
   i       a                 i       a                 i       a    
-----------------------------------------------------------------------------
[ 16     101    ]-0.02923 [ 15     101    ]-0.02720 [ 13     101    ] 0.02598
[  5      19    ]-0.02025 [ 14     103    ]-0.01703 [  6      23    ] 0.01673
[  8      24    ]-0.01662 [  9      18    ]-0.01639 [ 10      19    ] 0.01632
[  4      18    ] 0.01550 [  5      21    ]-0.01544 [ 11      18    ] 0.01434
[  6      18    ]-0.01344 [  6      20    ]-0.00999 [ 14     105    ]-0.00968
-----------------------------------------------------------------------------
   Norm of T1AA vector (     1255 symmetry allowed elements):  0.0839987150.
-----------------------------------------------------------------------------
   Largest T2 amplitudes for spin case AB:
       _       _                 _       _                 _       _
   i   j   a   b             i   j   a   b             i   j   a   b
-----------------------------------------------------------------------------
[ 11  11 101 101]-0.05970 [ 11  11  19  19]-0.03771 [ 11   4 101 101]-0.02249
[  4  11 101 101]-0.02249 [ 11  11 102 101]-0.02244 [ 11  11 101 102]-0.02244
[ 11   6 101 101]-0.02227 [  6  11 101 101]-0.02227 [ 11  11  21  19]-0.02134
[ 11  11  19  21]-0.02134 [ 11   7 101 101]-0.01986 [  7  11 101 101]-0.01986
[ 11  11  24  19]-0.01949 [ 11  11  19  24]-0.01949 [ 11  11  23  23]-0.01942
-----------------------------------------------------------------------------
   Norm of T2AB vector (  2840650 symmetry allowed elements):  0.4492696415.
-----------------------------------------------------------------------------
  W(mnij) AB contribution =  0.1590708653 a.u.
  W(abef) AB contribution =  0.1836555858 a.u.
  W(mbej) AB contribution = -0.4311159643 a.u.
   After  16 iterations, amplitude changes are:
    -------------------------------------------------------------------
                 Spin      RMS          Max.      Max. change for
     Amplitude   Case     Change       Change       i    j    a    b
    -------------------------------------------------------------------
        T1        AA    0.0000000000 0.0000000287   11        18
        T2        AA    0.0000000000-0.0000000024   11   10   19   18
        T2        AB    0.0000000000 0.0000000143   11   11  101  101
    -------------------------------------------------------------------
   The AA contribution to the correlation energy is:   -0.1427922 a.u.
   The AB contribution to the correlation energy is:   -0.9205065 a.u.
   The total correlation energy is -1.206090824475 a.u.
   The total correlation energy is -1.206090824475 a.u.
  Current DIIS expansion coefficients : 
 [   1] 1.2260971741 [   2] 0.0104218690 [   3] 0.0045259851 [   4]-0.0430437211
 [   5]-0.1980013072
  Convergence information after    16 iterations: 
  Largest element of residual vector :  0.28746194E-07.
  Largest element of DIIS residual   :  0.19405279E-07.
  W(mnij) AB contribution =  0.1590708581 a.u.
  W(abef) AB contribution =  0.1836555793 a.u.
  W(mbej) AB contribution = -0.4311159409 a.u.
   After  17 iterations, amplitude changes are:
    -------------------------------------------------------------------
                 Spin      RMS          Max.      Max. change for
     Amplitude   Case     Change       Change       i    j    a    b
    -------------------------------------------------------------------
        T1        AA    0.0000000000 0.0000000145   15       101
        T2        AA    0.0000000000-0.0000000008   15   11  101   18
        T2        AB    0.0000000000 0.0000000059   11   11  101  101
    -------------------------------------------------------------------
   The AA contribution to the correlation energy is:   -0.1427922 a.u.
   The AB contribution to the correlation energy is:   -0.9205065 a.u.
   The total correlation energy is -1.206090823732 a.u.
   The total correlation energy is -1.206090823732 a.u.
  Current DIIS expansion coefficients : 
 [   1] 0.1948387223 [   2] 0.9946026558 [   3] 0.0130942570 [   4]-0.0033011018
 [   5]-0.1992345333
  Convergence information after    17 iterations: 
  Largest element of residual vector :  0.14521361E-07.
  Largest element of DIIS residual   :  0.87524403E-08.
  W(mnij) AB contribution =  0.1590708568 a.u.
  W(abef) AB contribution =  0.1836555781 a.u.
  W(mbej) AB contribution = -0.4311159365 a.u.
   After  18 iterations, amplitude changes are:
    -------------------------------------------------------------------
                 Spin      RMS          Max.      Max. change for
     Amplitude   Case     Change       Change       i    j    a    b
    -------------------------------------------------------------------
        T1        AA    0.0000000000 0.0000000051   15       101
        T2        AA    0.0000000000 0.0000000006   15   11  101   23
        T2        AB    0.0000000000 0.0000000024   11   11  101  101
    -------------------------------------------------------------------
   The AA contribution to the correlation energy is:   -0.1427922 a.u.
   The AB contribution to the correlation energy is:   -0.9205065 a.u.
   The total correlation energy is -1.206090823843 a.u.
   The total correlation energy is -1.206090823843 a.u.
  Current DIIS expansion coefficients : 
 [   1]-0.0585860183 [   2]-0.3388725121 [   3] 1.3742643037 [   4] 0.0078003592
 [   5] 0.0153938676
  Convergence information after    18 iterations: 
  Largest element of residual vector :  0.50760228E-08.
  Largest element of DIIS residual   :  0.34211142E-08.
  W(mnij) AB contribution =  0.1590708574 a.u.
  W(abef) AB contribution =  0.1836555785 a.u.
  W(mbej) AB contribution = -0.4311159377 a.u.
   After  19 iterations, amplitude changes are:
    -------------------------------------------------------------------
                 Spin      RMS          Max.      Max. change for
     Amplitude   Case     Change       Change       i    j    a    b
    -------------------------------------------------------------------
        T1        AA    0.0000000000 0.0000000031   15       101
        T2        AA    0.0000000000 0.0000000002   15   11  101   23
        T2        AB    0.0000000000-0.0000000004    6    6  101  101
    -------------------------------------------------------------------
   The AA contribution to the correlation energy is:   -0.1427922 a.u.
   The AB contribution to the correlation energy is:   -0.9205065 a.u.
   The total correlation energy is -1.206090823574 a.u.
   The total correlation energy is -1.206090823574 a.u.
  Current DIIS expansion coefficients : 
 [   1] 0.0432034281 [   2]-0.1775998436 [   3]-0.0593708973 [   4] 1.1933712542
 [   5] 0.0003960586
  Convergence information after    19 iterations: 
  Largest element of residual vector :  0.31369798E-08.
  Largest element of DIIS residual   :  0.10116275E-08.
  W(mnij) AB contribution =  0.1590708575 a.u.
  W(abef) AB contribution =  0.1836555786 a.u.
  W(mbej) AB contribution = -0.4311159384 a.u.
   After  20 iterations, amplitude changes are:
    -------------------------------------------------------------------
                 Spin      RMS          Max.      Max. change for
     Amplitude   Case     Change       Change       i    j    a    b
    -------------------------------------------------------------------
        T1        AA    0.0000000000 0.0000000012   15       101
        T2        AA    0.0000000000 0.0000000001   15   11  101   23
        T2        AB    0.0000000000-0.0000000002   11   11  101  101
    -------------------------------------------------------------------
   The AA contribution to the correlation energy is:   -0.1427922 a.u.
   The AB contribution to the correlation energy is:   -0.9205065 a.u.
   The total correlation energy is -1.206090823790 a.u.
   The total correlation energy is -1.206090823790 a.u.
  Current DIIS expansion coefficients : 
 [   1] 0.0192401715 [   2]-0.0318294465 [   3]-0.1028256767 [   4]-0.0289990912
 [   5] 1.1444140428
  Convergence information after    20 iterations: 
  Largest element of residual vector :  0.12478383E-08.
  Largest element of DIIS residual   :  0.51927346E-09.
   Largest T1 amplitudes for spin case AA:
   i       a                 i       a                 i       a    
-----------------------------------------------------------------------------
[ 16     101    ]-0.02923 [ 15     101    ]-0.02720 [ 13     101    ] 0.02598
[  5      19    ]-0.02025 [ 14     103    ]-0.01703 [  6      23    ] 0.01673
[  8      24    ]-0.01662 [  9      18    ]-0.01639 [ 10      19    ] 0.01632
[  4      18    ] 0.01550 [  5      21    ]-0.01544 [ 11      18    ] 0.01435
[  6      18    ]-0.01344 [  6      20    ]-0.00999 [ 14     105    ]-0.00968
-----------------------------------------------------------------------------
   Norm of T1AA vector (     1255 symmetry allowed elements):  0.0839987310.
-----------------------------------------------------------------------------
   Largest T2 amplitudes for spin case AB:
       _       _                 _       _                 _       _
   i   j   a   b             i   j   a   b             i   j   a   b
-----------------------------------------------------------------------------
[ 11  11 101 101]-0.05970 [ 11  11  19  19]-0.03771 [ 11   4 101 101]-0.02249
[  4  11 101 101]-0.02249 [ 11  11 102 101]-0.02244 [ 11  11 101 102]-0.02244
[ 11   6 101 101]-0.02227 [  6  11 101 101]-0.02227 [ 11  11  21  19]-0.02134
[ 11  11  19  21]-0.02134 [ 11   7 101 101]-0.01986 [  7  11 101 101]-0.01986
[ 11  11  24  19]-0.01949 [ 11  11  19  24]-0.01949 [ 11  11  23  23]-0.01942
-----------------------------------------------------------------------------
   Norm of T2AB vector (  2840650 symmetry allowed elements):  0.4492696276.
-----------------------------------------------------------------------------
  W(mnij) AB contribution =  0.1590708577 a.u.
  W(abef) AB contribution =  0.1836555788 a.u.
  W(mbej) AB contribution = -0.4311159389 a.u.
   After  21 iterations, amplitude changes are:
    -------------------------------------------------------------------
                 Spin      RMS          Max.      Max. change for
     Amplitude   Case     Change       Change       i    j    a    b
    -------------------------------------------------------------------
        T1        AA    0.0000000000 0.0000000003   15       101
        T2        AA    0.0000000000-0.0000000000   17   11  101   19
        T2        AB    0.0000000000-0.0000000002   11   11  101  101
    -------------------------------------------------------------------
   The AA contribution to the correlation energy is:   -0.1427922 a.u.
   The AB contribution to the correlation energy is:   -0.9205065 a.u.
   The total correlation energy is -1.206090823727 a.u.
   The total correlation energy is -1.206090823727 a.u.
  Current DIIS expansion coefficients : 
 [   1] 1.1702384367 [   2]-0.0059567448 [   3] 0.0688539215 [   4]-0.1496651705
 [   5]-0.0834704429
  Convergence information after    21 iterations: 
  Largest element of residual vector :  0.30964301E-09.
  Largest element of DIIS residual   :  0.20336688E-09.
  Amplitude equations converged in    21iterations.
   The AA contribution to the correlation energy is:   -0.1427922 a.u.
   The AB contribution to the correlation energy is:   -0.9205065 a.u.
   The total correlation energy is -1.206090823753 a.u.
   The total correlation energy is -1.206090823753 a.u.
   The CC iterations have converged.

   Largest T1 amplitudes for spin case AA:
   i       a                 i       a                 i       a    
-----------------------------------------------------------------------------
[ 16     101    ]-0.02923 [ 15     101    ]-0.02720 [ 13     101    ] 0.02598
[  5      19    ]-0.02025 [ 14     103    ]-0.01703 [  6      23    ] 0.01673
[  8      24    ]-0.01662 [  9      18    ]-0.01639 [ 10      19    ] 0.01632
[  4      18    ] 0.01550 [  5      21    ]-0.01544 [ 11      18    ] 0.01435
[  6      18    ]-0.01344 [  6      20    ]-0.00999 [ 14     105    ]-0.00968
-----------------------------------------------------------------------------
   Norm of T1AA vector (     1255 symmetry allowed elements):  0.0839987312.
-----------------------------------------------------------------------------
   Largest T2 amplitudes for spin case AB:
       _       _                 _       _                 _       _
   i   j   a   b             i   j   a   b             i   j   a   b
-----------------------------------------------------------------------------
[ 11  11 101 101]-0.05970 [ 11  11  19  19]-0.03771 [ 11   4 101 101]-0.02249
[  4  11 101 101]-0.02249 [ 11  11 102 101]-0.02244 [ 11  11 101 102]-0.02244
[ 11   6 101 101]-0.02227 [  6  11 101 101]-0.02227 [ 11  11  21  19]-0.02134
[ 11  11  19  21]-0.02134 [ 11   7 101 101]-0.01986 [  7  11 101 101]-0.01986
[ 11  11  24  19]-0.01949 [ 11  11  19  24]-0.01949 [ 11  11  23  23]-0.01942
-----------------------------------------------------------------------------
   Norm of T2AB vector (  2840650 symmetry allowed elements):  0.4492696276.
-----------------------------------------------------------------------------
       Summary of iterative solution of CC equations 
      -----------------------------------------------------------
                       Correlation           Total
       Iteration         Energy              Energy
      -----------------------------------------------------------
            0        -1.204186092353    -796.596940825023  DIIS 
            1        -1.173933201691    -796.566687934360  DIIS 
            2        -1.206228010413    -796.598982743083  DIIS 
            3        -1.203041313450    -796.595796046120  DIIS 
            4        -1.205560147728    -796.598314880398  DIIS 
            5        -1.206041774538    -796.598796507208  DIIS 
            6        -1.206069926695    -796.598824659364  DIIS 
            7        -1.206083628586    -796.598838361256  DIIS 
            8        -1.206093287690    -796.598848020359  DIIS 
            9        -1.206086814666    -796.598841547336  DIIS 
           10        -1.206090309099    -796.598845041769  DIIS 
           11        -1.206090264425    -796.598844997094  DIIS 
           12        -1.206090678372    -796.598845411042  DIIS 
           13        -1.206090771360    -796.598845504030  DIIS 
           14        -1.206090808984    -796.598845541654  DIIS 
           15        -1.206090824638    -796.598845557307  DIIS 
           16        -1.206090824475    -796.598845557144  DIIS 
           17        -1.206090823732    -796.598845556402  DIIS 
           18        -1.206090823843    -796.598845556513  DIIS 
           19        -1.206090823574    -796.598845556244  DIIS 
           20        -1.206090823790    -796.598845556460  DIIS 
           21        -1.206090823753    -796.598845556423  DIIS 
      -----------------------------------------------------------
      A miracle has come to pass. The CC iterations have converged.
 @DIMT3-I, Dimensions of T3 amplitudes : 
               # abc          # ijk       Symmetry    Spin 
                   224349            330     1          1
                   223231            350     2          1
                   684584           1166     1          2
                   677616           1146     2          2
                   684584           1166     1          3
                   677616           1146     2          3
                   224349            330     1          4
                   223231            350     2          4
 @DIMT3-I, Dimensions of T3 amplitudes : 
               # abc          # ijk       Symmetry    Spin 
                   224349            330     1          1
                   223231            350     2          1
                   684584           1166     1          2
                   677616           1146     2          2
                   684584           1166     1          3
                   677616           1146     2          3
                   224349            330     1          4
                   223231            350     2          4
 @TRPS-I, Welcome to TRPS. Watch your RUs ! 
 @TRPS-I, Method is CCSD(T) 
 @TRPS-I, Calculation type is energy 
 @TRPS-I, Reference function information : 
          Reference function is Hartree-Fock 
          Reference function is RHF Hartree-Fock 
 @TRPS-I, INT1 is true 
 @TRPS-I, INT2 is false 
 @TRPS-I, Lengths of ijka integrals. #1     162100
                                     #2     162100
                                     #3     345535
                                     #4     345535
                                    Max     345535
 @INITRP-I, Initializing W intermediate lists. 
 @SETOOOV-I, Some OOOV lists are being transposed. 
 @TRPS-I, Available memory in integer words   1499959040
          Number of pre-allocated words for TRPS2       728042
          Number of free words for TRPS2   1499230998
 @TRPS2-I, Spin case AAB 
 @TRPS2-I, Number of free integer words 1499230998
           Number of free double  words 1499230998
           Ratio                                 1
 @TRPS2-I, E4TBAA      -0.020854885704
  @TRPS2-I, E4TAAA  -1.353550711009119E-003
 @TRPS2-I, E5ST A    0.000961648028407
 @TRPS2-I, E5ST B    0.000590655948082
 @SETOOOV-I, Some OOOV lists are being transposed. 
 @CCENRG-I, CCSD/QCISD energy will now be evaluated. 
 @CCENRG-I, Correlation energies. ECCAA       -0.142792156888
                                  ECCBB        0.000000000000
                                  ECCAB       -0.920506509976
                                  Total       -1.206090823753
 @CCENRG-I, Reference   energy    -795.392754732670
            CCSD/QCISD energy     -796.598845556423
          E4T (T(CCSD)) = -0.044416872830
          E5ST          =  0.003104607953
          E4ST          =  0.000000000000
          In other words  
          <T3[2](Dagger) D3  T3[2]> = -0.044416872830
          <T1   (Dagger) Q1 WT3[2]> =  0.003104607953
          <T2   (Dagger) Q2 FT3[2]> =  0.000000000000
        E(CCSD)           =    -796.598845556423
        E(CCSD + T(CCSD)) =    -796.643262429252
        E(CCSD(T))        =    -796.640157821299
  @CHECKOUT-I, Total execution time (CPU/WALL):      335.92/     337.23 seconds.
--executable xvcc finished with status     0 in      337.34 seconds (walltime).
  The final electronic energy is      -796.640157821299113 a.u. 
  This computation required                          451.75 seconds (walltime).
