 **********************************************************************
                          MRCC program system
 **********************************************************************
 
                              Written by
  Mihaly Kallay, Zoltan Rolik, Jozsef Csontos, Peter Nagy, Gyula Samu,
      David Mester, Jozsef Csoka, Bernat Szabo, Istvan Ladjanszki,
       Lorant Szegedy, Bence Ladoczki, Klara Petrov, Mate Farkas,
                    Pal D. Mezei, and Bence Hegely
 
        Department of Physical Chemistry and Materials Science
            Budapest University of Technology and Economics
                  Budapest P.O.Box 91, H-1521 Hungary
 
                              www.mrcc.hu
 
                       Release date: Feb 4, 2018

 ************************ 2021-07-18 10:02:01 *************************
 Executing minp...

 Reading input from MINP...
 
 Input file:
 
#
#TITLE
basis=def2-TZVPP
uncontract=off
iface=cfour
calc=CC(4)
mem=392GB
core=4
#core=frozen
itol=18
scftol=13
cctol=5
ccmaxit=999
scfmaxit=9999
scftype=ROHF
rohftype=semicanonical
scfiguess=ao
rest=2
charge=+1
mult=2
#symm=1
#occ=3,0,0,0,0,1,2,2/3,0,0,0,0,1,1,1

#refdet=serialno
#1
#2,3

unit=angs
geom=xyz
4

C  1.2247  0.0000 0.0000
C -1.2247  0.0000 0.0000
C  0.0000 -0.7286 0.0000
C  0.0000  0.7286 0.0000



#Li 1 R

#R=3.065


tprint=0.01
verbosity=3
#nstate=4


 
 
 Checking keyword combinations...
 
 Keywords:
 
 active=none
 agrid=ld0006-ld0590
 basis=def2-tzvpp
 basis_sm=none
 basopt=off
 bfbasis=none
 bpcompo=0.985
 bpcompv=0.98
 bpdfo=0.985
 bpocc=0.985
 bppdo=0.985
 bppdv=0.98
 bpedo=0.985
 bpedv=0.98
 calc=cc(4)
 ccmaxit=999
 ccprog=mrcc
 cctol=5
 charge=+1
 cialg=disk
 ciguess=off
 cmpgrp=auto
 core=4
 corembed=off
 dboc=off
 dendec=cholesky
 dens=0
 dfalg=invsqrt
 dfbasis_cor=none
 dfbasis_scf=none
 dfintran=ovirt
 dft=off
 diag=david
 domrad=10.d0
 drpaalg=fit
 dual=off
 ecp=auto
 edisp=off
 embed=off
 epert=none
 eps=0.975
 excrad=0.d0
 excrad_fin=0.000000000D+00
 freq=off
 gauss=spher
 geom=xyz
 gopt=off
 ghost=none
 gtol=7
 grdens=off
 grtol=10
 hamilton=dc
 iface=cfour
 intalg=auto
 itol=18
 laptol=1.d-2
 lcorthr=loose
 lccrest=off
 lmp2dens=on
 lnoepso=3e-5
 lnoepsv=1e-6
 localcc=off
 locintrf=disk
 maxact=off
 maxex=0
 mem=392gb
 molden=on
 mulmet=0
 mult=2
 nacto=0
 nactv=0
 naf_cor=off
 naf_scf=off
 nafalg=albe
 naftyp=
 nchol=auto
 ndeps=1e-3
 nstate=1
 nsing=0
 ntrip=0
 occ=
 optalg=
 optmaxit=50
 optetol=1e-6
 optgtol=1e-4
 optstol=1e-3
 orblocc=off
 orbloco=off
 orblocv=off
 osveps=1e-3
 ovirt=off
 ovosnorb=80.0
 ptfreq=0.0
 popul=off
 pressure=100000
 qscf=off
 qmmm=off
 redcost_exc=off
 refdet=none
 rest=2
 rgrid=log3
 rohftype=semicanonical
 scfalg=auto
 scfdamp=off
 scfdiis=on
 scfdiis_end=9999
 scfdiis_start=1
 scfdiis_step=1
 scfdtol=14
 scfext=10
 scfiguess=ao
 scflshift=off
 scfmaxit=9999
 scftype=rohf
 scftol=13
 scspe=1.d0
 scsps=1.2d0
 scspt=0.33333333333333
 scspv=1.d0
 spairtol=1e-4
 symm=
 talg=occ
 temp=298.15
 test=off
 tprint=0.01
 uncontract=off
 unit=angs
 verbosity=3
 wpairtol=0.100000000E-05

 ************************ 2021-07-18 10:02:05 *************************
 Executing goldstone...

 Generation of CC equations in terms of H and T...
 Generation of antisymmetrized Goldstone diagrams...
 Number of diagrams in T^1 equations:    15
 Number of diagrams in T^2 equations:    38
 Number of diagrams in T^3 equations:    53
 Number of diagrams in T^4 equations:    74
 Translation of diagrams to factorized equations...
 Optimizing intermediate calculation...
 Number of floating-point operations per iteration step:   4.2628E+14
 Probable CPU time per iteration step (hours):   4262.84
 Required memory (Mbytes):  152584.8
 Number of intermediates:                                 105
 Number of intermediates to be stored:                     44
 Length of intermediate file (Mbytes):    8872.5

 ************************ 2021-07-18 10:02:29 *************************
 Executing xmrcc...

 **********************************************************************
 CC(                     4 ) calculation 
 
 
 Allocation of****** Mbytes of memory...
 Number of spinorbitals:                   240
 Number of alpha electrons:                        8
 Number of beta electrons:                         7
 Spin multiplicity:                     2
 z-component of spin:  0.5
 Spatial symmetry:                      1
 Convergence criterion:  1.0E-05
 Construction of occupation graphs...
 Number of                     0 -fold excitations:                      1
 Number of                     1 -fold excitations:                    279
 Number of                     2 -fold excitations:                 133587
 Number of                     3 -fold excitations:               35011431
 Number of                     4 -fold excitations:             5160115379
 Total number of configurations:             5195260677
 Calculation of coupling coefficients...
 Length of intermediate file (Mbytes):    5598.1
 
 ======================================================================
 
 Memory requirements /Mbyte/: 
               Minimal        Optimal
 Real*8:     154801.8484    154801.8484
 Integer:    233688.9616
 Total:      388490.8100    388490.8100
 

 ************************ 2021-07-18 10:10:27 *************************
 Executing goldstone...

 Generation of CC equations in terms of H and T...
 Generation of antisymmetrized Goldstone diagrams...
 Number of diagrams in T^1 equations:    15
 Number of diagrams in T^2 equations:    34
 Number of diagrams in T^3 equations:     2
 Translation of diagrams to factorized equations...
 Optimizing intermediate calculation...
 Number of floating-point operations per iteration step:   3.2542E+10
 Probable CPU time per iteration step (hours):      0.33
 Required memory (Mbytes):  152584.8
 Number of intermediates:                                  49
 Number of intermediates to be stored:                     20
 Length of intermediate file (Mbytes):     396.6

 ************************ 2021-07-18 10:10:28 *************************
 Executing xmrcc...

 **********************************************************************
 CC(2)(3) calculation 
 
 
 Allocation of****** Mbytes of memory...
 Number of spinorbitals:                   240
 Number of alpha electrons:                        8
 Number of beta electrons:                         7
 Spin multiplicity:                     2
 z-component of spin:  0.5
 Spatial symmetry:                      1
 Convergence criterion:  1.0E-05
 Construction of occupation graphs...
 Number of                     0 -fold excitations:                      1
 Number of                     1 -fold excitations:                    279
 Number of                     2 -fold excitations:                 133587
 Total number of configurations:                 133867
 Calculation of coupling coefficients...
 Length of intermediate file (Mbytes):     302.5
 
 ======================================================================
 
 Spin case  1   Alpha:  0   Beta:  3
 Number of excitations:                1027561
 Spin case  2   Alpha:  1   Beta:  2
 Number of excitations:               15010082
 Spin case  3   Alpha:  2   Beta:  1
 Number of excitations:               17370070
 Spin case  4   Alpha:  3   Beta:  0
 Number of excitations:                1603718
 Number of                     3 -fold excitations:               35011431
 
 Memory requirements /Mbyte/: 
               Minimal        Optimal
 Real*8:        221.3658      1638.1527
 Integer:    228883.9391
 Total:      229105.3048    230522.0918
 

 ************************ 2021-07-18 10:10:28 *************************
 Executing mrcc...

 **********************************************************************
 CCSD(T) calculation                                                    
 
 
 OpenMP parallel version is running.
 Number of CPUs:   6
 Allocation of 1638.2 Mbytes of memory...
 Number of spinorbitals: 240
 Number of alpha electrons:  8
 Number of beta  electrons:  7
 Spin multiplicity: 2
 z-component of spin:  0.5
 Spatial symmetry: 1
 Convergence criterion:  1.0E-05
 Construction of occupation graphs...
 Number of 0-fold excitations: 1
 Number of 1-fold excitations: 279
 Number of 2-fold excitations: 133587
 Total number of determinants: 133867
 Calculation of coupling coefficients...
 Initial cluster amplitudes are generated.
 Length of intermediate file (Mbytes):     302.5
 Reading integral list from unit 55...
 Sorting integrals...
 Sorting integrals...
 Sorting integrals...
 Sorting integrals...
 Energy of reference determinant [au]:    -150.807096035593
 Calculation of MP denominators...
 
 Starting CC iteration...
 ======================================================================
 Norm of residual vector:     1.32910388
 CPU time [min]:     4.866                   Wall time [min]:     4.311
 
 Iteration  1  CC energy:  -151.32750011  Energy decrease:   0.52040407
 ======================================================================
 Norm of residual vector:     0.25477505
 CPU time [min]:     5.629                   Wall time [min]:     4.577
 
 Iteration  2  CC energy:  -151.31382289  Energy decrease:   0.01367722
 ======================================================================
 Norm of residual vector:     0.08098523
 CPU time [min]:     6.384                   Wall time [min]:     4.843
 
 Iteration  3  CC energy:  -151.33688889  Energy decrease:   0.02306600
 ======================================================================
 Norm of residual vector:     0.02844529
 CPU time [min]:     7.137                   Wall time [min]:     5.108
 
 Iteration  4  CC energy:  -151.34047939  Energy decrease:   0.00359050
 ======================================================================
 Norm of residual vector:     0.01539012
 CPU time [min]:     7.921                   Wall time [min]:     5.375
 
 Iteration  5  CC energy:  -151.34056707  Energy decrease:   0.00008768
 ======================================================================
 Norm of residual vector:     0.00772488
 CPU time [min]:     8.704                   Wall time [min]:     5.642
 
 Iteration  6  CC energy:  -151.34104942  Energy decrease:   0.00048235
 ======================================================================
 Norm of residual vector:     0.00488534
 CPU time [min]:     9.469                   Wall time [min]:     5.909
 
 Iteration  7  CC energy:  -151.34099842  Energy decrease:   0.00005100
 ======================================================================
 Norm of residual vector:     0.00191499
 CPU time [min]:    10.242                   Wall time [min]:     6.176
 
 Iteration  8  CC energy:  -151.34104564  Energy decrease:   0.00004722
 ======================================================================
 Norm of residual vector:     0.00078206
 CPU time [min]:    11.017                   Wall time [min]:     6.444
 
 Iteration  9  CC energy:  -151.34105056  Energy decrease:   0.00000492
 ======================================================================
 Norm of residual vector:     0.00029279
 CPU time [min]:    11.782                   Wall time [min]:     6.712
 
 Iteration 10  CC energy:  -151.34104873  Energy decrease:   0.00000183
 ======================================================================
 Norm of residual vector:     0.00011918
 CPU time [min]:    12.555                   Wall time [min]:     6.980
 
 Iteration 11  CC energy:  -151.34104195  Energy decrease:   0.00000678
 ======================================================================
 Norm of residual vector:     0.00005504
 CPU time [min]:    13.332                   Wall time [min]:     7.248
 
 Iteration 12  CC energy:  -151.34104464  Energy decrease:   0.00000269
 ======================================================================
 Norm of residual vector:     0.00002569
 CPU time [min]:    14.111                   Wall time [min]:     7.516
 
 Iteration 13  CC energy:  -151.34104419  Energy decrease:   0.00000045
 ======================================================================
 Norm of residual vector:     0.00000949
 CPU time [min]:    14.873                   Wall time [min]:     7.781
 
 Iteration 14  CC energy:  -151.34104400  Energy decrease:   0.00000019
 ======================================================================
 
 Iteration has converged in 14 steps.
 
 Final results:
 Total CCSD energy [au]:            -151.341044004474
 
 Perturbative corrections are calculated...
 ======================================================================
 Spin case  1   Alpha:  0   Beta:  3
 Number of excitations:        1027561
 CPU time [min]:    15.424                   Wall time [min]:     7.877
 ======================================================================
 Spin case  2   Alpha:  1   Beta:  2
 Number of excitations:        15010082
 CPU time [min]:    18.704                   Wall time [min]:     8.426
 ======================================================================
 Spin case  3   Alpha:  2   Beta:  1
 Number of excitations:        17370070
 CPU time [min]:    22.048                   Wall time [min]:     8.987
 ======================================================================
 Spin case  4   Alpha:  3   Beta:  0
 Number of excitations:        1603718
 CPU time [min]:    22.510                   Wall time [min]:     9.066
 ======================================================================
 Number of 3-fold excitations: 35011431
 
 
 CPU time [min]:    22.513                   Wall time [min]:     9.067
 
 Total CCSD[T] energy [au]:         -151.379698630000
 Total CCSD(T) energy [au]:         -151.378117316395
 
 Dominant cluster amplitudes
 Printing threshold:  1.00E-02
 
    1.000000  Reference determinant                                     
    0.021226  1b -> 8b                                                  
    0.163673  4b -> 8b                                                  
    0.015825  4b -> 15b                                                 
    0.022919  4b -> 27b                                                 
    0.019753  5b -> 26b                                                 
    0.018345  5b -> 31b                                                 
   -0.016092  6b -> 12b                                                 
    0.021601  6b -> 17b                                                 
    0.013436  6b -> 55b                                                 
    0.041568  3b -> 11b                                                 
    0.016561  3b -> 25b                                                 
   -0.012915  2b -> 32b                                                 
    0.011282  4a -> 14a                                                 
   -0.014254  8a -> 19a                                                 
    0.011882  8a -> 27a                                                 
    0.017654  6a -> 17a                                                 
   -0.022690  6a -> 34a                                                 
    0.015677  6a -> 55a                                                 
   -0.059375  3a -> 11a                                                 
   -0.021445  3a -> 24a                                                 
   -0.012737  3a -> 29a                                                 
   -0.012238  3a -> 54a                                                 
    0.010860  7a -> 16a                                                 
   -0.012771  2b 7b -> 8b 27b                                           
    0.010036  4b 5b -> 8b 18b                                           
    0.013160  4b 5b -> 8b 26b                                           
    0.015461  4b 5b -> 8b 31b                                           
    0.010826  3b 7b -> 8b 18b                                           
    0.010158  3b 7b -> 8b 26b                                           
    0.013935  3b 7b -> 8b 31b                                           
    0.011520  2b 6b -> 8b 9b                                            
   -0.013593  2b 6b -> 9b 14b                                           
    0.011720  2b 6b -> 9b 27b                                           
   -0.042696  6b 7b -> 8b 9b                                            
    0.021682  6b 7b -> 9b 27b                                           
    0.022620  3b 6b -> 8b 10b                                           
    0.014752  3b 6b -> 10b 14b                                          
   -0.026846  5b 6b -> 9b 11b                                           
    0.016961  5b 6b -> 10b 32b                                          
   -0.023731  4b 6b -> 8b 12b                                           
   -0.010548  4b 6b -> 8b 28b                                           
   -0.012988  4b 6b -> 10b 29b                                          
    0.012634  3b 4b -> 8b 13b                                           
   -0.015029  3b 4b -> 8b 29b                                           
    0.030023  5b 7b -> 8b 11b                                           
   -0.012112  5b 7b -> 8b 13b                                           
   -0.020764  5b 7b -> 11b 27b                                          
    0.010920  5b 7b -> 8b 29b                                           
    0.012511  3b 5b -> 8b 32b                                           
    0.014662  4a 4b -> 27a 8b                                           
    0.014780  4a 4b -> 27a 27b                                          
   -0.011684  8a 4b -> 14a 8b                                           
    0.011121  8a 4b -> 19a 8b                                           
   -0.018406  8a 4b -> 27a 8b                                           
   -0.010492  8a 4b -> 27a 27b                                          
   -0.011061  6a 6b -> 14a 14b                                          
   -0.011172  3a 3b -> 19a 8b                                           
    0.010233  7a 7b -> 19a 8b                                           
   -0.039115  7a 7b -> 27a 8b                                           
   -0.032190  7a 7b -> 27a 27b                                          
   -0.010709  5a 5b -> 18a 18b                                          
   -0.010837  5a 5b -> 26a 26b                                          
   -0.010957  5a 5b -> 31a 26b                                          
   -0.010542  5a 5b -> 18a 31b                                          
   -0.012197  5a 5b -> 26a 31b                                          
   -0.015587  5a 5b -> 31a 31b                                          
   -0.010062  7a 7b -> 26a 26b                                          
   -0.010022  7a 7b -> 26a 31b                                          
    0.010859  8a 1b -> 9a 9b                                            
    0.011201  1a 4b -> 9a 9b                                            
    0.033823  4a 4b -> 9a 9b                                            
    0.011171  4a 4b -> 35a 9b                                           
    0.011588  4a 4b -> 9a 35b                                           
   -0.041512  8a 4b -> 9a 9b                                            
   -0.014563  8a 4b -> 35a 9b                                           
   -0.013311  8a 4b -> 9a 35b                                           
   -0.012000  5a 5b -> 9a 9b                                            
   -0.050704  6a 6b -> 9a 9b                                            
   -0.013681  6a 6b -> 22a 9b                                           
    0.010936  6a 6b -> 35a 9b                                           
   -0.013959  6a 6b -> 9a 22b                                           
    0.010549  6a 6b -> 9a 35b                                           
   -0.023203  2a 2b -> 9a 9b                                            
   -0.018349  7a 2b -> 9a 9b                                            
   -0.012525  7a 2b -> 35a 9b                                           
   -0.019018  2a 7b -> 9a 9b                                            
   -0.012984  2a 7b -> 9a 35b                                           
   -0.073810  7a 7b -> 9a 9b                                            
   -0.010098  7a 7b -> 22a 9b                                           
   -0.022493  7a 7b -> 35a 9b                                           
   -0.010046  7a 7b -> 9a 22b                                           
   -0.023065  7a 7b -> 9a 35b                                           
   -0.011809  7a 7b -> 35a 35b                                          
   -0.011056  8a 1b -> 10a 10b                                          
    0.010160  8a 4b -> 10a 10b                                          
   -0.073757  6a 6b -> 10a 10b                                          
    0.023882  6a 6b -> 20a 10b                                          
    0.025884  6a 6b -> 10a 20b                                          
   -0.010418  6a 6b -> 20a 20b                                          
   -0.039807  3a 3b -> 10a 10b                                          
    0.011942  3a 3b -> 20a 10b                                          
    0.013121  3a 3b -> 10a 20b                                          
   -0.010844  5a 5b -> 33a 33b                                          
    0.023130  4a 4b -> 12a 12b                                          
   -0.023612  8a 4b -> 12a 12b                                          
   -0.018448  6a 6b -> 12a 12b                                          
    0.010731  6a 6b -> 34a 34b                                          
   -0.010728  7a 2b -> 12a 12b                                          
   -0.011105  2a 7b -> 12a 12b                                          
   -0.030783  7a 7b -> 12a 12b                                          
    0.011500  7a 7b -> 12a 17b                                          
    0.011740  1a 1b -> 29a 29b                                          
    0.030064  4a 4b -> 11a 11b                                          
    0.010413  4a 4b -> 11a 25b                                          
   -0.011874  4a 4b -> 29a 29b                                          
    0.010923  8a 4b -> 29a 11b                                          
    0.010814  8a 4b -> 11a 25b                                          
   -0.022487  8a 4b -> 11a 29b                                          
   -0.040745  5a 5b -> 11a 11b                                          
    0.011519  5a 5b -> 29a 11b                                          
    0.010446  5a 5b -> 11a 24b                                          
   -0.010229  5a 5b -> 11a 25b                                          
   -0.034867  3a 3b -> 11a 11b                                          
   -0.010400  3a 3b -> 24a 11b                                          
   -0.015534  3a 3b -> 11a 25b                                          
   -0.010176  2a 2b -> 11a 11b                                          
   -0.021166  7a 7b -> 11a 11b                                          
    0.011102  7a 7b -> 11a 13b                                          
   -0.015632  5a 5b -> 32a 32b                                          
   -0.010453  3a 3b -> 32a 32b                                          
   -0.011692  2a 2b -> 32a 32b                                          
   -0.011277  7a 7b -> 39a 39b                                          
   -0.012234  4a 5b -> 26a 8b                                           
    0.014640  5a 4b -> 18a 8b                                           
    0.023825  5a 4b -> 26a 8b                                           
    0.022469  5a 4b -> 31a 8b                                           
    0.013779  2a 3b -> 9a 10b                                           
    0.013001  3a 2b -> 10a 9b                                           
   -0.011240  8a 5b -> 12a 33b                                          
    0.012667  4a 5b -> 11a 32b                                          
   -0.011389  8a 5b -> 11a 21b                                          
    0.020342  8a 5b -> 11a 32b                                          
    0.010280  3a 2b -> 11a 32b                                          
    0.010088  2a 3b -> 32a 11b                                          
   -0.013515  2a 6b -> 27a 9b                                           
   -0.010429  2a 6b -> 30a 9b                                           
    0.019881  7a 6b -> 27a 9b                                           
   -0.012612  7a 6b -> 18a 10b                                          
   -0.012114  7a 6b -> 31a 10b                                          
    0.016226  6a 2b -> 9a 8b                                            
   -0.012983  6a 2b -> 9a 27b                                           
    0.010808  6a 2b -> 9a 30b                                           
    0.060096  6a 7b -> 9a 8b                                            
    0.012291  6a 7b -> 22a 8b                                           
    0.020427  6a 7b -> 9a 27b                                           
    0.016414  7a 6b -> 9a 8b                                            
    0.010246  6a 2b -> 10a 31b                                          
   -0.011811  6a 7b -> 10a 18b                                          
   -0.011214  6a 7b -> 10a 31b                                          
    0.010301  6a 3b -> 14a 10b                                          
   -0.011052  6a 3b -> 36a 10b                                          
    0.049755  6a 3b -> 10a 8b                                           
   -0.015146  6a 3b -> 20a 8b                                           
   -0.014098  6a 3b -> 10a 19b                                          
    0.027553  3a 6b -> 10a 8b                                           
    0.010167  3a 6b -> 10a 14b                                          
   -0.010040  3a 6b -> 10a 19b                                          
   -0.011388  3a 6b -> 10a 36b                                          
    0.012175  6a 3b -> 12a 11b                                          
   -0.010818  6a 3b -> 12a 13b                                          
    0.010290  6a 3b -> 12a 29b                                          
    0.013791  3a 6b -> 11a 12b                                          
   -0.010178  3a 6b -> 13a 12b                                          
    0.011645  5a 6b -> 31a 12b                                          
    0.030389  6a 5b -> 9a 11b                                           
    0.010006  6a 5b -> 22a 11b                                          
   -0.020667  6a 5b -> 10a 32b                                          
    0.012602  6a 5b -> 12a 31b                                          
    0.036930  5a 6b -> 11a 9b                                           
    0.011996  5a 6b -> 11a 22b                                          
   -0.018576  5a 6b -> 32a 10b                                          
    0.010064  1a 6b -> 10a 29b                                          
    0.013885  8a 6b -> 10a 11b                                          
   -0.010839  6a 1b -> 10a 13b                                          
    0.016584  6a 1b -> 10a 29b                                          
    0.015227  6a 4b -> 10a 29b                                          
    0.014111  4a 6b -> 12a 8b                                           
   -0.011934  8a 6b -> 34a 8b                                           
   -0.037058  6a 4b -> 12a 8b                                           
    0.015225  6a 4b -> 28a 8b                                           
   -0.010267  1a 6b -> 13a 10b                                          
   -0.015964  1a 6b -> 29a 10b                                          
    0.022399  4a 6b -> 11a 10b                                          
    0.013053  4a 6b -> 24a 10b                                          
    0.015448  4a 6b -> 29a 10b                                          
    0.045807  8a 6b -> 11a 10b                                          
   -0.010850  8a 6b -> 13a 10b                                          
    0.010412  8a 6b -> 24a 10b                                          
   -0.013109  8a 6b -> 11a 20b                                          
   -0.015384  8a 6b -> 16a 9b                                           
    0.011845  8a 6b -> 32a 9b                                           
    0.011760  2a 5b -> 27a 11b                                          
   -0.019927  7a 5b -> 27a 11b                                          
    0.013378  2a 5b -> 9a 33b                                           
   -0.013296  8a 3b -> 10a 12b                                          
   -0.011179  8a 3b -> 10a 34b                                          
    0.012957  5a 2b -> 33a 9b                                           
    0.013357  4a 3b -> 34a 10b                                          
   -0.020534  8a 3b -> 12a 10b                                          
    0.013026  8a 3b -> 34a 10b                                          
   -0.044416  4a 3b -> 11a 8b                                           
   -0.018023  4a 3b -> 24a 8b                                           
   -0.012076  4a 3b -> 29a 8b                                           
    0.012957  4a 3b -> 11a 19b                                          
   -0.066515  8a 3b -> 11a 8b                                           
   -0.021485  8a 3b -> 24a 8b                                           
   -0.010869  8a 3b -> 29a 8b                                           
    0.015019  8a 3b -> 11a 14b                                          
    0.013271  8a 3b -> 11a 19b                                          
   -0.015126  5a 2b -> 11a 8b                                           
   -0.010728  5a 2b -> 11a 14b                                          
    0.013194  5a 2b -> 11a 27b                                          
   -0.011097  5a 2b -> 11a 30b                                          
   -0.037635  5a 7b -> 11a 8b                                           
    0.011053  5a 7b -> 13a 8b                                           
    0.017443  5a 7b -> 29a 8b                                           
   -0.022927  5a 7b -> 11a 27b                                          
    0.030489  3a 4b -> 11a 8b                                           
   -0.010530  3a 4b -> 13a 8b                                           
    0.010869  4a 7b -> 27a 39b                                          
   -0.011719  7a 4b -> 27a 16b                                          
   -0.015752  5a 3b -> 26a 11b                                          
   -0.012927  5a 3b -> 31a 11b                                          
   -0.010312  3a 5b -> 26a 11b                                          
    0.010337  7a 4b -> 26a 11b                                          
   -0.010224  4a 2b -> 9a 12b                                           
    0.012098  8a 2b -> 9a 12b                                           
   -0.032831  4a 7b -> 9a 12b                                           
   -0.010698  4a 7b -> 35a 12b                                          
    0.012730  4a 7b -> 9a 17b                                           
   -0.010155  4a 7b -> 9a 28b                                           
    0.035116  8a 7b -> 9a 12b                                           
    0.012889  8a 7b -> 35a 12b                                          
   -0.013917  8a 7b -> 9a 17b                                           
    0.010687  8a 7b -> 9a 28b                                           
    0.018620  2a 4b -> 9a 12b                                           
    0.037482  7a 4b -> 9a 12b                                           
    0.015972  7a 4b -> 35a 12b                                          
   -0.014875  7a 4b -> 9a 17b                                           
    0.012420  7a 4b -> 9a 28b                                           
   -0.014943  3a 5b -> 10a 33b                                          
   -0.014633  5a 3b -> 33a 10b                                          
   -0.013983  4a 2b -> 12a 9b                                           
    0.019731  8a 2b -> 12a 9b                                           
   -0.029903  4a 7b -> 12a 9b                                           
   -0.012850  4a 7b -> 12a 35b                                          
    0.034804  8a 7b -> 12a 9b                                           
   -0.013540  8a 7b -> 17a 9b                                           
    0.015160  8a 7b -> 12a 35b                                          
    0.014617  2a 4b -> 12a 9b                                           
    0.042331  7a 4b -> 12a 9b                                           
   -0.013705  7a 4b -> 17a 9b                                           
   -0.012235  7a 4b -> 28a 9b                                           
    0.014311  7a 4b -> 12a 35b                                          
    0.015712  8a 7b -> 11a 18b                                          
    0.013804  8a 7b -> 11a 26b                                          
    0.016128  8a 7b -> 11a 31b                                          
   -0.012000  5a 3b -> 11a 26b                                          
   -0.011302  5a 3b -> 11a 31b                                          
   -0.015296  3a 5b -> 11a 26b                                          
   -0.013616  3a 5b -> 11a 31b                                          
    0.010629  7a 4b -> 11a 26b                                          
    0.010231  7a 4b -> 11a 31b                                          
    0.017485  8a 7b -> 16a 8b                                           
   -0.011498  8a 7b -> 39a 8b                                           
    0.011746  8a 7b -> 16a 27b                                          
   -0.014068  5a 3b -> 16a 8b                                           
    0.022838  5a 3b -> 32a 8b                                           
    0.010982  3a 5b -> 32a 8b                                           
   -0.012132  7a 4b -> 23a 8b                                           
    0.011059  7a 4b -> 32a 8b                                           
   -0.016906  7a 4b -> 39a 8b                                           
   -0.012417  7a 4b -> 39a 27b                                          
    0.013300  4a 5a -> 11a 32a                                          
    0.010991  5a 8a -> 9a 10a                                           
    0.020113  5a 8a -> 11a 16a                                          
   -0.021830  5a 8a -> 11a 32a                                          
   -0.013146  2a 6a -> 9a 14a                                           
    0.011825  2a 6a -> 9a 27a                                           
   -0.010505  6a 7a -> 10a 18a                                          
    0.019131  6a 7a -> 9a 27a                                           
    0.014217  3a 6a -> 10a 14a                                          
   -0.029727  5a 6a -> 9a 11a                                           
    0.016187  5a 6a -> 10a 32a                                          
   -0.014838  4a 6a -> 10a 11a                                          
   -0.012343  4a 6a -> 10a 24a                                          
   -0.016287  4a 6a -> 10a 29a                                          
    0.032781  6a 8a -> 10a 11a                                          
    0.011260  6a 8a -> 10a 24a                                          
   -0.021482  5a 7a -> 11a 27a                                          
   -0.010241  7a 8a -> 11a 18a                                          

 ************************ 2021-07-18 10:19:32 *************************
 Executing goldstone...

 Generation of CC equations in terms of H and T...
 Generation of antisymmetrized Goldstone diagrams...
 Number of diagrams in T^1 equations:    15
 Number of diagrams in T^2 equations:    38
 Number of diagrams in T^3 equations:    50
 Number of diagrams in T^4 equations:     5
 Translation of diagrams to factorized equations...
 Optimizing intermediate calculation...
 Number of floating-point operations per iteration step:   2.1962E+13
 Probable CPU time per iteration step (hours):    219.62
 Required memory (Mbytes):  152584.8
 Number of intermediates:                                  81
 Number of intermediates to be stored:                     31
 Length of intermediate file (Mbytes):     612.6

 ************************ 2021-07-18 10:19:33 *************************
 Executing xmrcc...

 **********************************************************************
 CC(3)(4) calculation 
 
 
 Allocation of****** Mbytes of memory...
 Number of spinorbitals:                   240
 Number of alpha electrons:                        8
 Number of beta electrons:                         7
 Spin multiplicity:                     2
 z-component of spin:  0.5
 Spatial symmetry:                      1
 Convergence criterion:  1.0E-05
 Construction of occupation graphs...
 Number of                     0 -fold excitations:                      1
 Number of                     1 -fold excitations:                    279
 Number of                     2 -fold excitations:                 133587
 Number of                     3 -fold excitations:               35011431
 Total number of configurations:               35145298
 Calculation of coupling coefficients...
 Length of intermediate file (Mbytes):     451.8
 
 ======================================================================
 
 Spin case  1   Alpha:  0   Beta:  4
 Number of excitations:               28153521
 Spin case  2   Alpha:  1   Beta:  3
 Number of excitations:              918478314
 Spin case  3   Alpha:  2   Beta:  2
 Number of excitations:             2895707754
 Spin case  4   Alpha:  3   Beta:  1
 Number of excitations:             1263425614
 Spin case  5   Alpha:  4   Beta:  0
 Number of excitations:               54350176
 Number of                     4 -fold excitations:             5160115379
 
 Memory requirements /Mbyte/: 
               Minimal        Optimal
 Real*8:       2472.8328      2472.8328
 Integer:    228998.4532
 Total:      231471.2860    231471.2860
 

 ************************ 2021-07-18 10:19:50 *************************
 Executing mrcc...

 **********************************************************************
 CCSDT(Q) calculation                                                   
 
 
 OpenMP parallel version is running.
 Number of CPUs:   6
 Allocation of 2472.8 Mbytes of memory...
 Number of spinorbitals: 240
 Number of alpha electrons:  8
 Number of beta  electrons:  7
 Spin multiplicity: 2
 z-component of spin:  0.5
 Spatial symmetry: 1
 Convergence criterion:  1.0E-05
 Construction of occupation graphs...
 Number of 0-fold excitations: 1
 Number of 1-fold excitations: 279
 Number of 2-fold excitations: 133587
 Number of 3-fold excitations: 35011431
 Total number of determinants: 35145298
 Calculation of coupling coefficients...
 Initial cluster amplitudes are read from unit 16.
 Length of intermediate file (Mbytes):     451.8
 Reading integral list from unit 55...
 Sorting integrals...
 Sorting integrals...
 Sorting integrals...
 Sorting integrals...
 Energy of reference determinant [au]:    -150.807096035593
 Calculation of MP denominators...
 
 Starting CC iteration...
 ======================================================================
 Norm of residual vector:     0.40661391
 CPU time [min]:    24.434                   Wall time [min]:     8.631
 
 Iteration  1  CC energy:  -151.34104399  Energy decrease:   0.00000002
 ======================================================================
 Norm of residual vector:     0.10933202
 CPU time [min]:    45.401                   Wall time [min]:    13.186
 
 Iteration  2  CC energy:  -151.36764438  Energy decrease:   0.02660040
 ======================================================================
 Norm of residual vector:     0.04608478
 CPU time [min]:    66.552                   Wall time [min]:    17.778
 
 Iteration  3  CC energy:  -151.37428939  Energy decrease:   0.00664501
 ======================================================================
 Norm of residual vector:     0.01798843
 CPU time [min]:    87.879                   Wall time [min]:    22.416
 
 Iteration  4  CC energy:  -151.37708369  Energy decrease:   0.00279430
 ======================================================================
 Norm of residual vector:     0.00931408
 CPU time [min]:   109.435                   Wall time [min]:    27.123
 
 Iteration  5  CC energy:  -151.37823966  Energy decrease:   0.00115597
 ======================================================================
 Norm of residual vector:     0.00542811
 CPU time [min]:   130.752                   Wall time [min]:    31.834
 
 Iteration  6  CC energy:  -151.37838331  Energy decrease:   0.00014365
 ======================================================================
 Norm of residual vector:     0.00372620
 CPU time [min]:   152.803                   Wall time [min]:    36.662
 
 Iteration  7  CC energy:  -151.37850532  Energy decrease:   0.00012201
 ======================================================================
 Norm of residual vector:     0.00232572
 CPU time [min]:   174.735                   Wall time [min]:    41.531
 
 Iteration  8  CC energy:  -151.37866277  Energy decrease:   0.00015745
 ======================================================================
 Norm of residual vector:     0.00131013
 CPU time [min]:   196.351                   Wall time [min]:    46.373
 
 Iteration  9  CC energy:  -151.37871354  Energy decrease:   0.00005077
 ======================================================================
 Norm of residual vector:     0.00072941
 CPU time [min]:   218.885                   Wall time [min]:    51.389
 
 Iteration 10  CC energy:  -151.37871021  Energy decrease:   0.00000332
 ======================================================================
 Norm of residual vector:     0.00041042
 CPU time [min]:   241.432                   Wall time [min]:    56.412
 
 Iteration 11  CC energy:  -151.37871019  Energy decrease:   0.00000003
 ======================================================================
 Norm of residual vector:     0.00023440
 CPU time [min]:   263.425                   Wall time [min]:    61.384
 
 Iteration 12  CC energy:  -151.37871558  Energy decrease:   0.00000540
 ======================================================================
 Norm of residual vector:     0.00013698
 CPU time [min]:   286.515                   Wall time [min]:    66.560
 
 Iteration 13  CC energy:  -151.37871544  Energy decrease:   0.00000014
 ======================================================================
 Norm of residual vector:     0.00008411
 CPU time [min]:   309.758                   Wall time [min]:    71.806
 
 Iteration 14  CC energy:  -151.37871532  Energy decrease:   0.00000012
 ======================================================================
 Norm of residual vector:     0.00005212
 CPU time [min]:   333.004                   Wall time [min]:    77.076
 
 Iteration 15  CC energy:  -151.37871573  Energy decrease:   0.00000041
 ======================================================================
 Norm of residual vector:     0.00003293
 CPU time [min]:   356.653                   Wall time [min]:    82.401
 
 Iteration 16  CC energy:  -151.37871565  Energy decrease:   0.00000008
 ======================================================================
 Norm of residual vector:     0.00001954
 CPU time [min]:   380.531                   Wall time [min]:    87.775
 
 Iteration 17  CC energy:  -151.37871567  Energy decrease:   0.00000002
 ======================================================================
 Norm of residual vector:     0.00000961
 CPU time [min]:   401.385                   Wall time [min]:    92.207
 
 Iteration 18  CC energy:  -151.37871570  Energy decrease:   0.00000002
 ======================================================================
 
 Iteration has converged in 18 steps.
 
 Final results:
 Total CCSDT energy [au]:           -151.378715695876
 
 Perturbative corrections are calculated...
 ======================================================================
 Spin case  1   Alpha:  0   Beta:  4
 Number of excitations:        28153521
 CPU time [min]:   478.788                   Wall time [min]:   105.284
 ======================================================================
 Spin case  2   Alpha:  1   Beta:  3
 Number of excitations:        918478314
 CPU time [min]:  1596.426                   Wall time [min]:   293.322
 ======================================================================
 Spin case  3   Alpha:  2   Beta:  2
 Number of excitations:        2895707754
 CPU time [min]:  4222.115                   Wall time [min]:   740.613
 ======================================================================
 Spin case  4   Alpha:  3   Beta:  1
 Number of excitations:        1263425614
 CPU time [min]:  5407.130                   Wall time [min]:   940.502
 ======================================================================
 Spin case  5   Alpha:  4   Beta:  0
 Number of excitations:        54350176
 CPU time [min]:  5482.878                   Wall time [min]:   953.383
 ======================================================================
 Number of 4-fold excitations: 5160115379
 
 T_2^+ contribution:              -0.000414542042
 T_3^+ contribution:              -0.003304260734
 T_1^+ * T_2^+ contribution:       0.000388667922
 T_1^+ * <ab||ij> contribution:    0.000257248130
 T_2^+ * f_ai contribution:       -0.000008536407
 
 CPU time [min]:  5484.176                   Wall time [min]:   953.905
 
 Total CCSDT[Q] energy [au]:        -151.379130237918
 Total CCSDT(Q)/A energy [au]:      -151.382045830731
 Total CCSDT(Q)/B energy [au]:      -151.382185786930
 
 Dominant cluster amplitudes
 Printing threshold:  1.00E-02
 
    1.000000  Reference determinant                                     
    0.021489  1b -> 8b                                                  
    0.188014  4b -> 8b                                                  
    0.016627  4b -> 15b                                                 
    0.023446  4b -> 27b                                                 
    0.020303  5b -> 26b                                                 
    0.019209  5b -> 31b                                                 
   -0.019284  6b -> 12b                                                 
    0.022342  6b -> 17b                                                 
    0.013841  6b -> 55b                                                 
    0.037830  3b -> 11b                                                 
    0.015313  3b -> 25b                                                 
   -0.012991  2b -> 32b                                                 
    0.010549  4a -> 14a                                                 
   -0.014601  8a -> 19a                                                 
    0.012540  8a -> 27a                                                 
    0.018895  6a -> 17a                                                 
   -0.023427  6a -> 34a                                                 
    0.016140  6a -> 55a                                                 
   -0.058529  3a -> 11a                                                 
   -0.020791  3a -> 24a                                                 
   -0.012424  3a -> 29a                                                 
   -0.011950  3a -> 54a                                                 
    0.011512  7a -> 16a                                                 
   -0.013426  2b 7b -> 8b 27b                                           
    0.010498  2b 3b -> 9b 10b                                           
   -0.010069  2b 3b -> 11b 32b                                          
    0.011818  4b 5b -> 8b 18b                                           
    0.014761  4b 5b -> 8b 26b                                           
    0.017226  4b 5b -> 8b 31b                                           
    0.012450  3b 7b -> 8b 18b                                           
    0.010733  3b 7b -> 8b 26b                                           
    0.014951  3b 7b -> 8b 31b                                           
    0.012541  2b 6b -> 8b 9b                                            
   -0.014718  2b 6b -> 9b 14b                                           
    0.012842  2b 6b -> 9b 27b                                           
   -0.060159  6b 7b -> 8b 9b                                            
   -0.010804  6b 7b -> 10b 18b                                          
   -0.010865  6b 7b -> 8b 22b                                           
    0.024456  6b 7b -> 9b 27b                                           
   -0.010172  6b 7b -> 10b 31b                                          
    0.025661  3b 6b -> 8b 10b                                           
    0.016268  3b 6b -> 10b 14b                                          
   -0.032914  5b 6b -> 9b 11b                                           
    0.010033  5b 6b -> 11b 22b                                          
   -0.011431  5b 6b -> 12b 31b                                          
    0.018236  5b 6b -> 10b 32b                                          
   -0.028512  4b 6b -> 8b 12b                                           
   -0.012419  4b 6b -> 8b 28b                                           
   -0.015215  4b 6b -> 10b 29b                                          
    0.014255  3b 4b -> 8b 13b                                           
   -0.016333  3b 4b -> 8b 29b                                           
    0.036639  5b 7b -> 8b 11b                                           
   -0.015148  5b 7b -> 8b 13b                                           
   -0.023219  5b 7b -> 11b 27b                                          
    0.012358  5b 7b -> 8b 29b                                           
    0.013400  3b 5b -> 8b 32b                                           
    0.017365  4a 4b -> 27a 8b                                           
    0.015646  4a 4b -> 27a 27b                                          
   -0.014786  8a 4b -> 14a 8b                                           
    0.013588  8a 4b -> 19a 8b                                           
   -0.022079  8a 4b -> 27a 8b                                           
   -0.010741  8a 4b -> 37a 8b                                           
   -0.011021  8a 4b -> 27a 27b                                          
   -0.011591  6a 6b -> 14a 14b                                          
   -0.011822  3a 3b -> 19a 8b                                           
   -0.010394  2a 2b -> 27a 27b                                          
    0.014797  7a 7b -> 19a 8b                                           
   -0.049128  7a 7b -> 27a 8b                                           
   -0.012336  7a 7b -> 30a 8b                                           
   -0.034536  7a 7b -> 27a 27b                                          
   -0.011527  5a 5b -> 18a 18b                                          
   -0.010087  5a 5b -> 31a 18b                                          
   -0.011756  5a 5b -> 26a 26b                                          
   -0.011817  5a 5b -> 31a 26b                                          
   -0.011250  5a 5b -> 18a 31b                                          
   -0.013167  5a 5b -> 26a 31b                                          
   -0.016656  5a 5b -> 31a 31b                                          
   -0.010456  7a 7b -> 26a 26b                                          
   -0.010487  7a 7b -> 26a 31b                                          
   -0.010507  7a 7b -> 31a 31b                                          
    0.012049  8a 1b -> 9a 9b                                            
    0.011864  1a 4b -> 9a 9b                                            
    0.033856  4a 4b -> 9a 9b                                            
    0.011426  4a 4b -> 35a 9b                                           
    0.011827  4a 4b -> 9a 35b                                           
   -0.047958  8a 4b -> 9a 9b                                            
   -0.010099  8a 4b -> 22a 9b                                           
   -0.015140  8a 4b -> 35a 9b                                           
   -0.013726  8a 4b -> 9a 35b                                           
   -0.011939  5a 5b -> 9a 9b                                            
   -0.061368  6a 6b -> 9a 9b                                            
   -0.016309  6a 6b -> 22a 9b                                           
    0.010664  6a 6b -> 35a 9b                                           
   -0.016612  6a 6b -> 9a 22b                                           
    0.010313  6a 6b -> 9a 35b                                           
   -0.024499  2a 2b -> 9a 9b                                            
   -0.019598  7a 2b -> 9a 9b                                            
   -0.013347  7a 2b -> 35a 9b                                           
   -0.020749  2a 7b -> 9a 9b                                            
   -0.013958  2a 7b -> 9a 35b                                           
   -0.107423  7a 7b -> 9a 9b                                            
   -0.014248  7a 7b -> 22a 9b                                           
   -0.024987  7a 7b -> 35a 9b                                           
   -0.014310  7a 7b -> 9a 22b                                           
   -0.025619  7a 7b -> 9a 35b                                           
   -0.011652  7a 7b -> 35a 35b                                          
   -0.012862  8a 1b -> 10a 10b                                          
    0.017523  8a 4b -> 10a 10b                                          
   -0.010888  5a 5b -> 10a 10b                                          
   -0.083996  6a 6b -> 10a 10b                                          
    0.026877  6a 6b -> 20a 10b                                          
    0.010376  6a 6b -> 43a 10b                                          
    0.029171  6a 6b -> 10a 20b                                          
   -0.011590  6a 6b -> 20a 20b                                          
    0.010148  6a 6b -> 10a 43b                                          
   -0.045045  3a 3b -> 10a 10b                                          
    0.013352  3a 3b -> 20a 10b                                          
    0.014690  3a 3b -> 10a 20b                                          
   -0.011180  5a 5b -> 33a 33b                                          
    0.024345  4a 4b -> 12a 12b                                          
   -0.025265  8a 4b -> 12a 12b                                          
   -0.022859  6a 6b -> 12a 12b                                          
    0.010930  6a 6b -> 28a 12b                                          
   -0.011416  6a 6b -> 12a 28b                                          
    0.011353  6a 6b -> 34a 34b                                          
   -0.011335  7a 2b -> 12a 12b                                          
   -0.011965  2a 7b -> 12a 12b                                          
   -0.032308  7a 7b -> 12a 12b                                          
    0.011364  7a 7b -> 12a 17b                                          
    0.012090  1a 1b -> 29a 29b                                          
    0.035742  4a 4b -> 11a 11b                                          
    0.012518  4a 4b -> 11a 25b                                          
   -0.013025  4a 4b -> 29a 29b                                          
    0.014639  8a 4b -> 11a 11b                                          
    0.010165  8a 4b -> 24a 11b                                          
    0.013033  8a 4b -> 29a 11b                                          
    0.010666  8a 4b -> 11a 13b                                          
    0.013490  8a 4b -> 11a 25b                                          
   -0.026033  8a 4b -> 11a 29b                                          
   -0.046698  5a 5b -> 11a 11b                                          
    0.012930  5a 5b -> 29a 11b                                          
    0.011561  5a 5b -> 11a 24b                                          
   -0.011615  5a 5b -> 11a 25b                                          
   -0.010442  5a 5b -> 11a 29b                                          
   -0.037711  3a 3b -> 11a 11b                                          
   -0.011139  3a 3b -> 24a 11b                                          
   -0.016462  3a 3b -> 11a 25b                                          
    0.010180  3a 3b -> 29a 29b                                          
   -0.010726  2a 2b -> 11a 11b                                          
   -0.024931  7a 7b -> 11a 11b                                          
    0.010480  7a 7b -> 13a 11b                                          
    0.010722  7a 7b -> 29a 11b                                          
    0.012672  7a 7b -> 11a 13b                                          
   -0.010091  7a 7b -> 11a 29b                                          
   -0.016396  5a 5b -> 32a 32b                                          
   -0.010899  3a 3b -> 32a 32b                                          
   -0.012094  2a 2b -> 32a 32b                                          
   -0.011580  7a 7b -> 39a 39b                                          
   -0.014007  4a 5b -> 26a 8b                                           
   -0.011223  4a 5b -> 31a 8b                                           
    0.017875  5a 4b -> 18a 8b                                           
    0.027875  5a 4b -> 26a 8b                                           
    0.026060  5a 4b -> 31a 8b                                           
   -0.010294  2a 3b -> 31a 8b                                           
    0.015823  2a 3b -> 9a 10b                                           
   -0.010542  5a 4b -> 10a 9b                                           
    0.014833  3a 2b -> 10a 9b                                           
   -0.012154  8a 5b -> 12a 33b                                          
    0.013301  4a 5b -> 11a 32b                                          
    0.010210  8a 5b -> 11a 16b                                          
   -0.012588  8a 5b -> 11a 21b                                          
    0.021648  8a 5b -> 11a 32b                                          
    0.010854  3a 2b -> 11a 32b                                          
    0.010475  2a 3b -> 32a 11b                                          
    0.010272  6a 2b -> 36a 9b                                           
    0.010385  2a 6b -> 19a 9b                                           
   -0.014940  2a 6b -> 27a 9b                                           
   -0.011275  2a 6b -> 30a 9b                                           
    0.022212  7a 6b -> 27a 9b                                           
   -0.014327  7a 6b -> 18a 10b                                          
   -0.010184  7a 6b -> 26a 10b                                          
   -0.013515  7a 6b -> 31a 10b                                          
    0.019061  6a 2b -> 9a 8b                                            
   -0.014368  6a 2b -> 9a 27b                                           
    0.011823  6a 2b -> 9a 30b                                           
    0.090104  6a 7b -> 9a 8b                                            
    0.017133  6a 7b -> 22a 8b                                           
    0.022773  6a 7b -> 9a 27b                                           
    0.010585  2a 6b -> 9a 36b                                           
    0.029480  7a 6b -> 9a 8b                                            
    0.010826  6a 2b -> 10a 31b                                          
   -0.013510  6a 7b -> 10a 18b                                          
   -0.012880  6a 7b -> 10a 31b                                          
    0.011364  6a 3b -> 14a 10b                                          
   -0.011744  6a 3b -> 36a 10b                                          
    0.010113  3a 6b -> 19a 10b                                          
    0.059119  6a 3b -> 10a 8b                                           
   -0.017657  6a 3b -> 20a 8b                                           
   -0.016327  6a 3b -> 10a 19b                                          
    0.033168  3a 6b -> 10a 8b                                           
    0.010883  3a 6b -> 10a 14b                                          
   -0.011465  3a 6b -> 10a 19b                                          
   -0.010351  3a 6b -> 10a 27b                                          
   -0.012018  3a 6b -> 10a 36b                                          
    0.014673  6a 3b -> 12a 11b                                          
   -0.012308  6a 3b -> 12a 13b                                          
    0.011122  6a 3b -> 12a 29b                                          
    0.014837  3a 6b -> 11a 12b                                          
   -0.011257  3a 6b -> 13a 12b                                          
   -0.010739  3a 6b -> 29a 12b                                          
    0.010155  3a 6b -> 11a 34b                                          
    0.010724  5a 6b -> 18a 12b                                          
    0.010063  5a 6b -> 26a 12b                                          
    0.013334  5a 6b -> 31a 12b                                          
    0.037250  6a 5b -> 9a 11b                                           
    0.011834  6a 5b -> 22a 11b                                          
   -0.010779  6a 5b -> 10a 16b                                          
   -0.022289  6a 5b -> 10a 32b                                          
    0.010114  6a 5b -> 12a 18b                                          
    0.010411  6a 5b -> 12a 26b                                          
    0.014543  6a 5b -> 12a 31b                                          
    0.044564  5a 6b -> 11a 9b                                           
    0.013967  5a 6b -> 11a 22b                                          
    0.010836  5a 6b -> 16a 10b                                          
   -0.020228  5a 6b -> 32a 10b                                          
    0.010737  1a 6b -> 10a 29b                                          
    0.017847  8a 6b -> 10a 11b                                          
   -0.011269  8a 6b -> 10a 13b                                          
   -0.011225  6a 1b -> 10a 13b                                          
    0.017610  6a 1b -> 10a 29b                                          
   -0.012613  6a 4b -> 10a 11b                                          
    0.017766  6a 4b -> 10a 29b                                          
    0.018820  4a 6b -> 12a 8b                                           
   -0.013175  8a 6b -> 34a 8b                                           
   -0.046964  6a 4b -> 12a 8b                                           
    0.011826  6a 4b -> 17a 8b                                           
    0.018754  6a 4b -> 28a 8b                                           
   -0.010248  6a 4b -> 12a 27b                                          
   -0.010737  1a 6b -> 13a 10b                                          
   -0.016759  1a 6b -> 29a 10b                                          
    0.025291  4a 6b -> 11a 10b                                          
    0.014302  4a 6b -> 24a 10b                                          
    0.016819  4a 6b -> 29a 10b                                          
   -0.010107  4a 6b -> 11a 20b                                          
    0.053801  8a 6b -> 11a 10b                                          
   -0.012536  8a 6b -> 13a 10b                                          
    0.011635  8a 6b -> 24a 10b                                          
   -0.015045  8a 6b -> 11a 20b                                          
   -0.010405  6a 1b -> 29a 10b                                          
   -0.017561  8a 6b -> 16a 9b                                           
    0.013755  8a 6b -> 32a 9b                                           
   -0.010267  2a 5b -> 14a 11b                                          
    0.012869  2a 5b -> 27a 11b                                          
    0.010057  2a 5b -> 30a 11b                                          
   -0.022679  7a 5b -> 27a 11b                                          
    0.014245  2a 5b -> 9a 33b                                           
   -0.016689  8a 3b -> 10a 12b                                          
   -0.012047  8a 3b -> 10a 34b                                          
    0.011136  3a 4b -> 10a 34b                                          
    0.013869  5a 2b -> 33a 9b                                           
    0.014154  4a 3b -> 34a 10b                                          
   -0.024731  8a 3b -> 12a 10b                                          
    0.013877  8a 3b -> 34a 10b                                          
   -0.051682  4a 3b -> 11a 8b                                           
   -0.019723  4a 3b -> 24a 8b                                           
   -0.012580  4a 3b -> 29a 8b                                           
    0.014477  4a 3b -> 11a 19b                                          
   -0.078762  8a 3b -> 11a 8b                                           
   -0.024292  8a 3b -> 24a 8b                                           
   -0.012015  8a 3b -> 29a 8b                                           
    0.016768  8a 3b -> 11a 14b                                          
    0.015252  8a 3b -> 11a 19b                                          
   -0.016656  5a 2b -> 11a 8b                                           
   -0.011631  5a 2b -> 11a 14b                                          
    0.014297  5a 2b -> 11a 27b                                          
   -0.011847  5a 2b -> 11a 30b                                          
   -0.050109  5a 7b -> 11a 8b                                           
    0.014624  5a 7b -> 13a 8b                                           
    0.020847  5a 7b -> 29a 8b                                           
   -0.025622  5a 7b -> 11a 27b                                          
   -0.010037  3a 1b -> 11a 8b                                           
    0.040097  3a 4b -> 11a 8b                                           
   -0.012458  3a 4b -> 13a 8b                                           
   -0.012837  7a 5b -> 11a 8b                                           
    0.011370  4a 7b -> 27a 39b                                          
   -0.011825  7a 4b -> 27a 16b                                          
    0.010497  8a 7b -> 26a 11b                                          
   -0.016925  5a 3b -> 26a 11b                                          
   -0.013739  5a 3b -> 31a 11b                                          
   -0.010570  3a 5b -> 26a 11b                                          
    0.010752  7a 4b -> 26a 11b                                          
    0.010285  7a 4b -> 31a 29b                                          
   -0.010795  4a 2b -> 9a 12b                                           
    0.013409  8a 2b -> 9a 12b                                           
   -0.039044  4a 7b -> 9a 12b                                           
   -0.010997  4a 7b -> 35a 12b                                          
    0.014655  4a 7b -> 9a 17b                                           
   -0.012032  4a 7b -> 9a 28b                                           
    0.044526  8a 7b -> 9a 12b                                           
    0.013413  8a 7b -> 35a 12b                                          
   -0.016578  8a 7b -> 9a 17b                                           
    0.013445  8a 7b -> 9a 28b                                           
    0.019709  2a 4b -> 9a 12b                                           
    0.041869  7a 4b -> 9a 12b                                           
    0.016143  7a 4b -> 35a 12b                                          
   -0.015869  7a 4b -> 9a 17b                                           
    0.013725  7a 4b -> 9a 28b                                           
   -0.015811  3a 5b -> 10a 33b                                          
   -0.015637  5a 3b -> 33a 10b                                          
   -0.015050  4a 2b -> 12a 9b                                           
    0.022012  8a 2b -> 12a 9b                                           
   -0.034392  4a 7b -> 12a 9b                                           
    0.010639  4a 7b -> 17a 9b                                           
    0.010238  4a 7b -> 28a 9b                                           
   -0.013298  4a 7b -> 12a 35b                                          
    0.043009  8a 7b -> 12a 9b                                           
   -0.015455  8a 7b -> 17a 9b                                           
   -0.011823  8a 7b -> 28a 9b                                           
    0.015774  8a 7b -> 12a 35b                                          
    0.015140  2a 4b -> 12a 9b                                           
    0.048838  7a 4b -> 12a 9b                                           
   -0.015033  7a 4b -> 17a 9b                                           
   -0.013997  7a 4b -> 28a 9b                                           
    0.014253  7a 4b -> 12a 35b                                          
   -0.010463  4a 2b -> 11a 31b                                          
    0.010148  4a 7b -> 29a 31b                                          
    0.017748  8a 7b -> 11a 18b                                          
    0.015677  8a 7b -> 11a 26b                                          
    0.018057  8a 7b -> 11a 31b                                          
   -0.012316  5a 3b -> 11a 26b                                          
   -0.011535  5a 3b -> 11a 31b                                          
   -0.016196  3a 5b -> 11a 26b                                          
   -0.014275  3a 5b -> 11a 31b                                          
    0.010914  7a 4b -> 11a 26b                                          
    0.010614  7a 4b -> 11a 31b                                          
    0.010328  4a 7b -> 23a 8b                                           
   -0.010081  4a 7b -> 32a 8b                                           
    0.020940  8a 7b -> 16a 8b                                           
   -0.010223  8a 7b -> 23a 8b                                           
   -0.012631  8a 7b -> 39a 8b                                           
    0.012562  8a 7b -> 16a 27b                                          
   -0.015587  5a 3b -> 16a 8b                                           
    0.025105  5a 3b -> 32a 8b                                           
    0.012280  3a 5b -> 32a 8b                                           
   -0.010115  2a 4b -> 32a 8b                                           
   -0.014597  7a 4b -> 23a 8b                                           
    0.012877  7a 4b -> 32a 8b                                           
   -0.018660  7a 4b -> 39a 8b                                           
   -0.012850  7a 4b -> 39a 27b                                          
    0.010926  2a 3a -> 9a 10a                                           
   -0.010191  2a 3a -> 11a 32a                                          
    0.014105  4a 5a -> 11a 32a                                          
    0.014290  5a 8a -> 9a 10a                                           
    0.022175  5a 8a -> 11a 16a                                          
    0.010903  5a 8a -> 11a 21a                                          
   -0.023585  5a 8a -> 11a 32a                                          
   -0.014173  2a 6a -> 9a 14a                                           
    0.012936  2a 6a -> 9a 27a                                           
   -0.011947  6a 7a -> 10a 18a                                          
    0.020887  6a 7a -> 9a 27a                                           
   -0.011096  6a 7a -> 10a 31a                                          
    0.015080  3a 6a -> 10a 14a                                          
   -0.035116  5a 6a -> 9a 11a                                           
    0.010523  5a 6a -> 11a 22a                                          
   -0.010198  5a 6a -> 12a 31a                                          
    0.017553  5a 6a -> 10a 32a                                          
   -0.015854  4a 6a -> 10a 11a                                          
   -0.013355  4a 6a -> 10a 24a                                          
   -0.017798  4a 6a -> 10a 29a                                          
    0.036537  6a 8a -> 10a 11a                                          
   -0.011003  6a 8a -> 9a 16a                                           
    0.012460  6a 8a -> 10a 24a                                          
   -0.023842  5a 7a -> 11a 27a                                          
   -0.010379  5a 7a -> 27a 29a                                          
   -0.011373  7a 8a -> 11a 18a                                          

 ************************ 2021-07-19 02:13:47 *************************
 Executing goldstone...

 Generation of CC equations in terms of H and T...
 Generation of antisymmetrized Goldstone diagrams...
 Number of diagrams in T^1 equations:    15
 Number of diagrams in T^2 equations:    38
 Number of diagrams in T^3 equations:    53
 Number of diagrams in T^4 equations:    74
 Translation of diagrams to factorized equations...
 Optimizing intermediate calculation...
 Number of floating-point operations per iteration step:   4.2628E+14
 Probable CPU time per iteration step (hours):   4262.84
 Required memory (Mbytes):  152584.8
 Number of intermediates:                                 105
 Number of intermediates to be stored:                     44
 Length of intermediate file (Mbytes):    8872.5

 ************************ 2021-07-19 02:14:10 *************************
 Executing xmrcc...

 **********************************************************************
 CC(                     4 ) calculation 
 
 
 Allocation of****** Mbytes of memory...
 Number of spinorbitals:                   240
 Number of alpha electrons:                        8
 Number of beta electrons:                         7
 Spin multiplicity:                     2
 z-component of spin:  0.5
 Spatial symmetry:                      1
 Convergence criterion:  1.0E-05
 Construction of occupation graphs...
 Number of                     0 -fold excitations:                      1
 Number of                     1 -fold excitations:                    279
 Number of                     2 -fold excitations:                 133587
 Number of                     3 -fold excitations:               35011431
 Number of                     4 -fold excitations:             5160115379
 Total number of configurations:             5195260677
 Calculation of coupling coefficients...
 Length of intermediate file (Mbytes):    5598.1
 
 ======================================================================
 
 Memory requirements /Mbyte/: 
               Minimal        Optimal
 Real*8:     154801.8484    154801.8484
 Integer:    233688.9616
 Total:      388490.8100    388490.8100
 

 ************************ 2021-07-19 02:18:33 *************************
 Executing mrcc...

 **********************************************************************
 CCSDTQ calculation                                                     
 
 
 OpenMP parallel version is running.
 Number of CPUs:   6
 Allocation of******* Mbytes of memory...
 Number of spinorbitals: 240
 Number of alpha electrons:  8
 Number of beta  electrons:  7
 Spin multiplicity: 2
 z-component of spin:  0.5
 Spatial symmetry: 1
 Convergence criterion:  1.0E-05
 Construction of occupation graphs...
 Number of 0-fold excitations: 1
 Number of 1-fold excitations: 279
 Number of 2-fold excitations: 133587
 Number of 3-fold excitations: 35011431
 Number of 4-fold excitations: 5160115379
 Total number of determinants: 5195260677
 Calculation of coupling coefficients...
 Initial cluster amplitudes are read from unit 16.
 Length of intermediate file (Mbytes):    5598.1
 Reading integral list from unit 55...
 Sorting integrals...
 Sorting integrals...
 Sorting integrals...
 Sorting integrals...
 Energy of reference determinant [au]:    -150.807096035593
 Calculation of MP denominators...
 
 Starting CC iteration...
 ======================================================================
 Norm of residual vector:     0.15677282
 CPU time [min]:  5624.186                   Wall time [min]:  1276.657
 
 Iteration  1  CC energy:  -151.37871563  Energy decrease:   0.00000007
 ======================================================================
 Norm of residual vector:     0.04373715
 CPU time [min]: 11554.669                   Wall time [min]:  2590.603
 
 Iteration  2  CC energy:  -151.37809742  Energy decrease:   0.00061821
 ======================================================================
