 --invoking executable--
/home/nike/cfour/cfour_v2.00beta/bin/xjoda


   *************************************************************************
         <<<     CCCCCC     CCCCCC   |||     CCCCCC     CCCCCC   >>>
       <<<      CCC        CCC       |||    CCC        CCC         >>>
      <<<      CCC        CCC        |||   CCC        CCC            >>>
    <<<        CCC        CCC        |||   CCC        CCC              >>>
      <<<      CCC        CCC        |||   CCC        CCC            >>>
       <<<      CCC        CCC       |||    CCC        CCC         >>>
         <<<     CCCCCC     CCCCCC   |||     CCCCCC     CCCCCC   >>>
   *************************************************************************

     ****************************************************************
     * CFOUR Coupled-Cluster techniques for Computational Chemistry *
     ****************************************************************
 

   Department of Chemistry                Institut fuer Physikalische Chemie
   University of Texas at Austin          Universitaet Mainz
   Austin, TX  78712, USA                 D-55099 Mainz, Germany
 
                       Version 2.00beta
 
                     gra811                                            
                     Mon Jul 19 18:17:40 EDT 2021                      
                     integer*8 version is running
 
********************************************************************************
*                          Input from ZMAT file                                *
********************************************************************************
TITLE                                                                           
C  1.2247  0.0000 0.0000                                                        
C -1.2247  0.0000 0.0000                                                        
C  0.0000 -0.7286 0.0000                                                        
C  0.0000  0.7286 0.0000                                                        
                                                                                
*ACES2(CALC=CCSDT                                                               
#UNITS=BOHR                                                                     
UNITS=ANGSTROM                                                                  
#GEOM=2.2810272*10/5.29177210903_in2013JMSLeRoy                                 
COORD=CARTESIAN                                                                 
#COORD=INTERNAL                                                                 
PRINT=4                                                                         
JODA_PRINT=4                                                                    
INPUT_MRCC=OFF                                                                  
#CC_PROG=MRCC                                                                   
FROZEN_CORE=ON                                                                  
#DROPMO=1>4                                                                     
CONTRACTION=GENERAL                                                             
#CONTRACTION=SEGMENTED                                                          
RELATIVISTIC=OFF                                                                
#EXCITE=EOMEE                                                                   
#ESTATE_CONV=5                                                                  
#ESTATE_SYM=2/2/2/2/2/2/2/2                                                     
XFORM_TOL=18                                                                    
SAVE_INTS=ON                                                                    
SCF_EXPORDER=6                                                                  
SCF_EXPSTART=5                                                                  
#SCF_DAMPING=1000                                                               
SCF_EXTRAPOLATION=ON                                                            
SCF_CONV=12                                                                     
SCF_MAXCYC=9999                                                                 
CC_CONV=9                                                                       
CC_MAXCYC=999                                                                   
T3_EXTRAPOL=ON                                                                  
REFERENCE=ROHF                                                                  
CHARGE=+1                                                                       
MULT=2                                                                          
ABCDTYPE=STANDARD                                                               
#OCCUPATION=3-2-2-0-1-0-0-0/3-1-1-0-1-0-0-0                                     
MEM=127                                                                         
MEM_UNIT=GB                                                                     
BASIS=SPECIAL)                                                                  
                                                                                
C:def2-TZVPP                                                                    
C:def2-TZVPP                                                                    
C:def2-TZVPP                                                                    
C:def2-TZVPP                                                                    
                                                                                
********************************************************************************
  @GTFLGS-W, Keyword #UNITS not known and is ignored.
  @GTFLGS-W, Keyword #GEOM not known and is ignored.
  @GTFLGS-W, Keyword #COORD not known and is ignored.
  @GTFLGS-W, Keyword #CC_PROG not known and is ignored.
  @GTFLGS-W, Keyword #DROPMO not known and is ignored.
  @GTFLGS-W, Keyword #CONTRACTION not known and is ignored.
  @GTFLGS-W, Keyword #EXCITE not known and is ignored.
  @GTFLGS-W, Keyword #ESTATE_CONV not known and is ignored.
  @GTFLGS-W, Keyword #ESTATE_SYM not known and is ignored.
  @GTFLGS-W, Keyword #SCF_DAMPING not known and is ignored.
  @GTFLGS-W, Keyword #OCCUPATION not known and is ignored.
    -------------------------------------------------------------------
                    CFOUR Control Parameters 
    -------------------------------------------------------------------
        External           Internal           Value            Units
          Name               Name
    -------------------------------------------------------------------
       ABCDTYPE             IABCDT         STANDARD     [  0]   ***   
       ANHARMONIC           IANHAR         OFF          [  0]   ***   
       ANH_ALGORIT          IANALG         STANDARD     [  0]   ***   
       ANH_DERIVAT          IANDER         SECOND       [  1]   ***   
       ANH_STEPSIZ          ICUBST             50000          x 10-6  
       ANH_SYMMETR          IANHSM         ABELIAN      [  0]   ***   
       AO_LADDERS           IAOLAD         SINGLEPASS   [  1]   ***   
       BASIS                IBASIS         SPECIAL      [  0]   ***   
       BREIT                IBREIT         OFF          [  0]   ***   
       BRUCK_CONV           IBRTOL          10D-  4             ***   
       BRUECKNER            IBRKNR             OFF      [  0]   ***   
       BUFFERSIZE           IBUFFS            600               ***   
       CACHE_RECS           ICHREC             10               ***   
       CALCLEVEL            ICLLVL           CCSDT      [ 18]   ***   
       CCORBOPT             ICCORB             OFF      [  0] x 0.01  
       CC_CONV              ICCCNV          10D-  9             ***   
       CC_EXPORDER          ICCEOR              5               ***   
       CC_EXTRAPOL          ICCEXT             DIIS     [  1]   ***   
       CC_MAXCYC            ICCCYC            999              cycles 
       CC_PROGRAM           ICCPRO         VCC          [  0]   ***   
       CHARGE               ICHRGE              1               ***   
       CHOLESKY             ICHOLE         OFF          [  0]   ***   
       CIS_CONV             ICISTL              5               ***   
       COMM_SIZE            IPSIZE            ***               ***   
       CONSTANT             ICONST         OLD          [  1]   ***   
       CONTINUUM            ICONTU         NONE         [  0]   ***   
       CONTRACTION          ICNTYP          GENERAL     [  1]   ***   
       COORDINATES          ICOORD         CARTESIAN    [  1]   ***   
       CPHF_CONVER          ICPHFT          10D- 16             ***   
       CPHF_MAXCYC          ICPHFC             64              cycles 
       CUBIC                ICUBIC         OFF          [  0]   ***   
       CURVILINEAR          ICURVY            OFF       [  0]   ***   
       DBOC                 IDBOC          OFF          [  0]   ***   
       DCT                  IDCT           OFF          [  0]   ***   
       DERIV_LEV            IDRLVL            ZERO      [  0]   ***   
       DIAG_MRCC            IEOMST          10D-  0             ***   
       DIFF_TYPE            IDIFTY         RELAXED      [  0]   ***   
       DIRECT               IDIRCT         OFF          [  0]   ***   
       DROPMO               IDRPMO      NONE         
       ECP                  IECP           OFF          [  0]   ***   
       EIGENVECTOR          IVEC                1               ***   
       EL_ANHARM            IELANH         OFF          [  0]   ***   
       EOMFOLLOW            IEOMSR         ENERGY       [  0]   ***   
       EOM_MRCC             IMRCCE         NEW          [  1]   ***   
       EOM_NONIT            EOMNON         OFF          [  0]   ***   
       EOM_NSING            IEOMSI          10D-  0             ***   
       EOM_NSTATES          IMRCCD         DAVIDSON     [  0]   ***   
       EOM_NTRIP            IEOMTR          10D-  0             ***   
       EOM_ORDER            IEXORD         ENERGY       [  0]   ***   
       ESTATE_CONV          IEXTOL          10D-  5             ***   
       ESTATE_DIAG          IEXDIG         ITERATIVE    [  0]   ***   
       ESTATE_LOCK          IESLOC         ON           [  1]   ***   
       ESTATE_MAXC          IEXMXC             20               ***   
       ESTATE_PROP          IEXPRP         OFF          [  0]   ***   
       EVAL_HESS            IRECAL              0            # of cyc.
       EXCITATION           IEXCIT              0               ***   
       EXCITE               IEXCIT         NONE         [  0]   ***   
       FCGRADNEW            IFCGNW         OFF          [  0]   ***   
       FC_FIELD             IFINFC              0             x 10-6  
       FD_CALTYPE           IFDCAL         GRADONLY     [  0]   ***   
       FD_PROJECT           IFDPRJ         OFF          [  1]   ***   
       FD_STEPSIZE          IDISFD              0            10-4 bohr
       FD_USEGROUP          IFDGRP         FULL         [  0]   ***   
       FILE_RECSIZ          IFLREC              4096           words  
       FINITE_PERT          IFIPER              0             x 10-6  
       FIXGEOM              IFIXGM         OFF          [  0]   ***   
       FOCK                 IFOCK          AO           [  1]   ***   
       FREQ_ALGORI          IVIALG         STANDARD     [  0]   ***   
       FROZEN_CORE          IFROCO         ON           [  1]   ***   
       FROZEN_VIRT          IFROVI         OFF          [  0]   ***   
       GAMMA_ABCD           IGABCD         STORE        [  0]   ***   
       GAMMA_ABCI           IGABCI         STORE        [  0]   ***   
       GENBAS_1             IGNBS1              0               ***   
       GENBAS_2             IGNBS2              0               ***   
       GENBAS_3             IGNBS3              0               ***   
       GENBAS_4             IGNBS4              0               ***   
       GEO_CONV             ICONTL              5              H/bohr 
       GEO_MAXCYC           IOPTCY             50               ***   
       GEO_MAXSTEP          IMXSTP            300            millibohr
       GEO_METHOD           INR            SINGLE_POINT [  5]   ***   
       GIAO                 IGIAO          OFF          [  1]   ***   
       GIMIC                IGIMIC         OFF          [  0]   ***   
       GRID                 IGRID          OFF          [  0]   ***   
       GRID_ALGO            IGALGO         SERIAL       [  0]   ***   
       GUESS                IGUESS            MOREAD    [  0]   ***   
       HBAR                 IHBAR              OFF      [  0]   ***   
       HESS_TYPE            IHESTP         SCF          [  0]   ***   
       HF2_FILE             IHF2Fl         USE          [  1]   ***   
       HFSTABILITY          ISTABL         OFF          [  0]   ***   
       INCORE               INCORE             OFF      [  0]   ***   
       INPUT_MRCC           IMRCC          OFF          [  0]   ***   
       INTEGRALS            INTTYP             VMOL     [  1]   ***   
       JODA_PRINT           IJPRNT              4               ***   
       LINDEP_TOL           ILINDP              8               ***   
       LINEQ_CONV           IZTACN          10D-  7           cycles  
       LINEQ_EXPOR          ILMAXD              5               ***   
       LINEQ_MAXCY          ILMAXC             50               ***   
       LINEQ_TYPE           ILTYPE         DIIS         [  1]   ***   
       LOCK_ORBOCC          ILOCOC             OFF      [  0]   ***   
       MEMORY_SIZE          IMEMSZ         *********           words  
       MEM_UNIT             IMEMU          GB           [  3]   ***   
       MRCC                 IMRCCC         OFF          [  0]   ***   
       MULTIPLICTY          IMULTP              2               ***   
       NEGEVAL              IDIE             ABORT      [  0]   ***   
       NEWNORM              INEWNO         OFF          [  0]   ***   
       NON-HF               INONHF              ON      [  1]   ***   
       NTOP_TAMP            ITOPT2             15               ***   
       NUC_MODEL            INUCMO         POINT        [  0]   ***   
       OCCUPATION           IOCCU   ESTIMATED BY SCF 
       OPEN-SHELL           IOPEN          SPIN-ORBITAL [  0]   ***   
       ORBITALS             IORBTP         SEMICANONICAL[  1]   ***   
       PARALLEL             IPARAL         ON           [  1]   ***   
       PARA_INT             IPINTS         ON           [  1]   ***   
       PARA_PRINT           IPPRIN              0               ***   
       PERT_ORB             IPTORB         STANDARD     [  0]   ***   
       POINTS               IGRDFD              0               ***   
       PRINT                IPRNT               4               ***   
       PROPS                IPROPS             OFF      [  0]   ***   
       PROP_INTEGR          IINTYP         INTERNAL     [  0]   ***   
       PSI                  IPSI           OFF          [  0]   ***   
       QUARTIC              IQUART         OFF          [  0]   ***   
       RAMAN_INT            IRAMIN         OFF          [  0]   ***   
       RAMAN_ORB            IRAMRE         UNRELAXED    [  0]   ***   
       RDO                  IRDOFM             OFF      [  0]   ***   
       REFERENCE            IREFNC             ROHF     [  2]   ***   
       RELATIVIST           IRELAT         OFF          [  0]   ***   
       RELAX_DENS           IRDENS             OFF      [  0]   ***   
       RESET_FLAGS          IRESET             OFF      [  0]   ***   
       RESTART_CC           ICCRES         OFF          [  0]   ***   
       ROT_EVEC             ROTVEC              0               ***   
       SAVE_INTS            ISVINT              ON      [  1]   ***   
       SCALE_ON             ISTCRT              0               ***   
       SCF_CONV             ISCFCV          10D- 12             ***   
       SCF_DAMPING          IDAMP               0             x 10-3  
       SCF_EXPORDE          IRPPOR              6               ***   
       SCF_EXPSTAR          IRPPLS              5               ***   
       SCF_EXTRAPO          IRPP                ON      [  1]   ***   
       SCF_MAXCYC           ISCFCY            ***              cycles 
       SCF_NOSTOP           ISCFST         OFF          [  0]   ***   
       SCF_PRINT            ISCFPR              0               ***   
       SD_FIELD             IFINSD              0             x 10-6  
       SEQUENCE             ISEQUE         OFF          [  0]   ***   
       SOPERT               IPERSO         OFF          [  0]   ***   
       SPHERICAL            IDFGHI             ON       [  1]   ***   
       SPINORBIT            ISOCAL         OFF          [  0]   ***   
       SPINROTATIO          ISRCON         OFF          [  0]   ***   
       SPIN_FLIP            ISPFLP         OFF          [  0]   ***   
       SPIN_ORBIT           ISPORB         OFF          [  0]   ***   
       SPIN_SCAL            ISCSMP         OFF          [  0]   ***   
       SUBGROUP             ISUBGP         DEFAULT      [  0]   ***   
       SUBGRPAXIS           ISBXYZ         X            [  0]   ***   
       SYMMETRY             ISYM             ON         [  0]   ***   
       SYM_CHECK            ISYMCK         OVERRIDE     [  1]   ***   
       T3_EXTRAPOL          IT3EXT         ON           [  1]   ***   
       TAMP_SUM             IEVERY              5               ***   
       TESTSUITE            ITESTS         OFF          [  0]   ***   
       THERMOCH             ITHERM         OFF          [  0]   ***   
       TOL_CHOLESK          ITOLCH          10D-  4             ***   
       TRANGRAD             IRESRM         OFF          [  0]   ***   
       TRANS_INV            ITRAIN         USE          [  0]   ***   
       TREAT_PERT           ITREAT         SIMULTANEOUS [  0]   ***   
       UIJ_THRESHO          IUIJTH              1               ***   
       UNITS                IUNITS         ANGSTROM     [  0]   ***   
       UNOS                 IUNOS          OFF          [  0]   ***   
       UPDATE_HESS          IHUPDT         ON           [  1]   ***   
       VIBPHASE             ISETPH         STANDARD     [  0]   ***   
       VIBRATION            IVIB              NO        [  0]   ***   
       VIB_ALGORIT          IGEALG         STANDARD     [  0]   ***   
       VNATORB              IVNORB         OFF          [  0]   ***   
       VTRAN                IVTRAN         FULL/PARTIAL [  0]   ***   
       XFIELD               IXEFLD              0             x 10-6  
       XFORM_TOL            IXFTOL          10D- 18             ***   
       YFIELD               IYEFLD              0             x 10-6  
       ZFIELD               IZEFLD              0             x 10-6  
    -------------------------------------------------------------------
  @GETXYZ-I,     4 atoms read from ZMAT.
  1  C          6    12.00000
  2  C          6    12.00000
  3  C          6    12.00000
  4  C          6    12.00000
  1  C          6    12.00000
  2  C          6    12.00000
  3  C          6    12.00000
  4  C          6    12.00000
   12.0000000000
   12.0000000000
   12.0000000000
   12.0000000000
 After translation to center of mass coordinates 
        2.314348069862    0.000000000000    0.000000000000
       -2.314348069862    0.000000000000    0.000000000000
        0.000000000000   -1.376854742958    0.000000000000
        0.000000000000    1.376854742958    0.000000000000
  Inertia tensor (amu*bohr**2)
   45.49750    0.00000    0.00000
    0.00000  128.54897    0.00000
    0.00000    0.00000  174.04646
    Inertia tensor:
       45.497495596973    0.000000000000    0.000000000000
        0.000000000000  128.548967723339    0.000000000000
        0.000000000000    0.000000000000  174.046463320312
    Principal axis orientation for molecular system: 
        2.314348069862    0.000000000000    0.000000000000
       -2.314348069862    0.000000000000    0.000000000000
        0.000000000000   -1.376854742958    0.000000000000
        0.000000000000    1.376854742958    0.000000000000
    Diagonalized inertia tensor:
       45.497495596973    0.000000000000    0.000000000000
        0.000000000000  128.548967723339    0.000000000000
        0.000000000000    0.000000000000  174.046463320312
    Eigenvectors of inertia tensor: 
        1.000000000000    0.000000000000    0.000000000000
        0.000000000000    1.000000000000    0.000000000000
        0.000000000000    0.000000000000    1.000000000000
 factor:   60.1997200000000     
   Rotational constants (in cm-1): 
          0.3458830410             0.4683018547             1.3231435975
   Rotational constants (in MHz): 
      10369.3141554309         14039.3383764398         39666.8526944171
  @SYMMETRY-I, Handedness of inertial frame: 1.00000
  @SYMMETRY-I, The symmetry group is 1-fold degenerate.
  @SYMMETRY-I, The molecule belongs to an Abelian group.
   Principal axis orientation for molecule:
        2.314348069862    0.000000000000    0.000000000000
       -2.314348069862    0.000000000000    0.000000000000
        0.000000000000   -1.376854742958    0.000000000000
        0.000000000000    1.376854742958    0.000000000000
   Reflection in plane  3 is a valid symmetry operation.
   Rotation about  3 is a valid symmetry operation 
   Reflection in plane  2 is a valid symmetry operation.
   Rotation about  2 is a valid symmetry operation 
   Reflection in plane  1 is a valid symmetry operation.
   Rotation about  1 is a valid symmetry operation 
   The molecule possesses an inversion center. 
  Symmetry bits:    7   7   1
********************************************************************************
   The full molecular point group is D2h .
   The largest Abelian subgroup of the full molecular point group is D2h .
   The computational point group is D2h .
********************************************************************************
 ----------------------------------------------------------------
 Z-matrix   Atomic            Coordinates (in bohr)
  Symbol    Number           X              Y              Z
 ----------------------------------------------------------------
     C         6         2.31434807     0.00000000     0.00000000
     C         6        -2.31434807     0.00000000     0.00000000
     C         6         0.00000000    -1.37685474     0.00000000
     C         6         0.00000000     1.37685474     0.00000000
 ----------------------------------------------------------------
   Interatomic distance matrix (Angstroms) 
 
                 C             C             C             C    
                [ 1]        [ 2]        [ 3]        [ 4]
  C    [ 1]     0.00000
  C    [ 2]     2.44940     0.00000
  C    [ 3]     1.42504     1.42504     0.00000
  C    [ 4]     1.42504     1.42504     1.45720     0.00000
  Inertia tensor (amu*bohr**2)
   45.49750    0.00000    0.00000
    0.00000  128.54897    0.00000
    0.00000    0.00000  174.04646
   Rotational constants (in cm-1): 
          1.3231435975             0.4683018547             0.3458830410
   Rotational constants (in MHz): 
      39666.8526944171         14039.3383764398         10369.3141554309
  @GTFLGS-W, Keyword #UNITS not known and is ignored.
  @GTFLGS-W, Keyword #GEOM not known and is ignored.
  @GTFLGS-W, Keyword #COORD not known and is ignored.
  @GTFLGS-W, Keyword #CC_PROG not known and is ignored.
  @GTFLGS-W, Keyword #DROPMO not known and is ignored.
  @GTFLGS-W, Keyword #CONTRACTION not known and is ignored.
  @GTFLGS-W, Keyword #EXCITE not known and is ignored.
  @GTFLGS-W, Keyword #ESTATE_CONV not known and is ignored.
  @GTFLGS-W, Keyword #ESTATE_SYM not known and is ignored.
  @GTFLGS-W, Keyword #SCF_DAMPING not known and is ignored.
  @GTFLGS-W, Keyword #OCCUPATION not known and is ignored.
  There are   4 frozen-core orbitals.
  There are   4 frozen-core orbitals.
  There are  124 basis functions.
 @GEOPT-W, Archive file not created for single-point calculation.
  @CHECKOUT-I, Total execution time (CPU/WALL):        0.33/       6.93 seconds.
--executable xjoda finished with status     0 in        7.09 seconds (walltime).
 --invoking executable--
/home/nike/cfour/cfour_v2.00beta/bin/xvmol
 Serial version of molecule started
********************************************************************************
                    Input from MOL file
********************************************************************************
INTGRL        1    0    1    0    0    0    0    0    0                         
         *** CFOUR Program System (Release V0.1) ***                            
TITLE                                                                           
    2    3 X  Y   Z   0.10E-08              0    0                              
   9999.00      3.00                                                            
          6.00000000    1    4    1    1    1    1                              
C #1   2.314348069861678   0.000000000000000   0.000000000000000                
   11    5                                                                      
   13575.3496820000       2.224581435200000E-004  0.000000000000000E+000        
  0.000000000000000E+000  0.000000000000000E+000  0.000000000000000E+000        
   2035.23336800000       1.723273825200000E-003  0.000000000000000E+000        
  0.000000000000000E+000  0.000000000000000E+000  0.000000000000000E+000        
   463.225623590000       8.925571531400001E-003  0.000000000000000E+000        
  0.000000000000000E+000  0.000000000000000E+000  0.000000000000000E+000        
   131.200195980000       3.572798450200000E-002  0.000000000000000E+000        
  0.000000000000000E+000  0.000000000000000E+000  0.000000000000000E+000        
   42.8530158910000       0.110762599310000       0.000000000000000E+000        
  0.000000000000000E+000  0.000000000000000E+000  0.000000000000000E+000        
   15.5841857660000       0.242956276260000       0.000000000000000E+000        
  0.000000000000000E+000  0.000000000000000E+000  0.000000000000000E+000        
   6.20671385080000       0.000000000000000E+000  0.414402634480000             
  0.000000000000000E+000  0.000000000000000E+000  0.000000000000000E+000        
   2.57648965270000       0.000000000000000E+000  0.237449686550000             
  0.000000000000000E+000  0.000000000000000E+000  0.000000000000000E+000        
  0.576963394190000       0.000000000000000E+000  0.000000000000000E+000        
   1.00000000000000       0.000000000000000E+000  0.000000000000000E+000        
  0.229728313580000       0.000000000000000E+000  0.000000000000000E+000        
  0.000000000000000E+000   1.00000000000000       0.000000000000000E+000        
  9.516444002799999E-002  0.000000000000000E+000  0.000000000000000E+000        
  0.000000000000000E+000  0.000000000000000E+000   1.00000000000000             
    6    3                                                                      
   34.6972322440000       5.333365780500000E-003  0.000000000000000E+000        
  0.000000000000000E+000                                                        
   7.95826228260000       3.586410909200000E-002  0.000000000000000E+000        
  0.000000000000000E+000                                                        
   2.37808268830000       0.142158733290000       0.000000000000000E+000        
  0.000000000000000E+000                                                        
  0.814332081830000       0.342704718450000       0.000000000000000E+000        
  0.000000000000000E+000                                                        
  0.288875472530000       0.000000000000000E+000  0.464458224330000             
  0.000000000000000E+000                                                        
  0.100568236710000       0.000000000000000E+000  0.000000000000000E+000        
  0.249557898740000                                                             
    2    2                                                                      
   1.09700000000000        1.00000000000000       0.000000000000000E+000        
  0.318000000000000       0.000000000000000E+000   1.00000000000000             
    1    1                                                                      
  0.761000000000000        1.00000000000000                                     
          6.00000000    1    4    1    1    1    1                              
C #2   0.000000000000000  -1.376854742958454   0.000000000000000                
   11    5                                                                      
   13575.3496820000       2.224581435200000E-004  0.000000000000000E+000        
  0.000000000000000E+000  0.000000000000000E+000  0.000000000000000E+000        
   2035.23336800000       1.723273825200000E-003  0.000000000000000E+000        
  0.000000000000000E+000  0.000000000000000E+000  0.000000000000000E+000        
   463.225623590000       8.925571531400001E-003  0.000000000000000E+000        
  0.000000000000000E+000  0.000000000000000E+000  0.000000000000000E+000        
   131.200195980000       3.572798450200000E-002  0.000000000000000E+000        
  0.000000000000000E+000  0.000000000000000E+000  0.000000000000000E+000        
   42.8530158910000       0.110762599310000       0.000000000000000E+000        
  0.000000000000000E+000  0.000000000000000E+000  0.000000000000000E+000        
   15.5841857660000       0.242956276260000       0.000000000000000E+000        
  0.000000000000000E+000  0.000000000000000E+000  0.000000000000000E+000        
   6.20671385080000       0.000000000000000E+000  0.414402634480000             
  0.000000000000000E+000  0.000000000000000E+000  0.000000000000000E+000        
   2.57648965270000       0.000000000000000E+000  0.237449686550000             
  0.000000000000000E+000  0.000000000000000E+000  0.000000000000000E+000        
  0.576963394190000       0.000000000000000E+000  0.000000000000000E+000        
   1.00000000000000       0.000000000000000E+000  0.000000000000000E+000        
  0.229728313580000       0.000000000000000E+000  0.000000000000000E+000        
  0.000000000000000E+000   1.00000000000000       0.000000000000000E+000        
  9.516444002799999E-002  0.000000000000000E+000  0.000000000000000E+000        
  0.000000000000000E+000  0.000000000000000E+000   1.00000000000000             
    6    3                                                                      
   34.6972322440000       5.333365780500000E-003  0.000000000000000E+000        
  0.000000000000000E+000                                                        
   7.95826228260000       3.586410909200000E-002  0.000000000000000E+000        
  0.000000000000000E+000                                                        
   2.37808268830000       0.142158733290000       0.000000000000000E+000        
  0.000000000000000E+000                                                        
  0.814332081830000       0.342704718450000       0.000000000000000E+000        
  0.000000000000000E+000                                                        
  0.288875472530000       0.000000000000000E+000  0.464458224330000             
  0.000000000000000E+000                                                        
  0.100568236710000       0.000000000000000E+000  0.000000000000000E+000        
  0.249557898740000                                                             
    2    2                                                                      
   1.09700000000000        1.00000000000000       0.000000000000000E+000        
  0.318000000000000       0.000000000000000E+000   1.00000000000000             
    1    1                                                                      
  0.761000000000000        1.00000000000000                                     
FINISH                                                                          
 
********************************************************************************
 One- and two-electron integrals over symmetry-adapted AOs are calculated.

  Spherical harmonics are used.
  
   2 types of atoms
   3 symmetry operations

   Reflection in the YZ-plane
   Reflection in the XZ-plane
   Reflection in the XY-plane
  
  Integrals less than  0.10E-13 are neglected.

  Atomic type number  1 :
  -----------------------

    Nuclear charge:                        6
    number of symmetry independent atoms:  1
    highest orbital type:                  f

      1 groups of CGTOs of s type
      1 groups of CGTOs of p type
      1 groups of CGTOs of d type
      1 groups of CGTOs of f type

    nuclear coordinates (in a.u.) are :

    C #1        2.314348069861678        0.000000000000000        0.000000000000000
  
   Basis function not normalized: 
   Center (as ordered in MOL file):   1
   Angular Momentum type          : s
   Offset within angular momentum :  1
   <chi|chi>                      :    2.7261534527
   Basis function not normalized: 
   Center (as ordered in MOL file):   1
   Angular Momentum type          : s
   Offset within angular momentum :  2
   <chi|chi>                      :    1.5828883092
   Basis function not normalized: 
   Center (as ordered in MOL file):   1
   Angular Momentum type          : p
   Offset within angular momentum :  1
   <chi|chi>                      :    2.1238408295
   Basis function not normalized: 
   Center (as ordered in MOL file):   1
   Angular Momentum type          : p
   Offset within angular momentum :  2
   <chi|chi>                      :    2.1530461678
   Basis function not normalized: 
   Center (as ordered in MOL file):   1
   Angular Momentum type          : p
   Offset within angular momentum :  3
   <chi|chi>                      :    4.0070861513
  Atomic type number  2 :
  -----------------------

    Nuclear charge:                        6
    number of symmetry independent atoms:  1
    highest orbital type:                  f

      1 groups of CGTOs of s type
      1 groups of CGTOs of p type
      1 groups of CGTOs of d type
      1 groups of CGTOs of f type

    nuclear coordinates (in a.u.) are :

    C #2        0.000000000000000       -1.376854742958454        0.000000000000000
  
   Basis function not normalized: 
   Center (as ordered in MOL file):   2
   Angular Momentum type          : s
   Offset within angular momentum :  1
   <chi|chi>                      :    2.7261534527
   Basis function not normalized: 
   Center (as ordered in MOL file):   2
   Angular Momentum type          : s
   Offset within angular momentum :  2
   <chi|chi>                      :    1.5828883092
   Basis function not normalized: 
   Center (as ordered in MOL file):   2
   Angular Momentum type          : p
   Offset within angular momentum :  1
   <chi|chi>                      :    2.1238408295
   Basis function not normalized: 
   Center (as ordered in MOL file):   2
   Angular Momentum type          : p
   Offset within angular momentum :  2
   <chi|chi>                      :    2.1530461678
   Basis function not normalized: 
   Center (as ordered in MOL file):   2
   Angular Momentum type          : p
   Offset within angular momentum :  3
   <chi|chi>                      :    4.0070861513
   Internuclear distances (A) :

     for atom C #1 (coordinates :   2.31435   0.00000   0.00000)

     C #1   2     distance is  2.449
     C #2   1     distance is  1.425

     for atom C #2 (coordinates :   0.00000  -1.37685   0.00000)

     C #2   3     distance is  1.457

   Group multiplication table :

         1   2   3   4   5   6   7   8
         2   1   4   3   6   5   8   7
         3   4   1   2   7   8   5   6
         4   3   2   1   8   7   6   5
         5   6   7   8   1   2   3   4
         6   5   8   7   2   1   4   3
         7   8   5   6   3   4   1   2
         8   7   6   5   4   3   2   1

   Gaussian basis information :

   atom                 exponent      coefficients

 C #1  1    S   
+                 1   13575.349682   0.0002225   0.0000000   0.0000000   0.0000000   0.0000000
                  2    2035.233368   0.0017233   0.0000000   0.0000000   0.0000000   0.0000000
                  3     463.225624   0.0089256   0.0000000   0.0000000   0.0000000   0.0000000
                  4     131.200196   0.0357280   0.0000000   0.0000000   0.0000000   0.0000000
                  5      42.853016   0.1107626   0.0000000   0.0000000   0.0000000   0.0000000
                  6      15.584186   0.2429563   0.0000000   0.0000000   0.0000000   0.0000000
                  7       6.206714   0.0000000   0.4144026   0.0000000   0.0000000   0.0000000
                  8       2.576490   0.0000000   0.2374497   0.0000000   0.0000000   0.0000000
                  9       0.576963   0.0000000   0.0000000   1.0000000   0.0000000   0.0000000
                 10       0.229728   0.0000000   0.0000000   0.0000000   1.0000000   0.0000000
                 11       0.095164   0.0000000   0.0000000   0.0000000   0.0000000   1.0000000

 C #1  2    S   
+                12   13575.349682   0.0002225   0.0000000   0.0000000   0.0000000   0.0000000
                 13    2035.233368   0.0017233   0.0000000   0.0000000   0.0000000   0.0000000
                 14     463.225624   0.0089256   0.0000000   0.0000000   0.0000000   0.0000000
                 15     131.200196   0.0357280   0.0000000   0.0000000   0.0000000   0.0000000
                 16      42.853016   0.1107626   0.0000000   0.0000000   0.0000000   0.0000000
                 17      15.584186   0.2429563   0.0000000   0.0000000   0.0000000   0.0000000
                 18       6.206714   0.0000000   0.4144026   0.0000000   0.0000000   0.0000000
                 19       2.576490   0.0000000   0.2374497   0.0000000   0.0000000   0.0000000
                 20       0.576963   0.0000000   0.0000000   1.0000000   0.0000000   0.0000000
                 21       0.229728   0.0000000   0.0000000   0.0000000   1.0000000   0.0000000
                 22       0.095164   0.0000000   0.0000000   0.0000000   0.0000000   1.0000000

 C #1  1    X   
+                23      34.697232   0.0053334   0.0000000   0.0000000
                 24       7.958262   0.0358641   0.0000000   0.0000000
                 25       2.378083   0.1421587   0.0000000   0.0000000
                 26       0.814332   0.3427047   0.0000000   0.0000000
                 27       0.288875   0.0000000   0.4644582   0.0000000
                 28       0.100568   0.0000000   0.0000000   0.2495579

 C #1  2    X   
+                29      34.697232   0.0053334   0.0000000   0.0000000
                 30       7.958262   0.0358641   0.0000000   0.0000000
                 31       2.378083   0.1421587   0.0000000   0.0000000
                 32       0.814332   0.3427047   0.0000000   0.0000000
                 33       0.288875   0.0000000   0.4644582   0.0000000
                 34       0.100568   0.0000000   0.0000000   0.2495579

 C #1  1    Y   
+                35      34.697232   0.0053334   0.0000000   0.0000000
                 36       7.958262   0.0358641   0.0000000   0.0000000
                 37       2.378083   0.1421587   0.0000000   0.0000000
                 38       0.814332   0.3427047   0.0000000   0.0000000
                 39       0.288875   0.0000000   0.4644582   0.0000000
                 40       0.100568   0.0000000   0.0000000   0.2495579

 C #1  2    Y   
+                41      34.697232   0.0053334   0.0000000   0.0000000
                 42       7.958262   0.0358641   0.0000000   0.0000000
                 43       2.378083   0.1421587   0.0000000   0.0000000
                 44       0.814332   0.3427047   0.0000000   0.0000000
                 45       0.288875   0.0000000   0.4644582   0.0000000
                 46       0.100568   0.0000000   0.0000000   0.2495579

 C #1  1    Z   
+                47      34.697232   0.0053334   0.0000000   0.0000000
                 48       7.958262   0.0358641   0.0000000   0.0000000
                 49       2.378083   0.1421587   0.0000000   0.0000000
                 50       0.814332   0.3427047   0.0000000   0.0000000
                 51       0.288875   0.0000000   0.4644582   0.0000000
                 52       0.100568   0.0000000   0.0000000   0.2495579

 C #1  2    Z   
+                53      34.697232   0.0053334   0.0000000   0.0000000
                 54       7.958262   0.0358641   0.0000000   0.0000000
                 55       2.378083   0.1421587   0.0000000   0.0000000
                 56       0.814332   0.3427047   0.0000000   0.0000000
                 57       0.288875   0.0000000   0.4644582   0.0000000
                 58       0.100568   0.0000000   0.0000000   0.2495579

 C #1  1    XX  
+                59       1.097000   1.0000000   0.0000000
                 60       0.318000   0.0000000   1.0000000

 C #1  2    XX  
+                61       1.097000   1.0000000   0.0000000
                 62       0.318000   0.0000000   1.0000000

 C #1  1    XY  
+                63       1.097000   1.0000000   0.0000000
                 64       0.318000   0.0000000   1.0000000

 C #1  2    XY  
+                65       1.097000   1.0000000   0.0000000
                 66       0.318000   0.0000000   1.0000000

 C #1  1    XZ  
+                67       1.097000   1.0000000   0.0000000
                 68       0.318000   0.0000000   1.0000000

 C #1  2    XZ  
+                69       1.097000   1.0000000   0.0000000
                 70       0.318000   0.0000000   1.0000000

 C #1  1    YY  
+                71       1.097000   1.0000000   0.0000000
                 72       0.318000   0.0000000   1.0000000

 C #1  2    YY  
+                73       1.097000   1.0000000   0.0000000
                 74       0.318000   0.0000000   1.0000000

 C #1  1    YZ  
+                75       1.097000   1.0000000   0.0000000
                 76       0.318000   0.0000000   1.0000000

 C #1  2    YZ  
+                77       1.097000   1.0000000   0.0000000
                 78       0.318000   0.0000000   1.0000000

 C #1  1    ZZ  
+                79       1.097000   1.0000000   0.0000000
                 80       0.318000   0.0000000   1.0000000

 C #1  2    ZZ  
+                81       1.097000   1.0000000   0.0000000
                 82       0.318000   0.0000000   1.0000000

 C #1  1    F300
+                83       0.761000   1.0000000

 C #1  2    F300
+                84       0.761000   1.0000000

 C #1  1    F210
+                85       0.761000   1.0000000

 C #1  2    F210
+                86       0.761000   1.0000000

 C #1  1    F201
+                87       0.761000   1.0000000

 C #1  2    F201
+                88       0.761000   1.0000000

 C #1  1    F120
+                89       0.761000   1.0000000

 C #1  2    F120
+                90       0.761000   1.0000000

 C #1  1    F111
+                91       0.761000   1.0000000

 C #1  2    F111
+                92       0.761000   1.0000000

 C #1  1    F102
+                93       0.761000   1.0000000

 C #1  2    F102
+                94       0.761000   1.0000000

 C #1  1    F030
+                95       0.761000   1.0000000

 C #1  2    F030
+                96       0.761000   1.0000000

 C #1  1    F021
+                97       0.761000   1.0000000

 C #1  2    F021
+                98       0.761000   1.0000000

 C #1  1    F012
+                99       0.761000   1.0000000

 C #1  2    F012
+               100       0.761000   1.0000000

 C #1  1    F003
+               101       0.761000   1.0000000

 C #1  2    F003
+               102       0.761000   1.0000000

 C #2  1    S   
+               103   13575.349682   0.0002225   0.0000000   0.0000000   0.0000000   0.0000000
                104    2035.233368   0.0017233   0.0000000   0.0000000   0.0000000   0.0000000
                105     463.225624   0.0089256   0.0000000   0.0000000   0.0000000   0.0000000
                106     131.200196   0.0357280   0.0000000   0.0000000   0.0000000   0.0000000
                107      42.853016   0.1107626   0.0000000   0.0000000   0.0000000   0.0000000
                108      15.584186   0.2429563   0.0000000   0.0000000   0.0000000   0.0000000
                109       6.206714   0.0000000   0.4144026   0.0000000   0.0000000   0.0000000
                110       2.576490   0.0000000   0.2374497   0.0000000   0.0000000   0.0000000
                111       0.576963   0.0000000   0.0000000   1.0000000   0.0000000   0.0000000
                112       0.229728   0.0000000   0.0000000   0.0000000   1.0000000   0.0000000
                113       0.095164   0.0000000   0.0000000   0.0000000   0.0000000   1.0000000

 C #2  3    S   
+               114   13575.349682   0.0002225   0.0000000   0.0000000   0.0000000   0.0000000
                115    2035.233368   0.0017233   0.0000000   0.0000000   0.0000000   0.0000000
                116     463.225624   0.0089256   0.0000000   0.0000000   0.0000000   0.0000000
                117     131.200196   0.0357280   0.0000000   0.0000000   0.0000000   0.0000000
                118      42.853016   0.1107626   0.0000000   0.0000000   0.0000000   0.0000000
                119      15.584186   0.2429563   0.0000000   0.0000000   0.0000000   0.0000000
                120       6.206714   0.0000000   0.4144026   0.0000000   0.0000000   0.0000000
                121       2.576490   0.0000000   0.2374497   0.0000000   0.0000000   0.0000000
                122       0.576963   0.0000000   0.0000000   1.0000000   0.0000000   0.0000000
                123       0.229728   0.0000000   0.0000000   0.0000000   1.0000000   0.0000000
                124       0.095164   0.0000000   0.0000000   0.0000000   0.0000000   1.0000000

 C #2  1    X   
+               125      34.697232   0.0053334   0.0000000   0.0000000
                126       7.958262   0.0358641   0.0000000   0.0000000
                127       2.378083   0.1421587   0.0000000   0.0000000
                128       0.814332   0.3427047   0.0000000   0.0000000
                129       0.288875   0.0000000   0.4644582   0.0000000
                130       0.100568   0.0000000   0.0000000   0.2495579

 C #2  3    X   
+               131      34.697232   0.0053334   0.0000000   0.0000000
                132       7.958262   0.0358641   0.0000000   0.0000000
                133       2.378083   0.1421587   0.0000000   0.0000000
                134       0.814332   0.3427047   0.0000000   0.0000000
                135       0.288875   0.0000000   0.4644582   0.0000000
                136       0.100568   0.0000000   0.0000000   0.2495579

 C #2  1    Y   
+               137      34.697232   0.0053334   0.0000000   0.0000000
                138       7.958262   0.0358641   0.0000000   0.0000000
                139       2.378083   0.1421587   0.0000000   0.0000000
                140       0.814332   0.3427047   0.0000000   0.0000000
                141       0.288875   0.0000000   0.4644582   0.0000000
                142       0.100568   0.0000000   0.0000000   0.2495579

 C #2  3    Y   
+               143      34.697232   0.0053334   0.0000000   0.0000000
                144       7.958262   0.0358641   0.0000000   0.0000000
                145       2.378083   0.1421587   0.0000000   0.0000000
                146       0.814332   0.3427047   0.0000000   0.0000000
                147       0.288875   0.0000000   0.4644582   0.0000000
                148       0.100568   0.0000000   0.0000000   0.2495579

 C #2  1    Z   
+               149      34.697232   0.0053334   0.0000000   0.0000000
                150       7.958262   0.0358641   0.0000000   0.0000000
                151       2.378083   0.1421587   0.0000000   0.0000000
                152       0.814332   0.3427047   0.0000000   0.0000000
                153       0.288875   0.0000000   0.4644582   0.0000000
                154       0.100568   0.0000000   0.0000000   0.2495579

 C #2  3    Z   
+               155      34.697232   0.0053334   0.0000000   0.0000000
                156       7.958262   0.0358641   0.0000000   0.0000000
                157       2.378083   0.1421587   0.0000000   0.0000000
                158       0.814332   0.3427047   0.0000000   0.0000000
                159       0.288875   0.0000000   0.4644582   0.0000000
                160       0.100568   0.0000000   0.0000000   0.2495579

 C #2  1    XX  
+               161       1.097000   1.0000000   0.0000000
                162       0.318000   0.0000000   1.0000000

 C #2  3    XX  
+               163       1.097000   1.0000000   0.0000000
                164       0.318000   0.0000000   1.0000000

 C #2  1    XY  
+               165       1.097000   1.0000000   0.0000000
                166       0.318000   0.0000000   1.0000000

 C #2  3    XY  
+               167       1.097000   1.0000000   0.0000000
                168       0.318000   0.0000000   1.0000000

 C #2  1    XZ  
+               169       1.097000   1.0000000   0.0000000
                170       0.318000   0.0000000   1.0000000

 C #2  3    XZ  
+               171       1.097000   1.0000000   0.0000000
                172       0.318000   0.0000000   1.0000000

 C #2  1    YY  
+               173       1.097000   1.0000000   0.0000000
                174       0.318000   0.0000000   1.0000000

 C #2  3    YY  
+               175       1.097000   1.0000000   0.0000000
                176       0.318000   0.0000000   1.0000000

 C #2  1    YZ  
+               177       1.097000   1.0000000   0.0000000
                178       0.318000   0.0000000   1.0000000

 C #2  3    YZ  
+               179       1.097000   1.0000000   0.0000000
                180       0.318000   0.0000000   1.0000000

 C #2  1    ZZ  
+               181       1.097000   1.0000000   0.0000000
                182       0.318000   0.0000000   1.0000000

 C #2  3    ZZ  
+               183       1.097000   1.0000000   0.0000000
                184       0.318000   0.0000000   1.0000000

 C #2  1    F300
+               185       0.761000   1.0000000

 C #2  3    F300
+               186       0.761000   1.0000000

 C #2  1    F210
+               187       0.761000   1.0000000

 C #2  3    F210
+               188       0.761000   1.0000000

 C #2  1    F201
+               189       0.761000   1.0000000

 C #2  3    F201
+               190       0.761000   1.0000000

 C #2  1    F120
+               191       0.761000   1.0000000

 C #2  3    F120
+               192       0.761000   1.0000000

 C #2  1    F111
+               193       0.761000   1.0000000

 C #2  3    F111
+               194       0.761000   1.0000000

 C #2  1    F102
+               195       0.761000   1.0000000

 C #2  3    F102
+               196       0.761000   1.0000000

 C #2  1    F030
+               197       0.761000   1.0000000

 C #2  3    F030
+               198       0.761000   1.0000000

 C #2  1    F021
+               199       0.761000   1.0000000

 C #2  3    F021
+               200       0.761000   1.0000000

 C #2  1    F012
+               201       0.761000   1.0000000

 C #2  3    F012
+               202       0.761000   1.0000000

 C #2  1    F003
+               203       0.761000   1.0000000

 C #2  3    F003
+               204       0.761000   1.0000000
144124
  1  2  3  4  5  6  7  8  9 10 11 12****** 13 14*** 15 16 17 18 19 20 21 22
 23 24 25 26****** 27 28*** 29 30 31 32 33 34 35 36 37 38 39 40****** 41 42
*** 43 44 45 46 47 48 49*** 50 51 52 53 54 55 56*** 57 58 59 60 61 62 63 64
 65 66 67 68****** 69 70*** 71 72 73 74 75 76 77*** 78 79 80 81 82 83 84***
 85 86 87 88 89 90 91*** 92 93 94 95 96 97 98*** 99100101102103104105***106
107108109110111112113114115116117118***119120121122123124
1

             SYMMETRY TRANSFORMATION INFO
            124 SYMMETRY ADAPTED BASIS FUNCTIONS 


          irreducible representation number 1

    1    1  C #1     1s     2   1   1.0   2   1.0
    2    2  C #1     1s     2   3   1.0   4   1.0
    3    3  C #1     1s     2   5   1.0   6   1.0
    4    4  C #1     1s     2   7   1.0   8   1.0
    5    5  C #1     1s     2   9   1.0  10   1.0
    6    6  C #1     2px    2  11   1.0  12  -1.0
    7    7  C #1     2px    2  13   1.0  14  -1.0
    8    8  C #1     2px    2  15   1.0  16  -1.0
    9    9  C #1     3d2-   6  29  -1.0  41  -1.0  49   2.0  30  -1.0  42  -1.0  50   2.0
   10   10  C #1     3d2-   6  31  -1.0  43  -1.0  51   2.0  32  -1.0  44  -1.0  52   2.0
   11   11  C #1     3d1+   4  29   1.0  41  -1.0  30   1.0  42  -1.0
   12   12  C #1     3d1+   4  31   1.0  43  -1.0  32   1.0  44  -1.0
   13   13  C #1     4f3-   6  53  -1.0  59  -1.0  63   4.0  54   1.0  60   1.0  64  -4.0
   14   14  C #1     4f0    4  53   1.0  59  -3.0  54  -1.0  60   3.0
   15   15  C #2     1s     2  73   1.0  74   1.0
   16   16  C #2     1s     2  75   1.0  76   1.0
   17   17  C #2     1s     2  77   1.0  78   1.0
   18   18  C #2     1s     2  79   1.0  80   1.0
   19   19  C #2     1s     2  81   1.0  82   1.0
   20   20  C #2     2py    2  89   1.0  90  -1.0
   21   21  C #2     2py    2  91   1.0  92  -1.0
   22   22  C #2     2py    2  93   1.0  94  -1.0
   23   23  C #2     3d2-   6 101  -1.0 113  -1.0 121   2.0 102  -1.0 114  -1.0 122   2.0
   24   24  C #2     3d2-   6 103  -1.0 115  -1.0 123   2.0 104  -1.0 116  -1.0 124   2.0
   25   25  C #2     3d1+   4 101   1.0 113  -1.0 102   1.0 114  -1.0
   26   26  C #2     3d1+   4 103   1.0 115  -1.0 104   1.0 116  -1.0
   27   27  C #2     4f2-   6 127  -1.0 137  -1.0 141   4.0 128   1.0 138   1.0 142  -4.0
   28   28  C #2     4f2+   4 127   3.0 137  -1.0 128  -3.0 138   1.0


          irreducible representation number 2

   29    1  C #1     1s     2   1   1.0   2  -1.0
   30    2  C #1     1s     2   3   1.0   4  -1.0
   31    3  C #1     1s     2   5   1.0   6  -1.0
   32    4  C #1     1s     2   7   1.0   8  -1.0
   33    5  C #1     1s     2   9   1.0  10  -1.0
   34    6  C #1     2px    2  11   1.0  12   1.0
   35    7  C #1     2px    2  13   1.0  14   1.0
   36    8  C #1     2px    2  15   1.0  16   1.0
   37    9  C #1     3d2-   6  29  -1.0  41  -1.0  49   2.0  30   1.0  42   1.0  50  -2.0
   38   10  C #1     3d2-   6  31  -1.0  43  -1.0  51   2.0  32   1.0  44   1.0  52  -2.0
   39   11  C #1     3d1+   4  29   1.0  41  -1.0  30  -1.0  42   1.0
   40   12  C #1     3d1+   4  31   1.0  43  -1.0  32  -1.0  44   1.0
   41   13  C #1     4f3-   6  53  -1.0  59  -1.0  63   4.0  54  -1.0  60  -1.0  64   4.0
   42   14  C #1     4f0    4  53   1.0  59  -3.0  54   1.0  60  -3.0
   43   15  C #2     2px    2  83   1.0  84   1.0
   44   16  C #2     2px    2  85   1.0  86   1.0
   45   17  C #2     2px    2  87   1.0  88   1.0
   46   18  C #2     3d1-   2 105   1.0 106  -1.0
   47   19  C #2     3d1-   2 107   1.0 108  -1.0
   48   20  C #2     4f3-   6 125  -1.0 131  -1.0 135   4.0 126  -1.0 132  -1.0 136   4.0
   49   21  C #2     4f0    4 125   1.0 131  -3.0 126   1.0 132  -3.0


          irreducible representation number 3

   50    1  C #1     2py    2  17   1.0  18   1.0
   51    2  C #1     2py    2  19   1.0  20   1.0
   52    3  C #1     2py    2  21   1.0  22   1.0
   53    4  C #1     3d1-   2  33   1.0  34  -1.0
   54    5  C #1     3d1-   2  35   1.0  36  -1.0
   55    6  C #1     4f2-   6  55  -1.0  65  -1.0  69   4.0  56  -1.0  66  -1.0  70   4.0
   56    7  C #1     4f2+   4  55   3.0  65  -1.0  56   3.0  66  -1.0
   57    8  C #2     1s     2  73   1.0  74  -1.0
   58    9  C #2     1s     2  75   1.0  76  -1.0
   59   10  C #2     1s     2  77   1.0  78  -1.0
   60   11  C #2     1s     2  79   1.0  80  -1.0
   61   12  C #2     1s     2  81   1.0  82  -1.0
   62   13  C #2     2py    2  89   1.0  90   1.0
   63   14  C #2     2py    2  91   1.0  92   1.0
   64   15  C #2     2py    2  93   1.0  94   1.0
   65   16  C #2     3d2-   6 101  -1.0 113  -1.0 121   2.0 102   1.0 114   1.0 122  -2.0
   66   17  C #2     3d2-   6 103  -1.0 115  -1.0 123   2.0 104   1.0 116   1.0 124  -2.0
   67   18  C #2     3d1+   4 101   1.0 113  -1.0 102  -1.0 114   1.0
   68   19  C #2     3d1+   4 103   1.0 115  -1.0 104  -1.0 116   1.0
   69   20  C #2     4f2-   6 127  -1.0 137  -1.0 141   4.0 128  -1.0 138  -1.0 142   4.0
   70   21  C #2     4f2+   4 127   3.0 137  -1.0 128   3.0 138  -1.0


          irreducible representation number 4

   71    1  C #1     2py    2  17   1.0  18  -1.0
   72    2  C #1     2py    2  19   1.0  20  -1.0
   73    3  C #1     2py    2  21   1.0  22  -1.0
   74    4  C #1     3d1-   2  33   1.0  34   1.0
   75    5  C #1     3d1-   2  35   1.0  36   1.0
   76    6  C #1     4f2-   6  55  -1.0  65  -1.0  69   4.0  56   1.0  66   1.0  70  -4.0
   77    7  C #1     4f2+   4  55   3.0  65  -1.0  56  -3.0  66   1.0
   78    8  C #2     2px    2  83   1.0  84  -1.0
   79    9  C #2     2px    2  85   1.0  86  -1.0
   80   10  C #2     2px    2  87   1.0  88  -1.0
   81   11  C #2     3d1-   2 105   1.0 106   1.0
   82   12  C #2     3d1-   2 107   1.0 108   1.0
   83   13  C #2     4f3-   6 125  -1.0 131  -1.0 135   4.0 126   1.0 132   1.0 136  -4.0
   84   14  C #2     4f0    4 125   1.0 131  -3.0 126  -1.0 132   3.0


          irreducible representation number 5

   85    1  C #1     2pz    2  23   1.0  24   1.0
   86    2  C #1     2pz    2  25   1.0  26   1.0
   87    3  C #1     2pz    2  27   1.0  28   1.0
   88    4  C #1     3d0    2  37   1.0  38  -1.0
   89    5  C #1     3d0    2  39   1.0  40  -1.0
   90    6  C #1     4f1-   6  57  -3.0  67  -3.0  71   2.0  58  -3.0  68  -3.0  72   2.0
   91    7  C #1     4f3+   4  57   1.0  67  -1.0  58   1.0  68  -1.0
   92    8  C #2     2pz    2  95   1.0  96   1.0
   93    9  C #2     2pz    2  97   1.0  98   1.0
   94   10  C #2     2pz    2  99   1.0 100   1.0
   95   11  C #2     3d2+   2 117   1.0 118  -1.0
   96   12  C #2     3d2+   2 119   1.0 120  -1.0
   97   13  C #2     4f1-   6 129  -3.0 139  -3.0 143   2.0 130  -3.0 140  -3.0 144   2.0
   98   14  C #2     4f3+   4 129   1.0 139  -1.0 130   1.0 140  -1.0


          irreducible representation number 6

   99    1  C #1     2pz    2  23   1.0  24  -1.0
  100    2  C #1     2pz    2  25   1.0  26  -1.0
  101    3  C #1     2pz    2  27   1.0  28  -1.0
  102    4  C #1     3d0    2  37   1.0  38   1.0
  103    5  C #1     3d0    2  39   1.0  40   1.0
  104    6  C #1     4f1-   6  57  -3.0  67  -3.0  71   2.0  58   3.0  68   3.0  72  -2.0
  105    7  C #1     4f3+   4  57   1.0  67  -1.0  58  -1.0  68   1.0
  106    8  C #2     3d0    2 109   1.0 110   1.0
  107    9  C #2     3d0    2 111   1.0 112   1.0
  108   10  C #2     4f1+   2 133   1.0 134  -1.0


          irreducible representation number 7

  109    1  C #1     3d2+   2  45   1.0  46   1.0
  110    2  C #1     3d2+   2  47   1.0  48   1.0
  111    3  C #1     4f1+   2  61   1.0  62  -1.0
  112    4  C #2     2pz    2  95   1.0  96  -1.0
  113    5  C #2     2pz    2  97   1.0  98  -1.0
  114    6  C #2     2pz    2  99   1.0 100  -1.0
  115    7  C #2     3d2+   2 117   1.0 118   1.0
  116    8  C #2     3d2+   2 119   1.0 120   1.0
  117    9  C #2     4f1-   6 129  -3.0 139  -3.0 143   2.0 130   3.0 140   3.0 144  -2.0
  118   10  C #2     4f3+   4 129   1.0 139  -1.0 130  -1.0 140   1.0


          irreducible representation number 8

  119    1  C #1     3d2+   2  45   1.0  46  -1.0
  120    2  C #1     3d2+   2  47   1.0  48  -1.0
  121    3  C #1     4f1+   2  61   1.0  62   1.0
  122    4  C #2     3d0    2 109   1.0 110  -1.0
  123    5  C #2     3d0    2 111   1.0 112  -1.0
  124    6  C #2     4f1+   2 133   1.0 134   1.0
  Nuclear repulsion energy :   74.3239611126 a.u.
  required memory for a1 array                5112368  words 
  required memory for a2 array                2103164  words 
 @GETMEM-I,  Allocated      70 MB of main memory.
  @MOLECU-I, One electron integrals (CPU/WALL):        0.05/       0.05 seconds.
  @TWOEL-I,     150245 integrals of symmetry type  I I I I
  @TWOEL-I,    1041817 integrals of symmetry type  I J I J
  @TWOEL-I,     579988 integrals of symmetry type  I I J J
  @TWOEL-I,    2060468 integrals of symmetry type  I J K L
  @TWOEL-I, Total number of 2-e integrals    3832518.
  @MOLECU-I, Two electron integrals (CPU/WALL):       21.49/       2.75 seconds.
  @CHECKOUT-I, Total execution time (CPU/WALL):       21.62/       3.03 seconds.
--executable xvmol finished with status     0 in        4.18 seconds (walltime).
 --invoking executable--
/home/nike/cfour/cfour_v2.00beta/bin/xvmol2ja
 @GETMEM-I,  Allocated  121116 MB of main memory.
  @CHECKOUT-I, Total execution time (CPU/WALL):        0.19/       0.04 seconds.
--executable xvmol2ja finished with status     0 in        0.14 seconds (walltime).
 --invoking executable--
/home/nike/cfour/cfour_v2.00beta/bin/xvscf
  There are  124 functions in the AO basis.

  There are 8 irreducible representations.

       Irrep        # of functions
         1                 28
         2                 21
         3                 21
         4                 14
         5                 14
         6                 10
         7                 10
         8                  6


  Parameters for SCF calculation: 
        SCF reference function: ROHF  
  Maximum number of iterations: 9999
     Full symmetry point group: D2h 
     Computational point group: D2h 
        Initial density matrix: CORE                   
     SCF convergence tolerance: 10**(-12)
  DIIS convergence acceleration:  ON
          Latest start for DIIS:   5
                     DIIS order:   6

  Memory information:     704922 words required.
  Fock matrices are constructed from AO integral file.
 @GETMEM-I,  Allocated       5 MB of main memory.
  Initialization and symmetry analysis required      0.003 seconds.

  @INITGES-I, Occupancies from core Hamiltonian:

          Alpha population by irrep:   4    3    2    1    1    0    1    0
           Beta population by irrep:   4    2    2    1    1    0    1    0


 total no. of electrons in initial guess :  0.000000000000000E+000
 total no. of electrons in initial guess :  0.000000000000000E+000
  --------------------------------------------------------------------
  Iteration         Total Energy            Largest Density Difference
  --------------------------------------------------------------------
       0            74.323961112554130              0.0000000000D+00
   current occupation vector 
     4  3  2  1  1  0  1  0
     4  2  2  1  1  0  1  0
  processed                 150245  ao basis integrals from 
                   251  buffers.
  processed                 579988  ao basis integrals from 
                   967  buffers.
  processed                1041817  ao basis integrals from 
                  1737  buffers.
       1          -130.731625230254394              0.2212287238D+01
   current occupation vector 
     4  3  2  1  1  0  1  0
     4  2  2  1  1  0  1  0
  processed                 150245  ao basis integrals from 
                   251  buffers.
  processed                 579988  ao basis integrals from 
                   967  buffers.
  processed                1041817  ao basis integrals from 
                  1737  buffers.
       2          -135.989609628662265              0.1820796641D+02
   current occupation vector 
     4  3  2  1  1  1  0  0
     4  2  2  1  1  1  0  0
  processed                 150245  ao basis integrals from 
                   251  buffers.
  processed                 579988  ao basis integrals from 
                   967  buffers.
  processed                1041817  ao basis integrals from 
                  1737  buffers.
       3          -140.290671231654699              0.1828882657D+02
   current occupation vector 
     4  2  3  1  1  0  1  0
     4  2  2  1  1  0  1  0
  processed                 150245  ao basis integrals from 
                   251  buffers.
  processed                 579988  ao basis integrals from 
                   967  buffers.
  processed                1041817  ao basis integrals from 
                  1737  buffers.
       4          -142.433699807120433              0.5134978956D+00
   current occupation vector 
     4  3  2  1  1  1  0  0
     4  2  2  1  1  1  0  0
 
 sum over diagonal and offdiagdiagonal of C(T)*S*C for irrep
                     1
  2.473132809654999E-012 -1.036016239601500E-013
 reorthoganalization of MOs is carried out
 sum over diagonal and offdiagdiagonal of C(T)*S*C for irrep
                     1
 -1.287858708565182E-014 -1.284405582760981E-012
 
 sum over diagonal and offdiagdiagonal of C(T)*S*C for irrep
                     2
  6.927791673660977E-014 -2.093417146343626E-013
 reorthoganalization of MOs is carried out
 sum over diagonal and offdiagdiagonal of C(T)*S*C for irrep
                     2
  1.373345881461319E-013 -1.852205422189717E-013
 
 sum over diagonal and offdiagdiagonal of C(T)*S*C for irrep
                     3
 -2.691180611691379E-013  3.991760205243452E-013
 reorthoganalization of MOs is carried out
 sum over diagonal and offdiagdiagonal of C(T)*S*C for irrep
                     3
  1.246780456654051E-013 -1.700751206257860E-013
 
 sum over diagonal and offdiagdiagonal of C(T)*S*C for irrep
                     4
 -3.341771304121721E-013  6.185911682697131E-014
 reorthoganalization of MOs is carried out
 sum over diagonal and offdiagdiagonal of C(T)*S*C for irrep
                     4
 -3.108624468950438E-015 -3.002836410534511E-014
 
 sum over diagonal and offdiagdiagonal of C(T)*S*C for irrep
                     5
  6.084022174945858E-014  1.085879122130629E-013
 reorthoganalization of MOs is carried out
 sum over diagonal and offdiagdiagonal of C(T)*S*C for irrep
                     5
  1.554312234475219E-015 -1.919771715852434E-015
 
 sum over diagonal and offdiagdiagonal of C(T)*S*C for irrep
                     6
 -1.876276911616515E-014 -1.285589903487328E-013
 reorthoganalization of MOs is carried out
 sum over diagonal and offdiagdiagonal of C(T)*S*C for irrep
                     6
 -1.110223024625157E-016  5.206658520049254E-015
 
 sum over diagonal and offdiagdiagonal of C(T)*S*C for irrep
                     7
 -3.197442310920451E-014 -8.524742559283699E-015
 reorthoganalization of MOs is carried out
 sum over diagonal and offdiagdiagonal of C(T)*S*C for irrep
                     7
  4.440892098500626E-016  2.424428373624246E-017
 
 sum over diagonal and offdiagdiagonal of C(T)*S*C for irrep
                     8
  1.176836406102666E-014  2.067790383364354E-015
 reorthoganalization of MOs is carried out
 sum over diagonal and offdiagdiagonal of C(T)*S*C for irrep
                     8
  2.220446049250313E-016  1.915134717478395E-015
  processed                 150245  ao basis integrals from 
                   251  buffers.
  processed                 579988  ao basis integrals from 
                   967  buffers.
  processed                1041817  ao basis integrals from 
                  1737  buffers.
       5          -142.769048194545178              0.4630921200D+00
   current occupation vector 
     4  2  3  1  1  0  1  0
     4  2  2  1  1  0  1  0
  processed                 150245  ao basis integrals from 
                   251  buffers.
  processed                 579988  ao basis integrals from 
                   967  buffers.
  processed                1041817  ao basis integrals from 
                  1737  buffers.
       6          -150.532829156625326              0.4188517187D+00
   current occupation vector 
     5  2  2  1  1  1  0  0
     5  2  2  1  1  0  0  0
  processed                 150245  ao basis integrals from 
                   251  buffers.
  processed                 579988  ao basis integrals from 
                   967  buffers.
  processed                1041817  ao basis integrals from 
                  1737  buffers.
       7          -150.622130065659974              0.8886983757D-01
   current occupation vector 
     5  2  2  1  1  1  0  0
     5  2  2  1  1  0  0  0
  processed                 150245  ao basis integrals from 
                   251  buffers.
  processed                 579988  ao basis integrals from 
                   967  buffers.
  processed                1041817  ao basis integrals from 
                  1737  buffers.
       8          -150.630372022301287              0.1088284517D-01
   current occupation vector 
     5  2  2  1  1  1  0  0
     5  2  2  1  1  0  0  0
  processed                 150245  ao basis integrals from 
                   251  buffers.
  processed                 579988  ao basis integrals from 
                   967  buffers.
  processed                1041817  ao basis integrals from 
                  1737  buffers.
       9          -150.630916365600626              0.3851395686D-02
   current occupation vector 
     5  2  2  1  1  1  0  0
     5  2  2  1  1  0  0  0
 
 sum over diagonal and offdiagdiagonal of C(T)*S*C for irrep
                     1
 -6.372680161348399E-014  5.337326128332263E-013
 reorthoganalization of MOs is carried out
 sum over diagonal and offdiagdiagonal of C(T)*S*C for irrep
                     1
 -1.983968545005155E-013  4.098715623054672E-013
 
 sum over diagonal and offdiagdiagonal of C(T)*S*C for irrep
                     2
  2.486899575160351E-014 -3.100116466374680E-015
 reorthoganalization of MOs is carried out
 sum over diagonal and offdiagdiagonal of C(T)*S*C for irrep
                     2
 -1.222355550112297E-013  1.118207957095126E-013
 
 sum over diagonal and offdiagdiagonal of C(T)*S*C for irrep
                     3
 -1.246780456654051E-013 -5.318884010187534E-014
 reorthoganalization of MOs is carried out
 sum over diagonal and offdiagdiagonal of C(T)*S*C for irrep
                     3
  4.019007349143067E-014 -1.397791012276002E-013
 
 sum over diagonal and offdiagdiagonal of C(T)*S*C for irrep
                     4
  1.154631945610163E-014  1.307171866728228E-014
 reorthoganalization of MOs is carried out
 sum over diagonal and offdiagdiagonal of C(T)*S*C for irrep
                     4
  3.552713678800501E-015 -1.307739128434955E-015
 
 sum over diagonal and offdiagdiagonal of C(T)*S*C for irrep
                     5
 -1.110223024625157E-016  1.297656502443074E-014
 reorthoganalization of MOs is carried out
 sum over diagonal and offdiagdiagonal of C(T)*S*C for irrep
                     5
  1.998401444325282E-015 -4.842139250977472E-015
 
 sum over diagonal and offdiagdiagonal of C(T)*S*C for irrep
                     6
  1.465494392505207E-014  2.033234320520707E-015
 reorthoganalization of MOs is carried out
 sum over diagonal and offdiagdiagonal of C(T)*S*C for irrep
                     6
  5.551115123125783E-016 -1.001518091140266E-015
 
 sum over diagonal and offdiagdiagonal of C(T)*S*C for irrep
                     7
 -3.330669073875470E-016  3.059981500910675E-015
 reorthoganalization of MOs is carried out
 sum over diagonal and offdiagdiagonal of C(T)*S*C for irrep
                     7
 -1.554312234475219E-015  1.568155570488351E-016
 
 sum over diagonal and offdiagdiagonal of C(T)*S*C for irrep
                     8
 -4.996003610813204E-015 -3.655929725621121E-016
 reorthoganalization of MOs is carried out
 sum over diagonal and offdiagdiagonal of C(T)*S*C for irrep
                     8
 -1.221245327087672E-015  2.632442874794805E-016
  processed                 150245  ao basis integrals from 
                   251  buffers.
  processed                 579988  ao basis integrals from 
                   967  buffers.
  processed                1041817  ao basis integrals from 
                  1737  buffers.
      10          -150.631002354968416              0.2114630406D-02
   current occupation vector 
     5  2  2  1  1  1  0  0
     5  2  2  1  1  0  0  0
  processed                 150245  ao basis integrals from 
                   251  buffers.
  processed                 579988  ao basis integrals from 
                   967  buffers.
  processed                1041817  ao basis integrals from 
                  1737  buffers.
      11          -150.631003531805902              0.2025333898D-03
   current occupation vector 
     5  2  2  1  1  1  0  0
     5  2  2  1  1  0  0  0
  processed                 150245  ao basis integrals from 
                   251  buffers.
  processed                 579988  ao basis integrals from 
                   967  buffers.
  processed                1041817  ao basis integrals from 
                  1737  buffers.
      12          -150.631003578454340              0.5302603462D-04
   current occupation vector 
     5  2  2  1  1  1  0  0
     5  2  2  1  1  0  0  0
  processed                 150245  ao basis integrals from 
                   251  buffers.
  processed                 579988  ao basis integrals from 
                   967  buffers.
  processed                1041817  ao basis integrals from 
                  1737  buffers.
      13          -150.631003579277376              0.6808511952D-05
   current occupation vector 
     5  2  2  1  1  1  0  0
     5  2  2  1  1  0  0  0
  processed                 150245  ao basis integrals from 
                   251  buffers.
  processed                 579988  ao basis integrals from 
                   967  buffers.
  processed                1041817  ao basis integrals from 
                  1737  buffers.
      14          -150.631003579303524              0.1667899220D-05
   current occupation vector 
     5  2  2  1  1  1  0  0
     5  2  2  1  1  0  0  0
 
 sum over diagonal and offdiagdiagonal of C(T)*S*C for irrep
                     1
  2.919886554764162E-013 -9.546513640110366E-014
 reorthoganalization of MOs is carried out
 sum over diagonal and offdiagdiagonal of C(T)*S*C for irrep
                     1
  4.596323321948148E-014 -2.227930904152408E-013
 
 sum over diagonal and offdiagdiagonal of C(T)*S*C for irrep
                     2
 -1.385558334732195E-013  1.212454593099122E-013
 reorthoganalization of MOs is carried out
 sum over diagonal and offdiagdiagonal of C(T)*S*C for irrep
                     2
  3.788080960021034E-013 -2.756245751153463E-013
 
 sum over diagonal and offdiagdiagonal of C(T)*S*C for irrep
                     3
  1.515454428613339E-013 -2.995930002460338E-013
 reorthoganalization of MOs is carried out
 sum over diagonal and offdiagdiagonal of C(T)*S*C for irrep
                     3
 -6.894484982922222E-014  3.532969293505808E-013
 
 sum over diagonal and offdiagdiagonal of C(T)*S*C for irrep
                     4
  9.992007221626409E-015  3.619679700864597E-014
 reorthoganalization of MOs is carried out
 sum over diagonal and offdiagdiagonal of C(T)*S*C for irrep
                     4
  2.642330798607873E-014 -1.757803747919864E-014
 
 sum over diagonal and offdiagdiagonal of C(T)*S*C for irrep
                     5
  4.796163466380676E-014  1.816605442524129E-016
 reorthoganalization of MOs is carried out
 sum over diagonal and offdiagdiagonal of C(T)*S*C for irrep
                     5
  3.108624468950438E-015 -5.367587575489351E-015
 
 sum over diagonal and offdiagdiagonal of C(T)*S*C for irrep
                     6
  2.886579864025407E-015  1.300167127172384E-014
 reorthoganalization of MOs is carried out
 sum over diagonal and offdiagdiagonal of C(T)*S*C for irrep
                     6
  2.109423746787797E-015  7.919519259185383E-016
 
 sum over diagonal and offdiagdiagonal of C(T)*S*C for irrep
                     7
  3.375077994860476E-014 -1.115515935005558E-017
 reorthoganalization of MOs is carried out
 sum over diagonal and offdiagdiagonal of C(T)*S*C for irrep
                     7
 -4.440892098500626E-016 -6.760616011948989E-016
 
 sum over diagonal and offdiagdiagonal of C(T)*S*C for irrep
                     8
 -5.995204332975845E-015  3.651592916931179E-016
 reorthoganalization of MOs is carried out
 sum over diagonal and offdiagdiagonal of C(T)*S*C for irrep
                     8
  2.220446049250313E-016  3.903127820947816E-018
  processed                 150245  ao basis integrals from 
                   251  buffers.
  processed                 579988  ao basis integrals from 
                   967  buffers.
  processed                1041817  ao basis integrals from 
                  1737  buffers.
      15          -150.631003579304888              0.2423126088D-06
   current occupation vector 
     5  2  2  1  1  1  0  0
     5  2  2  1  1  0  0  0
  processed                 150245  ao basis integrals from 
                   251  buffers.
  processed                 579988  ao basis integrals from 
                   967  buffers.
  processed                1041817  ao basis integrals from 
                  1737  buffers.
      16          -150.631003579303979              0.4243060073D-07
   current occupation vector 
     5  2  2  1  1  1  0  0
     5  2  2  1  1  0  0  0
  processed                 150245  ao basis integrals from 
                   251  buffers.
  processed                 579988  ao basis integrals from 
                   967  buffers.
  processed                1041817  ao basis integrals from 
                  1737  buffers.
      17          -150.631003579303979              0.5043590018D-08
   current occupation vector 
     5  2  2  1  1  1  0  0
     5  2  2  1  1  0  0  0
  processed                 150245  ao basis integrals from 
                   251  buffers.
  processed                 579988  ao basis integrals from 
                   967  buffers.
  processed                1041817  ao basis integrals from 
                  1737  buffers.
      18          -150.631003579304775              0.2933546989D-08
   current occupation vector 
     5  2  2  1  1  1  0  0
     5  2  2  1  1  0  0  0
  processed                 150245  ao basis integrals from 
                   251  buffers.
  processed                 579988  ao basis integrals from 
                   967  buffers.
  processed                1041817  ao basis integrals from 
                  1737  buffers.
      19          -150.631003579304263              0.1331776772D-09
   current occupation vector 
     5  2  2  1  1  1  0  0
     5  2  2  1  1  0  0  0
 
 sum over diagonal and offdiagdiagonal of C(T)*S*C for irrep
                     1
  2.482458683061850E-013 -3.282518084376964E-013
 reorthoganalization of MOs is carried out
 sum over diagonal and offdiagdiagonal of C(T)*S*C for irrep
                     1
 -3.472777621027490E-013  1.258672697672406E-013
 
 sum over diagonal and offdiagdiagonal of C(T)*S*C for irrep
                     2
  2.110533969812423E-013 -1.380382855857572E-013
 reorthoganalization of MOs is carried out
 sum over diagonal and offdiagdiagonal of C(T)*S*C for irrep
                     2
  2.144950883575802E-013 -1.139360022279725E-013
 
 sum over diagonal and offdiagdiagonal of C(T)*S*C for irrep
                     3
  1.686428774405613E-013  1.530434980115660E-013
 reorthoganalization of MOs is carried out
 sum over diagonal and offdiagdiagonal of C(T)*S*C for irrep
                     3
 -2.481348460037225E-013  1.870529734406463E-013
 
 sum over diagonal and offdiagdiagonal of C(T)*S*C for irrep
                     4
  3.541611448554249E-014 -4.448530362276675E-014
 reorthoganalization of MOs is carried out
 sum over diagonal and offdiagdiagonal of C(T)*S*C for irrep
                     4
 -6.217248937900877E-015  2.601617422771975E-014
 
 sum over diagonal and offdiagdiagonal of C(T)*S*C for irrep
                     5
  5.995204332975845E-015 -2.292470429649189E-014
[...]
                    29219              7     3          1
                    29309              7     4          1
                    27779              7     5          1
                    27759              7     6          1
                    27778              8     7          1
                    27758              8     8          1
                    90758             26     1          2
                    90294             30     2          2
                    90434             26     3          2
                    90078             26     4          2
                    85641             23     5          2
                    85123             25     6          2
                    85272             20     7          2
                    84808             20     8          2
                    91456             25     1          3
                    91032             27     2          3
                    91102             25     3          3
                    90786             25     4          3
                    86502             19     5          3
                    86082             15     6          3
                    86100             16     7          3
                    85676             16     8          3
                    29867              2     1          4
                    29887              6     2          4
                    29887              6     3          4
                    30017              6     4          4
                    28640              3     5          4
                    28606              4     6          4
                    28606              4     7          4
                    28626              4     8          4
 @TRPS-I, There is insufficient core for the T3 file. 
 @TRPS-I, Welcome to TRPS. Watch your RUs ! 
 @TRPS-I, Method is CCSDT 
 @TRPS-I, Calculation type is energy 
 @TRPS-I, Reference function information : 
          Reference function is general non-HF 
 @TRPS-I, Reference function is ROHF 
 @TRPS-I, INT1 is true 
 @TRPS-I, INT2 is true 
 @TRPS-I, Lengths of ijka integrals. #1       3232
                                     #2       2283
                                     #3       6046
                                     #4       6802
                                    Max       6802
 @INITRP-I, Initializing W intermediate lists. 
 @T1BINT-I, Creating lists for CCSDT-1b Calculations 
 @TSPABCI-I, AbIc/AbcI record transposition. 
 @TSPABCI-I, (O,v) ---> (v,O) transposition. 
 @TSPABCI-I, In-core algorithm is being used. 
 @TSPABCI-I, In-core algorithm is being used. 
 @TSPABCI-I, In-core algorithm is being used. 
 @TSPABCI-I, In-core algorithm is being used. 
 @TSPABCI-I, In-core algorithm is being used. 
 @TSPABCI-I, In-core algorithm is being used. 
 @TSPABCI-I, In-core algorithm is being used. 
 @TSPABCI-I, In-core algorithm is being used. 
 @W45T3DRV-I, Calculating triples contributions to W(abci) and W(ijka). 
 @SETOOOV-I, Some OOOV lists are being transposed. 
 @SETOOOV-I, Two sets of OOOV lists are transposed. 
 @TSPABCI2-I, (Alpha,Beta) ---> (Beta,Alpha). 
 @TSPABCI2-I, In-core algorithm is being used. 
 @TSPABCI2-I, In-core algorithm is being used. 
 @TSPABCI2-I, In-core algorithm is being used. 
 @TSPABCI2-I, In-core algorithm is being used. 
 @TSPABCI2-I, In-core algorithm is being used. 
 @TSPABCI2-I, In-core algorithm is being used. 
 @TSPABCI2-I, In-core algorithm is being used. 
 @TSPABCI2-I, In-core algorithm is being used. 
 @TSPABCI2-I, In-core algorithm is being used. 
 @TSPABCI2-I, In-core algorithm is being used. 
 @TSPABCI2-I, In-core algorithm is being used. 
 @TSPABCI2-I, In-core algorithm is being used. 
 @TSPABCI2-I, In-core algorithm is being used. 
 @TSPABCI2-I, In-core algorithm is being used. 
 @TSPABCI2-I, In-core algorithm is being used. 
 @TSPABCI2-I, In-core algorithm is being used. 
  transposing abij 
 @TSPABCI2-I, (Beta,Alpha) ---> (Alpha,Beta). 
 @TSPABCI2-I, In-core algorithm is being used. 
 @TSPABCI2-I, In-core algorithm is being used. 
 @TSPABCI2-I, In-core algorithm is being used. 
 @TSPABCI2-I, In-core algorithm is being used. 
 @TSPABCI2-I, In-core algorithm is being used. 
 @TSPABCI2-I, In-core algorithm is being used. 
 @TSPABCI2-I, In-core algorithm is being used. 
 @TSPABCI2-I, In-core algorithm is being used. 
 @TSPABCI2-I, In-core algorithm is being used. 
 @TSPABCI2-I, In-core algorithm is being used. 
 @TSPABCI2-I, In-core algorithm is being used. 
 @TSPABCI2-I, In-core algorithm is being used. 
 @TSPABCI2-I, In-core algorithm is being used. 
 @TSPABCI2-I, In-core algorithm is being used. 
 @TSPABCI2-I, In-core algorithm is being used. 
 @TSPABCI2-I, In-core algorithm is being used. 
 @SETOOOV-I, Some OOOV lists are being transposed. 
 @SETOOOV-I, Two sets of OOOV lists are transposed. 
 @CHKSMG-I, Evaluating check sums of T3 gamma lists 
 @CHKSMG-I, List   107 Check sum is      18.373974205746
 @CHKSMG-I, List   108 Check sum is      13.325674472499
 @CHKSMG-I, List   109 Check sum is      37.799262488931
 @CHKSMG-I, List   110 Check sum is      40.901348429936
 @CHKSMG-I, List   127 Check sum is    1228.787516412527
 @CHKSMG-I, List   128 Check sum is    1120.869142032563
 @CHKSMG-I, List   129 Check sum is    2594.638449487350
 @CHKSMG-I, List   130 Check sum is    2312.882638554517
 @SETVOVO-I, Some VOVO lists are being reordered. 
  DMPMBEJ-I, list                     54
  DMPMBEJ-I, list                     55
  DMPMBEJ-I, list                     58
  DMPMBEJ-I, list                     59
 @TRPS-I, Available memory in integer words  15874959040
          Number of pre-allocated words for TRPS14        20618
          Number of free words for TRPS14  15874938422
 @TRPS14-I, Spin case AAA 
 @TRPS14-I, Number of free integer words **********
            Number of free double words  **********
            Ratio                                 1
 @TRPS14-I, E4TAAA      -0.001116372328
 @TRPS-I, Available memory in integer words  15874959040
          Number of pre-allocated words for TRPS14        20611
          Number of free words for TRPS14  15874938429
 @TRPS14-I, Spin case BBB 
 @TRPS14-I, Number of free integer words **********
            Number of free double words  **********
            Ratio                                 1
 @TRPS14-I, E4TBBB      -0.000629779426
 @SETOOOV-I, Some OOOV lists are being transposed. 
 @SETOOOV-I, Two sets of OOOV lists are transposed. 
 @TRPS-I, Available memory in integer words  15874959040
          Number of pre-allocated words for TRPS2        64362
          Number of free words for TRPS2  15874894678
 @TRPS2-I, Spin case AAB 
 @TRPS2-I, Number of free integer words **********
           Number of free double  words **********
           Ratio                                 1
 @TRPS2-I, E4TBAA      -0.074563475023
 @SETOOOV-I, Some OOOV lists are being transposed. 
 @SETOOOV-I, Two sets of OOOV lists are transposed. 
 @TSPABCI2-I, (Alpha,Beta) ---> (Beta,Alpha). 
 @TSPABCI2-I, In-core algorithm is being used. 
 @TSPABCI2-I, In-core algorithm is being used. 
 @TSPABCI2-I, In-core algorithm is being used. 
 @TSPABCI2-I, In-core algorithm is being used. 
 @TSPABCI2-I, In-core algorithm is being used. 
 @TSPABCI2-I, In-core algorithm is being used. 
 @TSPABCI2-I, In-core algorithm is being used. 
 @TSPABCI2-I, In-core algorithm is being used. 
 @TSPABCI2-I, In-core algorithm is being used. 
 @TSPABCI2-I, In-core algorithm is being used. 
 @TSPABCI2-I, In-core algorithm is being used. 
 @TSPABCI2-I, In-core algorithm is being used. 
 @TSPABCI2-I, In-core algorithm is being used. 
 @TSPABCI2-I, In-core algorithm is being used. 
 @TSPABCI2-I, In-core algorithm is being used. 
 @TSPABCI2-I, In-core algorithm is being used. 
 @AT2IAB-I, Some AbIj lists are being altered. 
 @TRPS-I, Available memory in integer words  15874959040
          Number of pre-allocated words for TRPS3       146078
          Number of free words for TRPS3  15874812962
 @TRPS3-I, Spin case BBA 
 @TRPS3-I, Number of free integer words **********
           Number of free double  words **********
           Ratio                                 1
 @TRPS3-I, E4TBBA      -0.063981499768
 @TSPABCI2-I, (Beta,Alpha) ---> (Alpha,Beta). 
 @TSPABCI2-I, In-core algorithm is being used. 
 @TSPABCI2-I, In-core algorithm is being used. 
 @TSPABCI2-I, In-core algorithm is being used. 
 @TSPABCI2-I, In-core algorithm is being used. 
 @TSPABCI2-I, In-core algorithm is being used. 
 @TSPABCI2-I, In-core algorithm is being used. 
 @TSPABCI2-I, In-core algorithm is being used. 
 @TSPABCI2-I, In-core algorithm is being used. 
 @TSPABCI2-I, In-core algorithm is being used. 
 @TSPABCI2-I, In-core algorithm is being used. 
 @TSPABCI2-I, In-core algorithm is being used. 
 @TSPABCI2-I, In-core algorithm is being used. 
 @TSPABCI2-I, In-core algorithm is being used. 
 @TSPABCI2-I, In-core algorithm is being used. 
 @TSPABCI2-I, In-core algorithm is being used. 
 @TSPABCI2-I, In-core algorithm is being used. 
 @AT2IAB-I, Some AbIj lists are being altered. 
 @TSPABCI-I, AbIc/AbcI record transposition. 
 @TSPABCI-I, (v,O) ---> (O,v) transposition. 
 @TSPABCI-I, In-core algorithm is being used. 
 @TSPABCI-I, In-core algorithm is being used. 
 @TSPABCI-I, In-core algorithm is being used. 
 @TSPABCI-I, In-core algorithm is being used. 
 @TSPABCI-I, In-core algorithm is being used. 
 @TSPABCI-I, In-core algorithm is being used. 
 @TSPABCI-I, In-core algorithm is being used. 
 @TSPABCI-I, In-core algorithm is being used. 
  DMPMBEJ-I, list                     54
  DMPMBEJ-I, list                     55
  DMPMBEJ-I, list                     58
  DMPMBEJ-I, list                     59
 @SETVOVO-I, Some VOVO lists are being reordered. 
 MOVLIST-I, Copying list   1 to list   5
 MOVLIST-I, Copying list   2 to list   6
 MOVLIST-I, Copying list   3 to list   7
 MOVLIST-I, Copying list   4 to list   8
   After  40 iterations, amplitude changes are:
    -------------------------------------------------------------------
                 Spin      RMS          Max.      Max. change for
     Amplitude   Case     Change       Change       i    j    a    b
    -------------------------------------------------------------------
        T1        AA    0.0000000000-0.0000000002    4        32
        T1        BB    0.0000000000-0.0000000002    2        11
        T2        AA    0.0000000000 0.0000000001    8    2   83   32
        T2        BB    0.0000000000 0.0000000002    7    2   95   31
        T2        AB    0.0000000000 0.0000000005    2    3   32   31
    -------------------------------------------------------------------
   The AA contribution to the correlation energy is:   -0.0702951 a.u.
   The BB contribution to the correlation energy is:   -0.0616064 a.u.
   The AB contribution to the correlation energy is:   -0.5717051 a.u.
   The total correlation energy is -0.703606538056 a.u.
   The total correlation energy is -0.703606538056 a.u.
  Current DIIS expansion coefficients : 
 [   1] 0.0108354917 [   2]-0.0052216006 [   3]-0.2274953889 [   4] 0.1787246797
 [   5] 1.0431568181
  Convergence information after    40 iterations: 
  Largest element of residual vector :  0.52802784E-09.
  Largest element of DIIS residual   : -0.37004874E-09.
  Amplitude equations converged in    40iterations.
   The AA contribution to the correlation energy is:   -0.0702951 a.u.
   The BB contribution to the correlation energy is:   -0.0616064 a.u.
   The AB contribution to the correlation energy is:   -0.5717051 a.u.
   The total correlation energy is -0.703606538221 a.u.
   The total correlation energy is -0.703606538221 a.u.
   The CC iterations have converged.

            ----------------------------------------------
                     Projected spin multiplicities: 
            ----------------------------------------------
             <0|S^2|0>                  =    0.7500000000.
             <0|S^2 (T2+T1**2) |0>      =    0.0000000000.
             <0|S^2 T1|0>               =   -0.0000000000.
             Projected <0|S^2 exp(T)|0> =    0.7500000000.
             Approximate spin mult.     =    2.0000000000.
            ----------------------------------------------
   Largest T1 amplitudes for spin case AA:
   i       a                 i       a                 i       a    
-----------------------------------------------------------------------------
[  4      32    ]-0.08760 [  3      12    ]-0.06815 [  2      12    ]-0.04740
[  7      83    ] 0.03127 [  5      51    ] 0.02850 [  8      97    ] 0.02026
[  7      84    ] 0.01871 [  6      71    ] 0.01498 [  7      88    ] 0.01393
[  7      86    ] 0.01292 [  3      13    ]-0.01277 [  2      13    ]-0.01201
[  8      96    ] 0.01173 [  3      17    ] 0.01155 [  6      72    ] 0.01144
-----------------------------------------------------------------------------
   Norm of T1AA vector (      142 symmetry allowed elements):  0.1419130372.
-----------------------------------------------------------------------------
   Largest T2 amplitudes for spin case AA:
   i   j   a   b             i   j   a   b             i   j   a   b
-----------------------------------------------------------------------------
[  8   3  83  32] 0.07892 [  7   3 105  51] 0.03610 [  8   6  83  51]-0.03598
[  8   2  83  32]-0.02827 [  6   3  51  36]-0.02329 [  4   2  32  12] 0.01876
[  6   2  51  32]-0.01722 [  6   3  51  33]-0.01637 [  7   2 105  55] 0.01533
[  8   3 115  51] 0.01501 [  7   6 105  36]-0.01491 [  6   3  51  34]-0.01489
[  3   2  33  32]-0.01481 [  7   5  83  51]-0.01417 [  7   6  83  72]-0.01397
-----------------------------------------------------------------------------
   Norm of T2AA vector (    22126 symmetry allowed elements):  0.1816669090.
-----------------------------------------------------------------------------
   Largest T1 amplitudes for spin case BB:
   i       a                 i       a                 i       a    
-----------------------------------------------------------------------------
[  4      31    ]-0.11277 [  3      11    ]-0.07615 [  7      82    ]-0.06994
[  2      11    ]-0.05156 [  7      84    ]-0.02814 [  3      12    ]-0.02386
[  2      12    ]-0.02021 [  3       9    ]-0.01449 [  7      85    ] 0.01434
[  7      83    ]-0.01410 [  4      32    ]-0.01333 [  2       9    ]-0.01127
[  3      16    ] 0.01116 [  7      87    ] 0.01062 [  5      50    ] 0.00997
-----------------------------------------------------------------------------
   Norm of T1BB vector (      133 symmetry allowed elements):  0.1751866276.
-----------------------------------------------------------------------------
   Largest T2 amplitudes for spin case BB:
   i   j   a   b             i   j   a   b             i   j   a   b
-----------------------------------------------------------------------------
[  7   3 105  50] 0.03923 [  7   3  95  31] 0.03240 [  7   6  95  50]-0.02756
[  6   3  50  35]-0.02288 [  7   2 105  54] 0.01802 [  7   6 105  35]-0.01658
[  4   2  31  11] 0.01603 [  6   3  50  32]-0.01529 [  7   4  95  11]-0.01467
[  6   3  50  33]-0.01413 [  7   2 105  50]-0.01392 [  6   3 105  95] 0.01312
[  7   5 105   9]-0.01294 [  7   3 106  50]-0.01251 [  3   2  32  31]-0.01219
-----------------------------------------------------------------------------
   Norm of T2BB vector (    17312 symmetry allowed elements):  0.1484050439.
-----------------------------------------------------------------------------
   Largest T2 amplitudes for spin case AB:
       _       _                 _       _                 _       _
   i   j   a   b             i   j   a   b             i   j   a   b
-----------------------------------------------------------------------------
[  3   3  32  31]-0.57349 [  2   3  32  31]-0.32094 [  3   2  32  31]-0.31730
[  2   2  32  31]-0.15376 [  8   3  32  82]-0.12258 [  8   2  83  31]-0.10148
[  8   7  83  95]-0.09914 [  3   3  51  50]-0.09345 [  7   3  32  95]-0.07772
[  8   3  83  31]-0.06796 [  2   7  32  95]-0.06509 [  8   2  32  82]-0.06472
[  3   7  51 105] 0.06331 [  7   7 105 105]-0.06321 [  2   6  32  50]-0.05646
-----------------------------------------------------------------------------
   Norm of T2AB vector (    92386 symmetry allowed elements):  0.9161473107.
-----------------------------------------------------------------------------
       Summary of iterative solution of CC equations 
      -----------------------------------------------------------
                       Correlation           Total
       Iteration         Energy              Energy
      -----------------------------------------------------------
            0        -0.683373742926    -151.314377322230  DIIS 
            1        -0.626099369498    -151.257102948803  DIIS 
            2        -0.682247619652    -151.313251198957  DIIS 
            3        -0.679804057585    -151.310807636890  DIIS 
            4        -0.688793624396    -151.319797203701  DIIS 
            5        -0.698195787184    -151.329199366488  DIIS 
            6        -0.701932729944    -151.332936309248  DIIS 
            7        -0.701562867492    -151.332566446797  DIIS 
            8        -0.703094606916    -151.334098186221  DIIS 
            9        -0.703102420446    -151.334105999750  DIIS 
           10        -0.703152921305    -151.334156500610  DIIS 
           11        -0.703400513197    -151.334404092502  DIIS 
           12        -0.703414552214    -151.334418131519  DIIS 
           13        -0.703520062803    -151.334523642107  DIIS 
           14        -0.703564622991    -151.334568202296  DIIS 
           15        -0.703579219724    -151.334582799028  DIIS 
           16        -0.703593395163    -151.334596974468  DIIS 
           17        -0.703601399098    -151.334604978403  DIIS 
           18        -0.703599978123    -151.334603557427  DIIS 
           19        -0.703602740101    -151.334606319406  DIIS 
           20        -0.703603349448    -151.334606928753  DIIS 
           21        -0.703604168415    -151.334607747720  DIIS 
           22        -0.703605082875    -151.334608662180  DIIS 
           23        -0.703606103953    -151.334609683257  DIIS 
           24        -0.703605600409    -151.334609179713  DIIS 
           25        -0.703606081409    -151.334609660713  DIIS 
           26        -0.703606534391    -151.334610113695  DIIS 
           27        -0.703606396915    -151.334609976219  DIIS 
           28        -0.703606484406    -151.334610063710  DIIS 
           29        -0.703606458254    -151.334610037559  DIIS 
           30        -0.703606506238    -151.334610085542  DIIS 
           31        -0.703606508912    -151.334610088216  DIIS 
           32        -0.703606531547    -151.334610110851  DIIS 
           33        -0.703606514106    -151.334610093410  DIIS 
           34        -0.703606538888    -151.334610118193  DIIS 
           35        -0.703606527929    -151.334610107234  DIIS 
           36        -0.703606534275    -151.334610113579  DIIS 
           37        -0.703606536233    -151.334610115537  DIIS 
           38        -0.703606536771    -151.334610116075  DIIS 
           39        -0.703606537520    -151.334610116824  DIIS 
           40        -0.703606538221    -151.334610117526  DIIS 
      -----------------------------------------------------------
      A miracle has come to pass. The CC iterations have converged.
      The reference energy is      -150.63100357930443 a.u.
      The correlation energy is      -0.70360653822148 a.u.
      The total energy is          -151.33461011752593 a.u.
  @CHECKOUT-I, Total execution time (CPU/WALL):    24072.14/    3094.01 seconds.
--executable xvcc finished with status     0 in     3094.11 seconds (walltime).
  The final electronic energy is      -151.334610117525926 a.u. 
  This computation required                         3496.95 seconds (walltime).
