 --invoking executable--
/home-3/lcheng24@jhu.edu/work/update/cfour/bin/xjoda


   *************************************************************************
         <<<     CCCCCC     CCCCCC   |||     CCCCCC     CCCCCC   >>>
       <<<      CCC        CCC       |||    CCC        CCC         >>>
      <<<      CCC        CCC        |||   CCC        CCC            >>>
    <<<        CCC        CCC        |||   CCC        CCC              >>>
      <<<      CCC        CCC        |||   CCC        CCC            >>>
       <<<      CCC        CCC       |||    CCC        CCC         >>>
         <<<     CCCCCC     CCCCCC   |||     CCCCCC     CCCCCC   >>>
   *************************************************************************

     ****************************************************************
     * CFOUR Coupled-Cluster techniques for Computational Chemistry *
     ****************************************************************
 

   Department of Chemistry                Institut fuer Physikalische Chemie
   University of Texas at Austin          Universitaet Mainz
   Austin, TX  78712, USA                 D-55099 Mainz, Germany
 
                       Version 1.2
 
                     bigmem0050                                        
                     Mon Dec 11 11:06:54 EST 2017                      
                     integer*8 version is running
 
********************************************************************************
*                          Input from ZMAT file                                *
********************************************************************************
Li2                                                                             
Li                                                                              
Li 1 R                                                                          
                                                                                
R=4.17                                                                          
                                                                                
*ACES2(CALC=CCSDT                                                               
REFERENCE=ROHF                                                                  
MULT=3                                                                          
SCF_CONV=6                                                                      
T3_EXTRAP=ON                                                                    
CC_PROG=VCC                                                                     
MEM=900                                                                         
MEM_UNIT=GB                                                                     
OCCUPATION=2-0-0-0-2-0-0-0/1-0-0-0-1-0-0-0                                      
BASIS=SPECIAL)                                                                  
                                                                                
LI:AUG-PCV7Z                                                                    
LI:AUG-PCV7Z                                                                    
                                                                                
********************************************************************************
    -------------------------------------------------------------------
                    CFOUR Control Parameters 
    -------------------------------------------------------------------
        External           Internal           Value            Units
          Name               Name
    -------------------------------------------------------------------
       ABCDTYPE             IABCDT         STANDARD    [  0]    ***   
       ANHARMONIC           IANHAR         OFF         [  0]    ***   
       ANH_ALGORIT          IANALG         STANDARD    [  0]    ***   
       ANH_DERIVAT          IANDER         SECOND      [  1]    ***   
       ANH_MODE             ANHMOD         VIBRATION   [  0]    ***   
       ANH_STEPSIZ          ICUBST             50000          x 10-6  
       ANH_SYMMETR          IANHSM         ABELIAN     [  0]    ***   
       AO_LADDERS           IAOLAD         SINGLEPASS  [  1]    ***   
       AV_SCF               IAVSCF         OFF         [  0]    ***   
       BASIS                IBASIS         SPECIAL     [  0]    ***   
       BOTHVECTORS          BOTHVC         OFF         [  0]    ***   
       BOX_POTENT           IPIAB          OFF         [  0]    ***   
       BREIT                IBREIT         OFF         [  0]    ***   
       BRUCK_CONV           IBRTOL          10D-  4             ***   
       BRUECKNER            IBRKNR         OFF         [  0]    ***   
       BUFFERSIZE           IBUFFS              4096            ***   
       CACHE_RECS           ICHREC             10               ***   
       CALCLEVEL            ICLLVL         CCSDT       [ 18]    ***   
       CAS_GECCO            ICMRCC         OFF         [  0]    ***   
       CAS_GUESS            ICGUES         CANONICAL   [  0]    ***   
       CAS_INPUT            ICSINP         ORBITALS    [  0]    ***   
       CAS_ITMAX            ICITMX          10D- 50           cycles  
       CAS_JACDAV           ICJDAV         OFF         [  0]    ***   
       CAS_MICMAX           ICMIMN          10D- 10             ***   
       CAS_MICMIN           ICMIMX          10D-  2             ***   
       CAS_MICRO            ICSALG         ILU/JACOBI  [  0]    ***   
       CAS_MITMAX           ICMIMX          10D-100           cycles  
       CAS_MMAX             ICMMAX          10D- 50             ***   
       CAS_PRINT            ICPRT           10D-  0             ***   
       CCORBOPT             ICCORB         OFF         [  0]  x 0.01  
       CC_CONV              ICCCNV          10D-  7             ***   
       CC_EXPORDER          ICCEOR              5               ***   
       CC_EXTRAPOL          ICCEXT         DIIS        [  1]    ***   
       CC_GUESS             ICCGES         MP2         [  0]    ***   
       CC_MAXCYC            ICCCYC            100              cycles 
       CC_PROGRAM           ICCPRO         VCC         [  0]    ***   
       CHARGE               ICHRGE              0               ***   
       CHOLESKY             ICHOLE         OFF         [  0]    ***   
       CIS_CONV             ICISTL              5               ***   
       COMM_SIZE            IPSIZE            ***               ***   
       CONSTANT             ICONST         OLD         [  1]    ***   
       CONTINUUM            ICONTU         NONE        [  0]    ***   
       CONTRACTION          ICNTYP         GENERAL     [  1]    ***   
       COORDINATES          ICOORD         INTERNAL    [  0]    ***   
       CPHF_CONVER          ICPHFT          10D- 16             ***   
       CPHF_MAXCYC          ICPHFC             64              cycles 
       CUBIC                ICUBIC         OFF         [  0]    ***   
       CURVILINEAR          ICURVY         OFF         [  0]    ***   
       CV_ELEMENT           ICVELM              0               ***   
       CV_ORBITALS          ICVORB      NONE         
       CV_SEPARATE          ICVSEP         OFF         [  0]    ***   
       DBOC                 IDBOC          OFF         [  0]    ***   
       DCT                  IDCT           OFF         [  0]    ***   
       DERIV_LEV            IDRLVL         ZERO        [  0]    ***   
       DEVMEM_SIZE          IDVMEM         *********           MByte  
       DIAG_MRCC            IEOMST          10D-  0             ***   
       DIFF_TYPE            IDIFTY         RELAXED     [  0]    ***   
       DIRECT               IDIRCT         OFF         [  0]    ***   
       DROPMO               IDRPMO      NONE         
       ECP                  IECP           OFF         [  0]    ***   
       EIGENVECTOR          IVEC                1               ***   
       EL_ANHARM            IELANH         OFF         [  0]    ***   
       EOMFOLLOW            IEOMSR         ENERGY      [  0]    ***   
       EOMIP                IEOMIP         OFF         [  0]    ***   
       EOMLEVEL             HBARFM         SAME        [  0]    ***   
       EOM_MRCC             IMRCCE         NEW         [  1]    ***   
       EOM_NONIT            EOMNON         OFF         [  0]    ***   
       EOM_NSING            IEOMSI          10D-  0             ***   
       EOM_NSTATES          IMRCCD         DAVIDSON    [  0]    ***   
       EOM_NTRIP            IEOMTR          10D-  0             ***   
       EOM_ORDER            IEXORD         ENERGY      [  0]    ***   
       EOM_PROPSTA          IEOMST              0               ***   
       ESTATE_CONV          IEXTOL          10D-  5             ***   
       ESTATE_DIAG          IEXDIG         ITERATIVE   [  0]    ***   
       ESTATE_LOCK          IESLOC         ON          [  1]    ***   
       ESTATE_MAXC          IEXMXC             40               ***   
       ESTATE_PROP          IEXPRP         OFF         [  0]    ***   
       EVAL_HESS            IRECAL              0            # of cyc.
       EXCITATION           IEXCIT              0               ***   
       EXCITE               IEXCIT         NONE        [  0]    ***   
       EXTERN_POT           IEXPOT         OFF         [  0]    ***   
       FCGRADNEW            IFCGNW         OFF         [  0]    ***   
       FC_FIELD             IFINFC              0             x 10-6  
       FD_CALTYPE           IFDCAL         GRADONLY    [  0]    ***   
       FD_PROJECT           IFDPRJ         OFF         [  1]    ***   
       FD_STEPSIZE          IDISFD              0            10-4 bohr
       FD_USEGROUP          IFDGRP         FULL        [  0]    ***   
       FILE_RECSIZ          IFLREC              4096           words  
       FINITE_PERT          IFIPER              0             x 10-6  
       FIXGEOM              IFIXGM         OFF         [  0]    ***   
       FOCK                 IFOCK          AO          [  1]    ***   
       FREQ_ALGORI          IVIALG         STANDARD    [  0]    ***   
       FROZEN_CORE          IFROCO         OFF         [  0]    ***   
       FROZEN_VIRT          IFROVI         OFF         [  0]    ***   
       GAMMA_ABCD           IGABCD         STORE       [  0]    ***   
       GAMMA_ABCI           IGABCI         STORE       [  0]    ***   
       GENBAS_1             IGNBS1              0               ***   
       GENBAS_2             IGNBS2              0               ***   
       GENBAS_3             IGNBS3              0               ***   
       GENBAS_4             IGNBS4              0               ***   
       GEO_CONV             ICONTL              5              H/bohr 
       GEO_MAXCYC           IOPTCY             50               ***   
       GEO_MAXSTEP          IMXSTP            300            millibohr
       GEO_METHOD           INR            SINGLE_POINT[  5]    ***   
       GIAO                 IGIAO          OFF         [  1]    ***   
       GIMIC                IGIMIC         OFF         [  0]    ***   
       GRID                 IGRID          OFF         [  0]    ***   
       GRID_ALGO            IGALGO         SERIAL      [  0]    ***   
       GUESS                IGUESS         MOREAD      [  0]    ***   
       HBAR                 IHBAR          OFF         [  0]    ***   
       HESS_TYPE            IHESTP         SCF         [  0]    ***   
       HF2_FILE             IHF2Fl         USE         [  1]    ***   
       HFSTABILITY          ISTABL         OFF         [  0]    ***   
       INCORE               INCORE         OFF         [  0]    ***   
       INPUT_MRCC           IMRCC          ON          [  1]    ***   
       INTEGRALS            INTTYP         VMOL        [  1]    ***   
       JODA_PRINT           IJPRNT              0               ***   
       KEYWORD_OUT          IDMPKW         NO          [  0]    ***   
       LINDEP_TOL           ILINDP              8               ***   
       LINEQ_CONV           IZTACN          10D-  7           cycles  
       LINEQ_EXPOR          ILMAXD              5               ***   
       LINEQ_MAXCY          ILMAXC            100               ***   
       LINEQ_TYPE           ILTYPE         DIIS        [  1]    ***   
       LOCK_ORBOCC          ILOCOC         OFF         [  0]    ***   
       MEMORY_SIZE          IMEMSZ         *********           words  
       MEM_UNIT             IMEMU          GB          [  3]    ***   
       MRCC                 IMRCCC         OFF         [  0]    ***   
       MULTIPLICTY          IMULTP              3               ***   
       NACOUPLING           IVCOUP         OFF         [  0]    ***   
       NEGEVAL              IDIE           ABORT       [  0]    ***   
       NEWNORM              INEWNO         OFF         [  0]    ***   
       NON-HF               INONHF         ON          [  1]    ***   
       NTOP_TAMP            ITOPT2             15               ***   
       NUC_MODEL            INUCMO         POINT       [  0]    ***   
       OCCUPATION           IOCCU  A   2,  0,  0,  0,  2,  0,  0,  0,
                                   B   1,  0,  0,  0,  1,  0,  0,  0,
       OPEN-SHELL           IOPEN          SPIN-ORBITAL[  0]    ***   
       OPTVIB               IOPTVB         OFF         [  0]    ***   
       ORBITALS             IORBTP         SEMICANONICA[  1]    ***   
       PARALLEL             IPARAL         ON          [  1]    ***   
       PARA_INT             IPINTS         ON          [  1]    ***   
       PARA_PRINT           IPPRIN              0               ***   
       PERT_ORB             IPTORB         STANDARD    [  0]    ***   
       POINTS               IGRDFD              0               ***   
       PRINT                IPRNT               0               ***   
       PROPS                IPROPS         OFF         [  0]    ***   
       PROP_INTEGR          IINTYP         INTERNAL    [  0]    ***   
       PSI                  IPSI           OFF         [  0]    ***   
       QC_ALG               IQCALG         FLM         [  0]    ***   
       QC_LINALG            IQCLIN         TRIDIAG     [  2]    ***   
       QC_MAXCYC            IQCMAX          10D-100           cycles  
       QC_MAXSCFCY          IQCMSC          10D- 15           cycles  
       QC_RTRUST            IQCRTR          10D-  0           x 10-3  
       QC_SKIPSCF           IQCSKI         OFF         [  0]    ***   
       QC_START             IQCSTA          10D-  1             ***   
       QRHFGUESS            IQGUES         OFF         [  0]    ***   
       QUARTIC              IQUART         OFF         [  0]    ***   
       RAMAN_INT            IRAMIN         OFF         [  0]    ***   
       RAMAN_ORB            IRAMRE         UNRELAXED   [  0]    ***   
       RDO                  IRDOFM         OFF         [  0]    ***   
       REDUCE_REPR          REDREP         Ir          [  0]    ***   
       REFERENCE            IREFNC         ROHF        [  2]    ***   
       RELATIVIST           IRELAT         OFF         [  0]    ***   
       RELAX_DENS           IRDENS         OFF         [  0]    ***   
       RESET_FLAGS          IRESET         OFF         [  0]    ***   
       RESTART_CC           ICCRES         OFF         [  0]    ***   
       ROT_EVEC             ROTVEC              0               ***   
       SAVE_INTS            ISVINT         OFF         [  0]    ***   
       SCALE_ON             ISTCRT              0               ***   
       SCF_CONV             ISCFCV          10D-  6             ***   
       SCF_DAMPING          IDAMP               0             x 10-3  
       SCF_EXPORDE          IRPPOR              6               ***   
       SCF_EXPSTAR          IRPPLS              8               ***   
       SCF_EXTRAPO          IRPP           ON          [  1]    ***   
       SCF_MAXCYC           ISCFCY            150              cycles 
       SCF_NOSTOP           ISCFST         OFF         [  0]    ***   
       SCF_PRINT            ISCFPR              0               ***   
       SCF_PROG             ISCFPR         SCF         [  0]    ***   
       SD_FIELD             IFINSD              0             x 10-6  
       SOPERT               IPERSO         OFF         [  0]    ***   
       SPHERICAL            IDFGHI         ON          [  1]    ***   
       SPINORBIT            ISOCAL         OFF         [  0]    ***   
       SPINROTATIO          ISRCON         OFF         [  0]    ***   
       SPIN_FLIP            ISPFLP         OFF         [  0]    ***   
       SPIN_ORBIT           ISPORB         OFF         [  0]    ***   
       SPIN_SCAL            ISCSMP         OFF         [  0]    ***   
       STEEPSCALE           ISTPSC              1000          x 10-3  
       SUBGROUP             ISUBGP         DEFAULT     [  0]    ***   
       SUBGRPAXIS           ISBXYZ         X           [  0]    ***   
       SYMMETRY             ISYM           ON          [  0]    ***   
       SYM_CHECK            ISYMCK         OVERRIDE    [  1]    ***   
       T3_EXTRAPOL          IT3EXT         ON          [  1]    ***   
       T4_EXTRAPOL          IT4EXP         OFF         [  0]    ***   
       TAMP_SUM             IEVERY              5               ***   
       TESTSUITE            ITESTS         OFF         [  0]    ***   
       THERMOCH             ITHERM         OFF         [  0]    ***   
       TOL_CHOLESK          ITOLCH          10D-  4             ***   
       TRANGRAD             IRESRM         OFF         [  0]    ***   
       TRANS_INV            ITRAIN         USE         [  0]    ***   
       TREAT_PERT           ITREAT         SIMULTANEOUS[  0]    ***   
       TRIP_ALGORI          ITRALG         NORMAL      [  0]    ***   
       UIJ_THRESHO          IUIJTH              1               ***   
       UNITS                IUNITS         ANGSTROM    [  0]    ***   
       UNOS                 IUNOS          OFF         [  0]    ***   
       UPDATE_HESS          IHUPDT         ON          [  1]    ***   
       VIBPHASE             ISETPH         STANDARD    [  0]    ***   
       VIBRATION            IVIB           NO          [  0]    ***   
       VIB_ALGORIT          IGEALG         STANDARD    [  0]    ***   
       VNATORB              IVNORB         OFF         [  0]    ***   
       VTRAN                IVTRAN         FULL/PARTIAL[  0]    ***   
       X2CKEY               IX2CKE         BPSO        [  0]    ***   
       XFIELD               IXEFLD              0             x 10-6  
       XFORM_TOL            IXFTOL          10D- 11             ***   
       YFIELD               IYEFLD              0             x 10-6  
       ZFIELD               IZEFLD              0             x 10-6  
       ZSCALE_EXP           IZEXPS         OFF         [  0]    ***   
    -------------------------------------------------------------------
   2 entries found in Z-matrix 
   Job Title : Li2                                                                             
   There are  1 unique internal coordinates.
   Of these,  0 will be optimized.
   User supplied Z-matrix: 
--------------------------------------------------------------------------------
       SYMBOL    BOND      LENGTH    ANGLE     ANGLE     DIHED     ANGLE
                  TO      (ANGST)    WRT      (DEG)      WRT      (DEG)
--------------------------------------------------------------------------------
        Li   
        Li         1         R    
                  *Initial values for internal coordinates* 
                      Name             Value
                        R               4.1700000000
--------------------------------------------------------------------------------
   Rotational constants (in cm-1): 
          0.2763533126             0.2763533126
   Rotational constants (in MHz): 
       8284.8650478640          8284.8650478640
********************************************************************************
   The full molecular point group is DXh .
   The largest Abelian subgroup of the full molecular point group is D2h .
   The computational point group is D2h .
********************************************************************************
--------------------------------------------------------------------------------
   Analysis of internal coordinates specified by Z-matrix 
--------------------------------------------------------------------------------
   *The nuclear repulsion energy is    1.142108848920863 a.u.
   *There is   1 degree of freedom within the tot. symm. molecular subspace.
   *Z-matrix requests optimization of   0 coordinates.
   *The optimization is constrained.
   *The following   1 parameters can have non-zero 
    derivatives within the totally symmetric subspace:
             R    [ 1]
   *The following   0 parameters are to be optimized:

   *The following coordinates must be varied in an  unconstrained optimization.
             R    [ 1]
--------------------------------------------------------------------------------


 ----------------------------------------------------------------
         Coordinates used in calculation (QCOMP) 
 ----------------------------------------------------------------
 Z-matrix   Atomic            Coordinates (in bohr)
  Symbol    Number           X              Y              Z
 ----------------------------------------------------------------
     LI        3        -0.00000000     0.00000000     3.94007980
     LI        3         0.00000000     0.00000000    -3.94007980
 ----------------------------------------------------------------
 
   Interatomic distance matrix (Angstroms) 
 
                 LI            LI   
                [ 1]        [ 2]
  LI   [ 1]     0.00000
  LI   [ 2]     4.17000     0.00000
   Rotational constants (order x, y, z, in cm-1): 
          0.2763533126             0.0000000000
   Rotational constants (order x, y, z, in MHz): 
       8284.8650478640             0.0000000000
  ECPDATA file not present.   Using default ECPDATA. 
  There are  754 basis functions.
 @GEOPT-W, Archive file not created for single-point calculation.
 @CHECKOUT-I, Total execution time (CPU/WALL):        0.29/       0.35 seconds.
--executable xjoda finished with status     0 in        0.38 seconds (walltime).
 --invoking executable--
/home-3/lcheng24@jhu.edu/work/update/cfour/bin/xvmol
 SERIAL VERSION OF MOLECULE STARTED
********************************************************************************
                    INPUT FROM MOL FILE
********************************************************************************
INTGRL        1    0    1    0    0    0    0    0    0                         
         *** CFOUR Program System (Release V0.1) ***                            
Li2                                                                             
    1    3 X  Y   Z   0.10E-08              0    0                              
   9999.00      3.00                                                            
          3.00000000    1    7    2    2    2    2    2    2    2               
LI#1  -0.000000000000000   0.000000000000000   3.940079795592062                
   19    9                                                                      
   245172.000000000       1.300000000000000E-006  2.000000000000000E-007        
  0.000000000000000E+000  0.000000000000000E+000  0.000000000000000E+000        
  0.000000000000000E+000  0.000000000000000E+000  0.000000000000000E+000        
  0.000000000000000E+000                                                        
   35782.1000000000       1.044000000000000E-005  1.630000000000000E-006        
  0.000000000000000E+000  0.000000000000000E+000  0.000000000000000E+000        
  0.000000000000000E+000  0.000000000000000E+000  0.000000000000000E+000        
  0.000000000000000E+000                                                        
   7999.22000000000       5.612000000000000E-005  8.770000000000001E-006        
  0.000000000000000E+000  0.000000000000000E+000  0.000000000000000E+000        
  0.000000000000000E+000  0.000000000000000E+000  0.000000000000000E+000        
  0.000000000000000E+000                                                        
   2229.05000000000       2.424600000000000E-004  3.788000000000000E-005        
  0.000000000000000E+000  0.000000000000000E+000  0.000000000000000E+000        
  0.000000000000000E+000  0.000000000000000E+000  0.000000000000000E+000        
  0.000000000000000E+000                                                        
   715.097000000000       9.036900000000000E-004  1.413600000000000E-004        
  0.000000000000000E+000  0.000000000000000E+000  0.000000000000000E+000        
  0.000000000000000E+000  0.000000000000000E+000  0.000000000000000E+000        
  0.000000000000000E+000                                                        
   254.300000000000       2.992260000000000E-003  4.682600000000000E-004        
  0.000000000000000E+000  0.000000000000000E+000  0.000000000000000E+000        
  0.000000000000000E+000  0.000000000000000E+000  0.000000000000000E+000        
  0.000000000000000E+000                                                        
   98.2097000000000       8.946040000000001E-003  1.406460000000000E-003        
  0.000000000000000E+000  0.000000000000000E+000  0.000000000000000E+000        
  0.000000000000000E+000  0.000000000000000E+000  0.000000000000000E+000        
  0.000000000000000E+000                                                        
   40.4968000000000       2.436390000000000E-002  3.854930000000000E-003        
  0.000000000000000E+000  0.000000000000000E+000  0.000000000000000E+000        
  0.000000000000000E+000  0.000000000000000E+000  0.000000000000000E+000        
  0.000000000000000E+000                                                        
   17.5830000000000       5.971695000000000E-002  9.622660000000000E-003        
  0.000000000000000E+000  0.000000000000000E+000  0.000000000000000E+000        
  0.000000000000000E+000  0.000000000000000E+000  0.000000000000000E+000        
  0.000000000000000E+000                                                        
   7.94333000000000       0.127610850000000       2.118297000000000E-002        
  0.000000000000000E+000  0.000000000000000E+000  0.000000000000000E+000        
  0.000000000000000E+000  0.000000000000000E+000  0.000000000000000E+000        
  0.000000000000000E+000                                                        
   3.68942000000000       0.227604550000000       4.028382000000000E-002        
  0.000000000000000E+000  0.000000000000000E+000  0.000000000000000E+000        
  0.000000000000000E+000  0.000000000000000E+000  0.000000000000000E+000        
  0.000000000000000E+000                                                        
   1.74673000000000       0.315915780000000       6.437613000000000E-002        
  0.000000000000000E+000  0.000000000000000E+000  0.000000000000000E+000        
  0.000000000000000E+000  0.000000000000000E+000  0.000000000000000E+000        
  0.000000000000000E+000                                                        
  0.839107000000000       0.000000000000000E+000  0.000000000000000E+000        
   1.00000000000000       0.000000000000000E+000  0.000000000000000E+000        
  0.000000000000000E+000  0.000000000000000E+000  0.000000000000000E+000        
  0.000000000000000E+000                                                        
  0.399736000000000       0.000000000000000E+000  0.000000000000000E+000        
  0.000000000000000E+000   1.00000000000000       0.000000000000000E+000        
  0.000000000000000E+000  0.000000000000000E+000  0.000000000000000E+000        
  0.000000000000000E+000                                                        
  0.120210000000000       0.000000000000000E+000  0.000000000000000E+000        
  0.000000000000000E+000  0.000000000000000E+000   1.00000000000000             
  0.000000000000000E+000  0.000000000000000E+000  0.000000000000000E+000        
  0.000000000000000E+000                                                        
  6.804520000000000E-002  0.000000000000000E+000  0.000000000000000E+000        
  0.000000000000000E+000  0.000000000000000E+000  0.000000000000000E+000        
   1.00000000000000       0.000000000000000E+000  0.000000000000000E+000        
  0.000000000000000E+000                                                        
  3.487700000000000E-002  0.000000000000000E+000  0.000000000000000E+000        
  0.000000000000000E+000  0.000000000000000E+000  0.000000000000000E+000        
  0.000000000000000E+000   1.00000000000000       0.000000000000000E+000        
  0.000000000000000E+000                                                        
  1.744200000000000E-002  0.000000000000000E+000  0.000000000000000E+000        
  0.000000000000000E+000  0.000000000000000E+000  0.000000000000000E+000        
  0.000000000000000E+000  0.000000000000000E+000   1.00000000000000             
  0.000000000000000E+000                                                        
  5.400000000000000E-003  0.000000000000000E+000  0.000000000000000E+000        
  0.000000000000000E+000  0.000000000000000E+000  0.000000000000000E+000        
  0.000000000000000E+000  0.000000000000000E+000  0.000000000000000E+000        
   1.00000000000000                                                             
    6    6                                                                      
   72.0571000000000        1.00000000000000       0.000000000000000E+000        
  0.000000000000000E+000  0.000000000000000E+000  0.000000000000000E+000        
  0.000000000000000E+000                                                        
   39.6354000000000       0.000000000000000E+000   1.00000000000000             
  0.000000000000000E+000  0.000000000000000E+000  0.000000000000000E+000        
  0.000000000000000E+000                                                        
   21.8016000000000       0.000000000000000E+000  0.000000000000000E+000        
   1.00000000000000       0.000000000000000E+000  0.000000000000000E+000        
  0.000000000000000E+000                                                        
   11.9921000000000       0.000000000000000E+000  0.000000000000000E+000        
  0.000000000000000E+000   1.00000000000000       0.000000000000000E+000        
  0.000000000000000E+000                                                        
   6.59630000000000       0.000000000000000E+000  0.000000000000000E+000        
  0.000000000000000E+000  0.000000000000000E+000   1.00000000000000             
  0.000000000000000E+000                                                        
   3.62830000000000       0.000000000000000E+000  0.000000000000000E+000        
  0.000000000000000E+000  0.000000000000000E+000  0.000000000000000E+000        
   1.00000000000000                                                             
   11    8                                                                      
   57.1550000000000       8.775000000000001E-005  0.000000000000000E+000        
  0.000000000000000E+000  0.000000000000000E+000  0.000000000000000E+000        
  0.000000000000000E+000  0.000000000000000E+000  0.000000000000000E+000        
   13.5136000000000       7.332100000000000E-004  0.000000000000000E+000        
  0.000000000000000E+000  0.000000000000000E+000  0.000000000000000E+000        
  0.000000000000000E+000  0.000000000000000E+000  0.000000000000000E+000        
   4.32567000000000       3.530080000000000E-003  0.000000000000000E+000        
  0.000000000000000E+000  0.000000000000000E+000  0.000000000000000E+000        
  0.000000000000000E+000  0.000000000000000E+000  0.000000000000000E+000        
   1.58025000000000       1.153326000000000E-002  0.000000000000000E+000        
  0.000000000000000E+000  0.000000000000000E+000  0.000000000000000E+000        
  0.000000000000000E+000  0.000000000000000E+000  0.000000000000000E+000        
  0.610225000000000       0.000000000000000E+000   1.00000000000000             
  0.000000000000000E+000  0.000000000000000E+000  0.000000000000000E+000        
  0.000000000000000E+000  0.000000000000000E+000  0.000000000000000E+000        
  0.250245000000000       0.000000000000000E+000  0.000000000000000E+000        
   1.00000000000000       0.000000000000000E+000  0.000000000000000E+000        
  0.000000000000000E+000  0.000000000000000E+000  0.000000000000000E+000        
  0.110681000000000       0.000000000000000E+000  0.000000000000000E+000        
  0.000000000000000E+000   1.00000000000000       0.000000000000000E+000        
  0.000000000000000E+000  0.000000000000000E+000  0.000000000000000E+000        
  5.198380000000000E-002  0.000000000000000E+000  0.000000000000000E+000        
  0.000000000000000E+000  0.000000000000000E+000   1.00000000000000             
  0.000000000000000E+000  0.000000000000000E+000  0.000000000000000E+000        
  2.539460000000000E-002  0.000000000000000E+000  0.000000000000000E+000        
  0.000000000000000E+000  0.000000000000000E+000  0.000000000000000E+000        
   1.00000000000000       0.000000000000000E+000  0.000000000000000E+000        
  1.245060000000000E-002  0.000000000000000E+000  0.000000000000000E+000        
  0.000000000000000E+000  0.000000000000000E+000  0.000000000000000E+000        
  0.000000000000000E+000   1.00000000000000       0.000000000000000E+000        
  3.900000000000000E-003  0.000000000000000E+000  0.000000000000000E+000        
  0.000000000000000E+000  0.000000000000000E+000  0.000000000000000E+000        
  0.000000000000000E+000  0.000000000000000E+000   1.00000000000000             
    6    6                                                                      
   78.7240000000000        1.00000000000000       0.000000000000000E+000        
  0.000000000000000E+000  0.000000000000000E+000  0.000000000000000E+000        
  0.000000000000000E+000                                                        
   41.3309000000000       0.000000000000000E+000   1.00000000000000             
  0.000000000000000E+000  0.000000000000000E+000  0.000000000000000E+000        
  0.000000000000000E+000                                                        
   21.6991000000000       0.000000000000000E+000  0.000000000000000E+000        
   1.00000000000000       0.000000000000000E+000  0.000000000000000E+000        
  0.000000000000000E+000                                                        
   11.3923000000000       0.000000000000000E+000  0.000000000000000E+000        
  0.000000000000000E+000   1.00000000000000       0.000000000000000E+000        
  0.000000000000000E+000                                                        
   5.98110000000000       0.000000000000000E+000  0.000000000000000E+000        
  0.000000000000000E+000  0.000000000000000E+000   1.00000000000000             
  0.000000000000000E+000                                                        
   3.14010000000000       0.000000000000000E+000  0.000000000000000E+000        
  0.000000000000000E+000  0.000000000000000E+000  0.000000000000000E+000        
   1.00000000000000                                                             
    7    7                                                                      
  0.990000000000000        1.00000000000000       0.000000000000000E+000        
  0.000000000000000E+000  0.000000000000000E+000  0.000000000000000E+000        
  0.000000000000000E+000  0.000000000000000E+000                                
  0.544500000000000       0.000000000000000E+000   1.00000000000000             
  0.000000000000000E+000  0.000000000000000E+000  0.000000000000000E+000        
  0.000000000000000E+000  0.000000000000000E+000                                
  0.299500000000000       0.000000000000000E+000  0.000000000000000E+000        
   1.00000000000000       0.000000000000000E+000  0.000000000000000E+000        
  0.000000000000000E+000  0.000000000000000E+000                                
  0.164800000000000       0.000000000000000E+000  0.000000000000000E+000        
  0.000000000000000E+000   1.00000000000000       0.000000000000000E+000        
  0.000000000000000E+000  0.000000000000000E+000                                
  9.060000000000000E-002  0.000000000000000E+000  0.000000000000000E+000        
  0.000000000000000E+000  0.000000000000000E+000   1.00000000000000             
  0.000000000000000E+000  0.000000000000000E+000                                
  4.980000000000000E-002  0.000000000000000E+000  0.000000000000000E+000        
  0.000000000000000E+000  0.000000000000000E+000  0.000000000000000E+000        
   1.00000000000000       0.000000000000000E+000                                
  2.740000000000000E-002  0.000000000000000E+000  0.000000000000000E+000        
  0.000000000000000E+000  0.000000000000000E+000  0.000000000000000E+000        
  0.000000000000000E+000   1.00000000000000                                     
    5    5                                                                      
   51.9421000000000        1.00000000000000       0.000000000000000E+000        
  0.000000000000000E+000  0.000000000000000E+000  0.000000000000000E+000        
   25.1052000000000       0.000000000000000E+000   1.00000000000000             
  0.000000000000000E+000  0.000000000000000E+000  0.000000000000000E+000        
   12.1341000000000       0.000000000000000E+000  0.000000000000000E+000        
   1.00000000000000       0.000000000000000E+000  0.000000000000000E+000        
   5.86480000000000       0.000000000000000E+000  0.000000000000000E+000        
  0.000000000000000E+000   1.00000000000000       0.000000000000000E+000        
   2.83460000000000       0.000000000000000E+000  0.000000000000000E+000        
  0.000000000000000E+000  0.000000000000000E+000   1.00000000000000             
    6    6                                                                      
  0.889900000000000        1.00000000000000       0.000000000000000E+000        
  0.000000000000000E+000  0.000000000000000E+000  0.000000000000000E+000        
  0.000000000000000E+000                                                        
  0.489500000000000       0.000000000000000E+000   1.00000000000000             
  0.000000000000000E+000  0.000000000000000E+000  0.000000000000000E+000        
  0.000000000000000E+000                                                        
  0.269200000000000       0.000000000000000E+000  0.000000000000000E+000        
   1.00000000000000       0.000000000000000E+000  0.000000000000000E+000        
  0.000000000000000E+000                                                        
  0.148100000000000       0.000000000000000E+000  0.000000000000000E+000        
  0.000000000000000E+000   1.00000000000000       0.000000000000000E+000        
  0.000000000000000E+000                                                        
  8.150000000000000E-002  0.000000000000000E+000  0.000000000000000E+000        
  0.000000000000000E+000  0.000000000000000E+000   1.00000000000000             
  0.000000000000000E+000                                                        
  4.480000000000000E-002  0.000000000000000E+000  0.000000000000000E+000        
  0.000000000000000E+000  0.000000000000000E+000  0.000000000000000E+000        
   1.00000000000000                                                             
    4    4                                                                      
   36.4855000000000        1.00000000000000       0.000000000000000E+000        
  0.000000000000000E+000  0.000000000000000E+000                                
   16.4805000000000       0.000000000000000E+000   1.00000000000000             
  0.000000000000000E+000  0.000000000000000E+000                                
   7.44420000000000       0.000000000000000E+000  0.000000000000000E+000        
   1.00000000000000       0.000000000000000E+000                                
   3.36260000000000       0.000000000000000E+000  0.000000000000000E+000        
  0.000000000000000E+000   1.00000000000000                                     
    5    5                                                                      
  0.695700000000000        1.00000000000000       0.000000000000000E+000        
  0.000000000000000E+000  0.000000000000000E+000  0.000000000000000E+000        
  0.382700000000000       0.000000000000000E+000   1.00000000000000             
  0.000000000000000E+000  0.000000000000000E+000  0.000000000000000E+000        
  0.210500000000000       0.000000000000000E+000  0.000000000000000E+000        
   1.00000000000000       0.000000000000000E+000  0.000000000000000E+000        
  0.115800000000000       0.000000000000000E+000  0.000000000000000E+000        
  0.000000000000000E+000   1.00000000000000       0.000000000000000E+000        
  6.390000000000000E-002  0.000000000000000E+000  0.000000000000000E+000        
  0.000000000000000E+000  0.000000000000000E+000   1.00000000000000             
    3    3                                                                      
   25.5554000000000        1.00000000000000       0.000000000000000E+000        
  0.000000000000000E+000                                                        
   10.4854000000000       0.000000000000000E+000   1.00000000000000             
  0.000000000000000E+000                                                        
   4.30220000000000       0.000000000000000E+000  0.000000000000000E+000        
   1.00000000000000                                                             
    4    4                                                                      
  0.496000000000000        1.00000000000000       0.000000000000000E+000        
  0.000000000000000E+000  0.000000000000000E+000                                
  0.272800000000000       0.000000000000000E+000   1.00000000000000             
  0.000000000000000E+000  0.000000000000000E+000                                
  0.150100000000000       0.000000000000000E+000  0.000000000000000E+000        
   1.00000000000000       0.000000000000000E+000                                
  8.250000000000000E-002  0.000000000000000E+000  0.000000000000000E+000        
  0.000000000000000E+000   1.00000000000000                                     
    2    2                                                                      
   18.4523000000000        1.00000000000000       0.000000000000000E+000        
   6.80970000000000       0.000000000000000E+000   1.00000000000000             
    3    3                                                                      
  0.392200000000000        1.00000000000000       0.000000000000000E+000        
  0.000000000000000E+000                                                        
  0.215700000000000       0.000000000000000E+000   1.00000000000000             
  0.000000000000000E+000                                                        
  0.118700000000000       0.000000000000000E+000  0.000000000000000E+000        
   1.00000000000000                                                             
    1    1                                                                      
   14.8820000000000        1.00000000000000                                     
FINISH                                                                          
 
********************************************************************************
 ONE- AND TWO-ELECTRON INTEGRALS OVER SYMMETRY-ADAPTED AOS ARE CALCULATED.

  SPHERICAL HARMONICS ARE USED.
  
  INTEGRALS LESS THAN  0.10E-13 ARE NEGLECTED.

   BASIS FUNCTION NOT NORMALIZED: 
   CENTER (AS ORDERED IN MOL FILE):   1
   ANGULAR MOMENTUM TYPE          : S
   OFFSET WITHIN ANGULAR MOMENTUM :  1
   <CHI|CHI>                      :    1.4499071260
   BASIS FUNCTION NOT NORMALIZED: 
   CENTER (AS ORDERED IN MOL FILE):   1
   ANGULAR MOMENTUM TYPE          : S
   OFFSET WITHIN ANGULAR MOMENTUM :  2
   <CHI|CHI>                      :    7.8247826694
   BASIS FUNCTION NOT NORMALIZED: 
   CENTER (AS ORDERED IN MOL FILE):   1
   ANGULAR MOMENTUM TYPE          : P
   OFFSET WITHIN ANGULAR MOMENTUM :  1
   <CHI|CHI>                      :   68.2192928525
  NUCLEAR REPULSION ENERGY :    1.1421088489 A.U.
  @MOLECU-I, ONE ELECTRON INTEGRALS (CPU/WALL):       39.40/       0.90 SECONDS.
  @TWOEL-I,   75719046 INTEGRALS OF SYMMETRY TYPE  I I I I
  @TWOEL-I,  866894639 INTEGRALS OF SYMMETRY TYPE  I J I J
  @TWOEL-I,  463651280 INTEGRALS OF SYMMETRY TYPE  I I J J
  @TWOEL-I, 2371601993 INTEGRALS OF SYMMETRY TYPE  I J K L
  @TWOEL-I, TOTAL NUMBER OF 2-E INTEGRALS 3777866958.
  @MOLECU-I, TWO ELECTRON INTEGRALS (CPU/WALL):    15848.67/     420.35 SECONDS.
 @CHECKOUT-I, Total execution time (CPU/WALL):    15888.23/     421.41 seconds.

Running with 48 threads/proc

--executable xvmol finished with status     0 in      422.05 seconds (walltime).
 --invoking executable--
/home-3/lcheng24@jhu.edu/work/update/cfour/bin/xvmol2ja
 @GETMEM-I,  Allocated  858306 MB of main memory.
 @CHECKOUT-I, Total execution time (CPU/WALL):       27.03/       0.72 seconds.
--executable xvmol2ja finished with status     0 in        0.75 seconds (walltime).
 --invoking executable--
/home-3/lcheng24@jhu.edu/work/update/cfour/bin/xvscf
  There are  754 functions in the AO basis.

  There are 8 irreducible representations.

       Irrep        # of functions
         1                131
         2                 92
         3                 92
         4                 62
         5                131
         6                 92
         7                 92
         8                 62


  Parameters for SCF calculation: 
        SCF reference function: ROHF  
  Maximum number of iterations:  150
     Full symmetry point group: DXh 
     Computational point group: D2h 
        Initial density matrix: MOREAD                 
     SCF convergence tolerance: 10**(- 6)
  DIIS convergence acceleration:  ON
          Latest start for DIIS:   8
                     DIIS order:   6

     Alpha population by irrep:   2    0    0    0    2    0    0    0
      Beta population by irrep:   1    0    0    0    1    0    0    0


  Warning: SCF convergence tolerance of 10**(- 6) is not too stringent.
           *****   Use results with CAUTION!!!   *****

  Memory information:   42758734 words required.
  Fock matrices are constructed from AO integral file.
 @GETMEM-I,  Allocated     326 MB of main memory.
  Initialization and symmetry analysis required      0.004 seconds.

   Smallest overlap matrix eigenvalues 
     Symmetry    Eigenvalue    
         1      .5551629834D-06  (warning)   
         2      .1380489734D-02              
         3      .1380489734D-02              
         4      .2906401473D-02              
         5      .5540370629D-06  (warning)   
         6      .3771744542D-04  (warning)   
         7      .3771744538D-04  (warning)   
         8      .9657109678D-03              
  --------------------------------------------------------------------
  Iteration         Total Energy            Largest Density Difference
  --------------------------------------------------------------------
       0             1.142108848920863              0.0000000000D+00
   current occupation vector 
     2  0  0  0  2  0  0  0
     1  0  0  0  1  0  0  0
       1           -13.943651664161202              0.1358092375D+01
   current occupation vector 
     2  0  0  0  2  0  0  0
     1  0  0  0  1  0  0  0
       2           -14.537487058203562              0.2278072224D+02
   current occupation vector 
     2  0  0  0  2  0  0  0
     1  0  0  0  1  0  0  0
       3           -14.851202841632567              0.2277292195D+02
   current occupation vector 
     2  0  0  0  2  0  0  0
     1  0  0  0  1  0  0  0
       4           -14.862385756994922              0.1396158851D+00
   current occupation vector 
     2  0  0  0  2  0  0  0
     1  0  0  0  1  0  0  0
       5           -14.863774512126231              0.1100342241D+00
   current occupation vector 
     2  0  0  0  2  0  0  0
     1  0  0  0  1  0  0  0
       6           -14.863791793404882              0.1655575428D+00
   current occupation vector 
     2  0  0  0  2  0  0  0
     1  0  0  0  1  0  0  0
       7           -14.864015124834022              0.1304900984D+00
   current occupation vector 
     2  0  0  0  2  0  0  0
     1  0  0  0  1  0  0  0
       8           -14.864020336901717              0.5467605665D-01
   current occupation vector 
     2  0  0  0  2  0  0  0
     1  0  0  0  1  0  0  0
       9           -14.864020673177688              0.9031777230D-02
   current occupation vector 
     2  0  0  0  2  0  0  0
     1  0  0  0  1  0  0  0
      10           -14.864020698052283              0.2630285005D-02
   current occupation vector 
     2  0  0  0  2  0  0  0
     1  0  0  0  1  0  0  0
      11           -14.864020699193240              0.2185547627D-02
   current occupation vector 
     2  0  0  0  2  0  0  0
     1  0  0  0  1  0  0  0
      12           -14.864020699317916              0.7338786212D-03
   current occupation vector 
     2  0  0  0  2  0  0  0
     1  0  0  0  1  0  0  0
      13           -14.864020699352658              0.1579387472D-03
   current occupation vector 
     2  0  0  0  2  0  0  0
     1  0  0  0  1  0  0  0
      14           -14.864020699354796              0.1898197354D-04
   current occupation vector 
     2  0  0  0  2  0  0  0
     1  0  0  0  1  0  0  0
      15           -14.864020699354992              0.7256049582D-05
   current occupation vector 
     2  0  0  0  2  0  0  0
     1  0  0  0  1  0  0  0
      16           -14.864020699354970              0.4779468333D-05
   current occupation vector 
     2  0  0  0  2  0  0  0
     1  0  0  0  1  0  0  0

  SCF has converged.

 Density matrix saved to file den.dat
 total alpha spin electron number:   4.00000000000003     
 total  beta spin electron number:   2.00000000000002     
     E(ROHF)=       -14.864020699355148              0.4021735109D-06

  Eigenvector printing suppressed.


       The average multiplicity is    3.0000000
  The expectation value of S**2 is    2.0000000

 @PUTMOS-I, Writing converged MOs to NEWMOS. 
 @PUTMOS-I, Symmetry   1 Full Blocks 32 Partial Blocksize   3
 @PUTMOS-I, Symmetry   2 Full Blocks 23 Partial Blocksize   0
 @PUTMOS-I, Symmetry   3 Full Blocks 23 Partial Blocksize   0
 @PUTMOS-I, Symmetry   4 Full Blocks 15 Partial Blocksize   2
 @PUTMOS-I, Symmetry   5 Full Blocks 32 Partial Blocksize   3
 @PUTMOS-I, Symmetry   6 Full Blocks 23 Partial Blocksize   0
 @PUTMOS-I, Symmetry   7 Full Blocks 23 Partial Blocksize   0
 @PUTMOS-I, Symmetry   8 Full Blocks 15 Partial Blocksize   2
 @PUTFOCK-I, Writing converged Fock matrix to NEWFOCK. 
 @PUTFOCK-I, Symmetry   1 Full Blocks 32 Partial Blocksize   3
 @PUTFOCK-I, Symmetry   2 Full Blocks 23 Partial Blocksize   0
 @PUTFOCK-I, Symmetry   3 Full Blocks 23 Partial Blocksize   0
 @PUTFOCK-I, Symmetry   4 Full Blocks 15 Partial Blocksize   2
 @PUTFOCK-I, Symmetry   5 Full Blocks 32 Partial Blocksize   3
 @PUTFOCK-I, Symmetry   6 Full Blocks 23 Partial Blocksize   0
 @PUTFOCK-I, Symmetry   7 Full Blocks 23 Partial Blocksize   0
 @PUTFOCK-I, Symmetry   8 Full Blocks 15 Partial Blocksize   2
  @DMPJOB-I, Rotating orbitals to semicanonical basis.
             *** Eigenvalues correspond to new basis. ***

  @PRJDEN-I, Basis set contains h and/or higher angular momentum functions.
             Analysis of density matrix symmetry not available.
             Check irreps of the molecular orbitals in the full point group
             for presence of an asymmetric solution.

 
  ORBITAL EIGENVALUES (ALPHA)  (1H = 27.2113834 eV)

       MO #        E(hartree)               E(eV)           FULLSYM    COMPSYM
       ----   --------------------   --------------------   -------   ---------
    1   378          -2.4853077354         -67.6286616543    PI         B1u (5)
    2     1          -2.4853075943         -67.6286578159    PI          Ag (1)
    3     2          -0.2276539173          -6.1947780254    SGg+        Ag (1)
    4   379          -0.1706314248          -4.6431171216    SGu+       B1u (5)
  +++++++++++++++++++++++++++++++++++++++++++++++++++++++++++++++++++++++++++++
    5     3           0.0038510706           0.1047929575    SGg+        Ag (1)
    6   132           0.0044927247           0.1222532543    PIu        B2u (2)
    7   224           0.0044927247           0.1222532543    PIu        B3u (3)
    8   380           0.0069188700           0.1882720237    SGu+       B1u (5)
    9   601           0.0117725478           0.3203473107    PIg        B2g (7)
   10   509           0.0117725478           0.3203473107    PIg        B3g (6)
   11     4           0.0136788130           0.3722194244    SGg+        Ag (1)
   12   225           0.0152629097           0.4153248864    PIu        B3u (3)
   13   133           0.0152629097           0.4153248864    PIu        B2u (2)
   14     5           0.0155214011           0.4223587953    SGg+        Ag (1)
   15   381           0.0232475202           0.6325971865    SGu+       B1u (5)
   16   602           0.0317500737           0.8639634284    PIg        B2g (7)
   17   510           0.0317500737           0.8639634284    PIg        B3g (6)
   18   382           0.0421815017           1.1478170161    SGu+       B1u (5)
   19     6           0.0503266401           1.3694575000    SGg+        Ag (1)
   20   226           0.0548002860           1.4911915930    PIu        B3u (3)
   21   134           0.0548002860           1.4911915930    PIu        B2u (2)
   22     7           0.0617057564           1.6790989961    SGg+        Ag (1)
   23   316           0.0633857983           1.7248152600    DEg        B1g (4)
   24     8           0.0633857983           1.7248152600    DEg         Ag (1)
   25   511           0.0664235691           1.8074772063    PIg        B3g (6)
   26   603           0.0664235691           1.8074772063    PIg        B2g (7)
   27   383           0.0699967859           1.9047093774    SGu+       B1u (5)
   28   227           0.0814721565           2.2169700873    PIu        B3u (3)
   29   135           0.0814721565           2.2169700873    PIu        B2u (2)
   30   693           0.0849462933           2.3115061567    DEu         Au (8)
   31   384           0.0849462933           2.3115061567    DEu        B1u (5)
   32   385           0.0910269940           2.4769704328    SGu+       B1u (5)
   33     9           0.1076738660           2.9299548496    SGg+        Ag (1)
   34   604           0.1087143120           2.9582668250    PIg        B2g (7)
   35   512           0.1087143120           2.9582668250    PIg        B3g (6)
   36    10           0.1333154650           3.6276982323    SGg+        Ag (1)
   37   386           0.1341239569           3.6496984130    SGu+       B1u (5)
   38   513           0.1473199336           4.0087791949    PIg        B3g (6)
   39   605           0.1473199336           4.0087791949    PIg        B2g (7)
   40   228           0.1482444433           4.0339363842    PHu        B3u (3)
   41   136           0.1482444433           4.0339363842    PHu        B2u (2)
   42   137           0.1499532803           4.0804362022    PIu        B2u (2)
   43   229           0.1499532803           4.0804362022    PIu        B3u (3)
   44   387           0.1598183891           4.3488794591    SGu+       B1u (5)
   45   317           0.1628644424           4.4317667847    DEg        B1g (4)
   46    11           0.1628644424           4.4317667847    DEg         Ag (1)
   47   514           0.1777940101           4.8380209744    PHg        B3g (6)
   48   606           0.1777940101           4.8380209744    PHg        B2g (7)
   49   318           0.1827574492           4.9730830183    DEg        B1g (4)
   50    12           0.1827574492           4.9730830183    DEg         Ag (1)
   51    13           0.1834130947           4.9909240402    SGg+        Ag (1)
   52   230           0.1837557999           5.0002495239    PIu        B3u (3)
   53   138           0.1837557999           5.0002495239    PIu        B2u (2)
   54   694           0.2018800504           5.4934354517    DEu         Au (8)
   55   388           0.2018800504           5.4934354517    DEu        B1u (5)
   56   139           0.2078159286           5.6549589085    PIu        B2u (2)
   57   231           0.2078159286           5.6549589085    PIu        B3u (3)
   58   695           0.2096431580           5.7046803498    DEu         Au (8)
   59   389           0.2096431580           5.7046803498    DEu        B1u (5)
   60   390           0.2121203042           5.7720869258    SGu+       B1u (5)
   61    14           0.2224454477           6.0530483632    SGg+        Ag (1)
   62   515           0.2253384813           6.1317718100    PIg        B3g (6)
   63   607           0.2253384813           6.1317718100    PIg        B2g (7)
   64   516           0.2604242306           7.0865035860    PIg        B3g (6)
   65   608           0.2604242306           7.0865035861    PIg        B2g (7)
   66   391           0.2661029948           7.2410306155    SGu+       B1u (5)
   67    15           0.2684456514           7.3047775430    SGg+        Ag (1)
   68    16           0.2770485913           7.5388754375    GAg         Ag (1)
   69   319           0.2770485913           7.5388754375    GAg        B1g (4)
   70   392           0.2803613794           7.6290209864    SGu+       B1u (5)
   71   232           0.2884215697           7.8483499150    PHu        B3u (3)
   72   140           0.2884215697           7.8483499150    PHu        B2u (2)
   73   393           0.3106066435           8.4520364632    GAu        B1u (5)
   74   696           0.3106066435           8.4520364632    GAu         Au (8)
   75    17           0.3182425536           8.6598201399    SGg+        Ag (1)
   76   320           0.3354418706           9.1278373497    DEg        B1g (4)
   77    18           0.3354418706           9.1278373497    DEg         Ag (1)
   78   141           0.3376011397           9.1865940481    PIu        B2u (2)
   79   233           0.3376011397           9.1865940481    PIu        B3u (3)
   80   517           0.3417437514           9.2993202440    PIg        B3g (6)
   81   609           0.3417437514           9.2993202440    PIg        B2g (7)
   82   610           0.3602564974           9.8030776739    PHg        B2g (7)
   83   518           0.3602564974           9.8030776739    PHg        B3g (6)
   84   234           0.3617161359           9.8427964551    PIu        B3u (3)
   85   142           0.3617161359           9.8427964551    PIu        B2u (2)
   86   235           0.3884674708          10.5707372860    PHu        B3u (3)
   87   143           0.3884674708          10.5707372860    PHu        B2u (2)
   88   321           0.3921630209          10.6712983183    DEg        B1g (4)
   89    19           0.3921630209          10.6712983183    DEg         Ag (1)
   90   697           0.3954369186          10.7603856028    DEu         Au (8)
   91   394           0.3954369186          10.7603856028    DEu        B1u (5)
   92    20           0.4056627924          11.0386457754    SGg+        Ag (1)
   93   322           0.4068446164          11.0708048403    DEg        B1g (4)
   94    21           0.4068446164          11.0708048404    DEg         Ag (1)
   95   519           0.4131796463          11.2431897690    PHg        B3g (6)
   96   611           0.4131796463          11.2431897690    PHg        B2g (7)
   97   698           0.4136534875          11.2560836428    DEu         Au (8)
   98   395           0.4136534875          11.2560836428    DEu        B1u (5)
   99   396           0.4159855023          11.3195409913    SGu+       B1u (5)
  100   236           0.4209665095          11.4550810876    PIu        B3u (3)
  101   144           0.4209665095          11.4550810876    PIu        B2u (2)
  102   612           0.4336983825          11.8015329670    PIg        B2g (7)
  103   520           0.4336983825          11.8015329670    PIg        B3g (6)
  104    22           0.4391118793          11.9488417033    SGg+        Ag (1)
  105   397           0.4393204161          11.9545162780    SGu+       B1u (5)
  106   237           0.4472097653          12.1691963840    PHu        B3u (3)
  107   145           0.4472097653          12.1691963840    PHu        B2u (2)
  108    23           0.4485565470          12.2058441759    GAg         Ag (1)
  109   323           0.4485565470          12.2058441759    GAg        B1g (4)
  110   238           0.4535988082          12.3430510800    PIu        B3u (3)
  111   146           0.4535988082          12.3430510800    PIu        B2u (2)
  112   699           0.4612280919          12.5506544431    DEu         Au (8)
  113   398           0.4612280919          12.5506544431    DEu        B1u (5)
  114   521           0.4702287369          12.7955744464    PIg        B3g (6)
  115   613           0.4702287369          12.7955744464    PIg        B2g (7)
  116   399           0.4741685345          12.9027817897    SGu+       B1u (5)
  117   614           0.4802831076          13.0691677817    PHg        B2g (7)
  118   522           0.4802831076          13.0691677817    PHg        B3g (6)
  119   400           0.5007640122          13.6264815297    SGu+       B1u (5)
  120   147           0.5048239066          13.7369568716    PHu        B2u (2)
  121   239           0.5048239066          13.7369568716    PHu        B3u (3)
  122    24           0.5231775028          14.2363836146    SGg+        Ag (1)
  123   401           0.5356851813          14.5767348504    GAu        B1u (5)
  124   700           0.5356851813          14.5767348504    GAu         Au (8)
  125    25           0.5630252906          15.3206970478    SGg+        Ag (1)
  126   615           0.5752596561          15.6536110570    PIg        B2g (7)
  127   523           0.5752596561          15.6536110570    PIg        B3g (6)
  128    26           0.5922126217          16.1149247037    DEg         Ag (1)
  129   324           0.5922126217          16.1149247037    DEg        B1g (4)
  130   240           0.6009809456          16.3535229278    PIu        B3u (3)
  131   148           0.6009809456          16.3535229278    PIu        B2u (2)
  132   616           0.6205473628          16.8859522069    PHg        B2g (7)
  133   524           0.6205473628          16.8859522069    PHg        B3g (6)
  134    27           0.6300367158          17.1441706304    SGg+        Ag (1)
  135   617           0.6555701148          17.8389697387    PIg        B2g (7)
  136   525           0.6555701148          17.8389697387    PIg        B3g (6)
  137   701           0.6573399565          17.8871295792    DEu         Au (8)
  138   402           0.6573399565          17.8871295792    DEu        B1u (5)
  139   403           0.6738661699          18.3368307100    SGu+       B1u (5)
  140   241           0.6769332902          18.4202912948    PHu        B3u (3)
  141   149           0.6769332902          18.4202912948    PHu        B2u (2)
  142    28           0.6797066672          18.4957587212    GAg         Ag (1)
  143   325           0.6797066672          18.4957587212    GAg        B1g (4)
  144   404           0.7044588479          19.1692997991    GAu        B1u (5)
  145   702           0.7044588479          19.1692997991    GAu         Au (8)
  146   326           0.7156773596          19.4745710225    DEg        B1g (4)
  147    29           0.7156773596          19.4745710225    DEg         Ag (1)
  148    30           0.7263104534          19.7639122145    SGg+        Ag (1)
  149   150           0.7320935542          19.9212783884    PIu        B2u (2)
  150   242           0.7320935542          19.9212783884    PIu        B3u (3)
  151   526           0.7426986947          20.2098589315    PHg        B3g (6)
  152   618           0.7426986947          20.2098589315    PHg        B2g (7)
  153   405           0.7549248122          20.5425485031    SGu+       B1u (5)
  154   243           0.7586779011          20.6446752446    PHu        B3u (3)
  155   151           0.7586779011          20.6446752446    PHu        B2u (2)
  156   327           0.7800965037          21.2275050518    XXXX      XXXX (4)
  157    31           0.7800965037          21.2275050518    XXXX      XXXX (1)
  158   619           0.7881147715          21.4456932112    PIg        B2g (7)
  159   527           0.7881147715          21.4456932112    PIg        B3g (6)
  160   244           0.7962650571          21.6674737556    PIu        B3u (3)
  161   152           0.7962650571          21.6674737556    PIu        B2u (2)
  162    32           0.8006614481          21.7871056370    GAg         Ag (1)
  163   328           0.8006614481          21.7871056370    GAg        B1g (4)
  164   703           0.8019146027          21.8212057085    DEu         Au (8)
  165   406           0.8019146027          21.8212057085    DEu        B1u (5)
  166   704           0.8043279248          21.8868755421    XXXX      XXXX (8)
  167   407           0.8043279248          21.8868755421    XXXX      XXXX (5)
  168   329           0.8111655210          22.0729359937    DEg        B1g (4)
  169    33           0.8111655210          22.0729359937    DEg         Ag (1)
  170   330           0.8172384766          22.2381895154    DEg        B1g (4)
  171    34           0.8172384766          22.2381895154    DEg         Ag (1)
  172   245           0.8233847433          22.4054379363    PHu        B3u (3)
  173   153           0.8233847433          22.4054379363    PHu        B2u (2)
  174   408           0.8272591595          22.5108661602    SGu+       B1u (5)
  175   705           0.8387906551          22.8246541075    DEu         Au (8)
  176   409           0.8387906551          22.8246541075    DEu        B1u (5)
  177   528           0.8421595655          22.9163268203    PHg        B3g (6)
  178   620           0.8421595655          22.9163268203    PHg        B2g (7)
  179   621           0.8583693538          23.3574175856    PHg        B2g (7)
  180   529           0.8583693538          23.3574175856    PHg        B3g (6)
  181   154           0.8599114047          23.3993789222    PIu        B2u (2)
  182   246           0.8599114047          23.3993789222    PIu        B3u (3)
  183    35           0.8652293883          23.5440886131    SGg+        Ag (1)
  184   530           0.8920203855          24.2731087097    PIg        B3g (6)
  185   622           0.8920203855          24.2731087098    PIg        B2g (7)
  186   410           0.8959408402          24.3797897070    SGu+       B1u (5)
  187   247           0.9032082430          24.5775457909    PIu        B3u (3)
  188   155           0.9032082430          24.5775457909    PIu        B2u (2)
  189   156           0.9074650120          24.6933783625    PHu        B2u (2)
  190   248           0.9074650120          24.6933783625    PHu        B3u (3)
  191   706           0.9155645417          24.9137777722    DEu         Au (8)
  192   411           0.9155645417          24.9137777722    DEu        B1u (5)
  193    36           0.9201677906          25.0390385416    SGg+        Ag (1)
  194   412           0.9228518032          25.1120742380    SGu+       B1u (5)
  195   413           0.9627009378          26.1964243170    GAu        B1u (5)
  196   707           0.9627009378          26.1964243170    GAu         Au (8)
  197   623           0.9633819877          26.2149566290    PIg        B2g (7)
  198   531           0.9633819877          26.2149566291    PIg        B3g (6)
  199    37           1.0399552040          28.2986197743    GAg         Ag (1)
  200   331           1.0399552040          28.2986197743    GAg        B1g (4)
  201    38           1.0414892039          28.3403620343    DEg         Ag (1)
  202   332           1.0414892039          28.3403620343    DEg        B1g (4)
  203    39           1.0456699665          28.4541263671    SGg+        Ag (1)
  204   249           1.0458706348          28.4595868306    PHu        B3u (3)
  205   157           1.0458706348          28.4595868306    PHu        B2u (2)
  206   532           1.0639115886          28.9505061415    PHg        B3g (6)
  207   624           1.0639115886          28.9505061415    PHg        B2g (7)
  208   158           1.0676094653          29.0511304811    PHu        B2u (2)
  209   250           1.0676094653          29.0511304811    PHu        B3u (3)
  210   625           1.0818456410          29.4385165168    PIg        B2g (7)
  211   533           1.0818456410          29.4385165168    PIg        B3g (6)
  212   534           1.0883541018          29.6156207384    PHg        B3g (6)
  213   626           1.0883541018          29.6156207384    PHg        B2g (7)
  214   251           1.0963123896          29.8321767595    PIu        B3u (3)
  215   159           1.0963123896          29.8321767595    PIu        B2u (2)
  216   414           1.1006881186          29.9512463986    GAu        B1u (5)
  217   708           1.1006881186          29.9512463986    GAu         Au (8)
  218    40           1.1007159162          29.9520028097    SGg+        Ag (1)
  219   415           1.1037461940          30.0344608619    SGu+       B1u (5)
  220   709           1.1224120818          30.5423854916    DEu         Au (8)
  221   416           1.1224120818          30.5423854917    DEu        B1u (5)
  222   333           1.1285145901          30.7084431844    DEg        B1g (4)
  223    41           1.1285145901          30.7084431844    DEg         Ag (1)
  224   627           1.1289619769          30.7206171972    PIg        B2g (7)
  225   535           1.1289619769          30.7206171972    PIg        B3g (6)
  226   417           1.1586943188          31.5296753526    SGu+       B1u (5)
  227    42           1.1748489397          31.9692649355    SGg+        Ag (1)
  228   536           1.1786872921          32.0737118153    PHg        B3g (6)
  229   628           1.1786872921          32.0737118153    PHg        B2g (7)
  230   252           1.1997283941          32.6462693067    PIu        B3u (3)
  231   160           1.1997283941          32.6462693067    PIu        B2u (2)
  232   710           1.3141601078          35.7601145432    DEu         Au (8)
  233   418           1.3141601078          35.7601145432    DEu        B1u (5)
  234    43           1.3681679080          37.2297414997    SGg+        Ag (1)
  235    44           1.3930469947          37.9067358679    GAg         Ag (1)
  236   334           1.3930469947          37.9067358679    GAg        B1g (4)
  237   161           1.4000499477          38.0972959051    PHu        B2u (2)
  238   253           1.4000499477          38.0972959051    PHu        B3u (3)
  239   419           1.4041302335          38.2083261267    SGu+       B1u (5)
  240   420           1.4104740216          38.3809493765    GAu        B1u (5)
  241   711           1.4104740216          38.3809493765    GAu         Au (8)
  242   629           1.4240476433          38.7503064022    PIg        B2g (7)
  243   537           1.4240476433          38.7503064023    PIg        B3g (6)
  244    45           1.4470771778          39.3769718952    DEg         Ag (1)
  245   335           1.4470771778          39.3769718952    DEg        B1g (4)
  246   630           1.4580264911          39.6749178558    PIg        B2g (7)
  247   538           1.4580264911          39.6749178558    PIg        B3g (6)
  248   631           1.4621158438          39.7861948018    PHg        B2g (7)
  249   539           1.4621158438          39.7861948018    PHg        B3g (6)
  250   162           1.4818435457          40.3230128615    PIu        B2u (2)
  251   254           1.4818435457          40.3230128615    PIu        B3u (3)
  252   712           1.5341894471          41.7474172539    DEu         Au (8)
  253   421           1.5341894471          41.7474172539    DEu        B1u (5)
  254    46           1.5385235409          41.8653539407    SGg+        Ag (1)
  255   422           1.5413110973          41.9412072067    SGu+       B1u (5)
  256   336           1.5565414347          42.3556457570    DEg        B1g (4)
  257    47           1.5565414347          42.3556457570    DEg         Ag (1)
  258   255           1.6077825852          43.7499883496    PHu        B3u (3)
  259   163           1.6077825852          43.7499883496    PHu        B2u (2)
  260   632           1.6266170306          44.2624996643    PHg        B2g (7)
  261   540           1.6266170306          44.2624996643    PHg        B3g (6)
  262   337           1.6308333398          44.3772312700    DEg        B1g (4)
  263    48           1.6308333398          44.3772312700    DEg         Ag (1)
  264   164           1.6412520249          44.6607381066    PIu        B2u (2)
  265   256           1.6412520249          44.6607381066    PIu        B3u (3)
  266   423           1.6472622635          44.8242850115    SGu+       B1u (5)
  267   713           1.6636222765          45.2694635981    DEu         Au (8)
  268   424           1.6636222765          45.2694635982    DEu        B1u (5)
  269    49           1.6874021531          45.9165469376    SGg+        Ag (1)
  270   165           1.6959197815          46.1483233893    PIu        B2u (2)
  271   257           1.6959197815          46.1483233893    PIu        B3u (3)
  272   258           1.7349905214          47.2114922728    PHu        B3u (3)
  273   166           1.7349905214          47.2114922728    PHu        B2u (2)
  274   714           1.7352049413          47.2173269354    DEu         Au (8)
  275   425           1.7352049413          47.2173269354    DEu        B1u (5)
  276   259           1.7466324441          47.5282850951    PHu        B3u (3)
  277   167           1.7466324441          47.5282850951    PHu        B2u (2)
  278   338           1.7499669425          47.6190214109    GAg        B1g (4)
  279    50           1.7499669425          47.6190214109    GAg         Ag (1)
  280    51           1.7508262667          47.6424048093    DEg         Ag (1)
  281   339           1.7508262667          47.6424048093    DEg        B1g (4)
  282   340           1.7541405741          47.7325917003    XXXX      XXXX (4)
  283    52           1.7541405741          47.7325917003    XXXX      XXXX (1)
  284   633           1.7608782864          47.9159341712    PIg        B2g (7)
  285   541           1.7608782864          47.9159341712    PIg        B3g (6)
  286   715           1.7653317962          48.0371203336    XXXX      XXXX (8)
  287   426           1.7653317962          48.0371203336    XXXX      XXXX (5)
  288    53           1.7779487434          48.3804449219    SGg+        Ag (1)
  289   634           1.7891434708          48.6850689425    PHg        B2g (7)
  290   542           1.7891434708          48.6850689425    PHg        B3g (6)
  291   427           1.8192930681          49.5054811918    SGu+       B1u (5)
  292   168           1.8380900887          50.0169741268    PIu        B2u (2)
  293   260           1.8380900887          50.0169741268    PIu        B3u (3)
  294   716           1.8436523000          50.1683295927    GAu         Au (8)
  295   428           1.8436523000          50.1683295927    GAu        B1u (5)
  296   635           1.8539759093          50.4492492813    PIg        B2g (7)
  297   543           1.8539759093          50.4492492814    PIg        B3g (6)
  298   429           1.8571887800          50.5366759394    SGu+       B1u (5)
  299   636           1.9518519497          53.1125917429    PHg        B2g (7)
  300   544           1.9518519497          53.1125917429    PHg        B3g (6)
  301   637           2.0071454653          54.6172047971    PIg        B2g (7)
  302   545           2.0071454653          54.6172047971    PIg        B3g (6)
  303    54           2.0262763064          55.1377814472    SGg+        Ag (1)
  304   717           2.0724179842          56.3933603325    DEu         Au (8)
  305   430           2.0724179842          56.3933603326    DEu        B1u (5)
  306    55           2.1049185655          57.2777461103    GAg         Ag (1)
  307   341           2.1049185655          57.2777461103    GAg        B1g (4)
  308   261           2.1077788759          57.3555791135    PHu        B3u (3)
  309   169           2.1077788759          57.3555791135    PHu        B2u (2)
  310   431           2.1126574022          57.4883305645    SGu+       B1u (5)
  311   546           2.1213862523          57.7258546520    PHg        B3g (6)
  312   638           2.1213862523          57.7258546520    PHg        B2g (7)
  313   262           2.1253088490          57.8325939322    PIu        B3u (3)
  314   170           2.1253088490          57.8325939322    PIu        B2u (2)
  315   171           2.1378979666          58.1751612396    PHu        B2u (2)
  316   263           2.1378979666          58.1751612396    PHu        B3u (3)
  317   432           2.1511792249          58.5365626498    GAu        B1u (5)
  318   718           2.1511792249          58.5365626498    GAu         Au (8)
  319   639           2.2087110064          60.1020820153    PHg        B2g (7)
  320   547           2.2087110064          60.1020820153    PHg        B3g (6)
  321   640           2.2249611059          60.5442697017    PIg        B2g (7)
  322   548           2.2249611059          60.5442697017    PIg        B3g (6)
  323    56           2.2255052215          60.5590758419    DEg         Ag (1)
  324   342           2.2255052215          60.5590758419    DEg        B1g (4)
  325   719           2.2445240300          61.0766039305    DEu         Au (8)
  326   433           2.2445240300          61.0766039305    DEu        B1u (5)
  327    57           2.2451940450          61.0948359649    SGg+        Ag (1)
  328    58           2.2688763185          61.7392633904    SGg+        Ag (1)
  329   434           2.2776235111          61.9772866026    SGu+       B1u (5)
  330   641           2.2948967387          62.4473150196    PIg        B2g (7)
  331   549           2.2948967387          62.4473150197    PIg        B3g (6)
  332   172           2.2980972433          62.5344051772    PIu        B2u (2)
  333   264           2.2980972433          62.5344051772    PIu        B3u (3)
  334   435           2.5440221895          69.2263631779    SGu+       B1u (5)
  335    59           2.7045552916          73.5946909676    GAg         Ag (1)
  336   343           2.7045552916          73.5946909676    GAg        B1g (4)
  337   173           2.7097195185          73.7352167233    PHu        B2u (2)
  338   265           2.7097195185          73.7352167233    PHu        B3u (3)
  339   436           2.7180759362          73.9626064096    GAu        B1u (5)
  340   720           2.7180759362          73.9626064096    GAu         Au (8)
  341    60           2.7402648765          74.5663981733    DEg         Ag (1)
  342   344           2.7402648765          74.5663981734    DEg        B1g (4)
  343    61           2.7481884458          74.7820094549    SGg+        Ag (1)
  344   642           2.7531648534          74.9174243880    PHg        B2g (7)
  345   550           2.7531648534          74.9174243880    PHg        B3g (6)
  346   266           2.7704339474          75.3873403265    PIu        B3u (3)
  347   174           2.7704339474          75.3873403265    PIu        B2u (2)
[...]
   227         0.0734875        3       604         0.1100405        7
   228         0.0851669        3       605         0.1660415        7
   229         0.1501841        3       606         0.1796649        7
   230         0.1674319        3       607         0.2314343        7
   231         0.1977785        3       608         0.2699136        7
   232         0.2097752        3       609         0.3487511        7
   233         0.2905056        3       610         0.3619334        7
   234         0.3496566        3       611         0.4194989        7
   235         0.3738186        3       612         0.4456867        7
   236         0.3947908        3       613         0.4782139        7
   237         0.4274344        3       614         0.4817284        7
   238         0.4486407        3       615         0.5789009        7
   239         0.4597578        3       616         0.6222202        7
   240         0.5070344        3       617         0.6625959        7
   241         0.6090601        3       618         0.7476463        7
   242         0.6820899        3       619         0.7968817        7
   243         0.7395013        3       620         0.8503671        7
   244         0.7605557        3       621         0.8601333        7
   245         0.8046901        3       622         0.9001620        7
   246         0.8318522        3       623         0.9701278        7
   247         0.8674770        3       624         1.0677458        7
   248         0.9097462        3       625         1.0845801        7
   249         0.9105858        3       626         1.0905754        7
   250         1.0497136        3       627         1.1350877        7
   251         1.0714403        3       628         1.1830654        7
   252         1.1020057        3       629         1.4299143        7
   253         1.2066058        3       630         1.4651565        7
   254         1.4066267        3       631         1.4681831        7
   255         1.4886301        3       632         1.6338581        7
   256         1.6152017        3       633         1.7671601        7
   257         1.6477045        3       634         1.7928099        7
   258         1.7027771        3       635         1.8589779        7
   259         1.7391576        3       636         1.9560731        7
   260         1.7503387        3       637         2.0118544        7
   261         1.8437065        3       638         2.1263672        7
   262         2.1127897        3       639         2.2136006        7
   263         2.1307191        3       640         2.2309137        7
   264         2.1431527        3       641         2.2997003        7
   265         2.3029856        3       642         2.7586139        7
   266         2.7152903        3       643         2.8714208        7
   267         2.7759387        3       644         3.0975672        7
   268         3.0213028        3       645         3.1726937        7
   269         3.0796057        3       646         3.3238237        7
   270         3.1867583        3       647         3.6211346        7
   271         3.5898258        3       648         3.7098952        7
   272         3.6046108        3       649         3.7396884        7
   273         3.7812942        3       650         4.2054185        7
   274         4.1956366        3       651         4.2603350        7
   275         4.2174921        3       652         4.3562785        7
   276         4.2441023        3       653         4.8338741        7
   277         4.7815852        3       654         5.3686547        7
   278         5.3336296        3       655         5.4646285        7
   279         5.3904769        3       656         5.9206066        7
   280         5.7170177        3       657         6.0161560        7
   281         6.0005623        3       658         6.1537485        7
   282         6.1093979        3       659        10.9156562        7
   283        10.8773926        3       660        12.2815473        7
   284        12.1396904        3       661        15.3615016        7
   285        15.3520602        3       662        15.4384864        7
   286        15.4138607        3       663        21.7451594        7
   287        21.7373602        3       664        21.7756908        7
   288        21.7526639        3       665        23.5221885        7
   289        23.4908808        3       666        26.9686958        7
   290        26.8514951        3       667        38.2619574        7
   291        38.2554147        3       668        38.3159509        7
   292        38.2975055        3       669        41.5100820        7
   293        41.5100109        3       670        41.5106234        7
   294        41.5102623        3       671        41.5112605        7
   295        41.5108313        3       672        48.5827427        7
   296        48.5557244        3       673        58.5876019        7
   297        58.4894171        3       674        61.4879564        7
   298        61.4838293        3       675        61.5045992        7
   299        61.4921160        3       676        90.3251867        7
   300        90.3203890        3       677        90.3649324        7
   301        90.3509866        3       678        98.0521774        7
   302        98.0282112        3       679       108.9859860        7
   303       108.9859858        3       680       108.9860300        7
   304       108.9860291        3       681       108.9860521        7
   305       108.9860516        3       682       126.9445088        7
   306       126.9444835        3       683       126.9447049        7
   307       126.9445760        3       684       126.9448799        7
   308       126.9447666        3       685       127.1831646        7
   309       127.0997063        3       686       162.2105017        7
   310       162.2081684        3       687       162.2196327        7
   311       162.2128381        3       688       198.8640414        7
   312       198.8426504        3       689       215.9821389        7
   313       215.9786504        3       690       216.0114049        7
   314       216.0009962        3       691       285.8502815        7
   315       285.7807528        3       692       416.9908770        7
   316       416.9716674        3       693         0.0871052        8
   317         0.0660243        4       694         0.2072608        8
   318         0.1665808        4       695         0.2150697        8
   319         0.1910894        4       696         0.3122805        8
   320         0.2787093        4       697         0.3984515        8
   321         0.3390713        4       698         0.4252772        8
   322         0.3989297        4       699         0.4660353        8
   323         0.4187411        4       700         0.5371967        8
   324         0.4502475        4       701         0.6621813        8
   325         0.5957917        4       702         0.7092865        8
   326         0.6845264        4       703         0.8060246        8
   327         0.7207955        4       704         0.8091790        8
   328         0.7817875        4       705         0.8465583        8
   329         0.8029581        4       706         0.9211800        8
   330         0.8202801        4       707         0.9645190        8
   331         0.8266584        4       708         1.1046616        8
   332         1.0439361        4       709         1.1269844        8
   333         1.0467165        4       710         1.3197742        8
   334         1.1317614        4       711         1.4167668        8
   335         1.3994216        4       712         1.5407210        8
   336         1.4535885        4       713         1.6694753        8
   337         1.5635378        4       714         1.7410612        8
   338         1.6381582        4       715         1.7689156        8
   339         1.7538069        4       716         1.8474932        8
   340         1.7557405        4       717         2.0772225        8
   341         1.7577380        4       718         2.1561907        8
   342         2.1100788        4       719         2.2493060        8
   343         2.2306826        4       720         2.7234924        8
   344         2.7100080        4       721         2.8411878        8
   345         2.7458583        4       722         2.9972783        8
   346         2.9529312        4       723         3.2107833        8
   347         3.0971238        4       724         3.6036209        8
   348         3.5914091        4       725         3.6635177        8
   349         3.5960898        4       726         3.7561132        8
   350         3.6866111        4       727         4.2259342        8
   351         4.1941014        4       728         4.2912072        8
   352         4.2696168        4       729         5.3404277        8
   353         5.3298005        4       730         5.4467772        8
   354         5.3560972        4       731         5.7024949        8
   355         5.6671311        4       732         6.1153841        8
   356         6.0167642        4       733        12.1272065        8
   357        12.1043100        4       734        15.4202336        8
   358        15.3614221        4       735        21.7388257        8
   359        21.7364231        4       736        21.7642935        8
   360        21.7428520        4       737        26.8410149        8
   361        26.8222574        4       738        38.3028054        8
   362        38.2617737        4       739        41.5102989        8
   363        41.5100564        4       740        41.5109171        8
   364        41.5106970        4       741        58.4804901        8
   365        58.4648088        4       742        61.4846096        8
   366        61.4833349        4       743        61.4981000        8
   367        61.4867851        4       744        90.3551870        8
   368        90.3250029        4       745       108.9859562        8
   369       108.9859562        4       746       108.9860106        8
   370       108.9860101        4       747       108.9860439        8
   371       108.9860429        4       748       126.9445879        8
   372       126.9445017        4       749       126.9448072        8
   373       126.9447303        4       750       127.0920756        8
   374       127.0787950        4       751       162.2086165        8
   375       162.2078954        4       752       162.2162037        8
   376       162.2098461        4       753       216.0039665        8
   377       215.9819833        4       754       285.7743854        8
------------------------------------------------------------------------
 @CHECKOUT-I, Total execution time (CPU/WALL):    32965.21/    8166.00 seconds.
--executable xvtran finished with status     0 in     8168.11 seconds (walltime).
 --invoking executable--
/home-3/lcheng24@jhu.edu/work/update/cfour/bin/xintprc
 @GETMEM-I,  Allocated  858306 MB of main memory.
  @GMOIAA-I, Processing MO integrals for spin case AA.
  @GMOIAA-I, Generation of integral list completed.
                      TYPE                NUMBER
                      ----               --------
                      PPPP            4843196486
                      PPPH              96292625
                      PPHH                497764
                      PHPH                348832
                      PHHH                  5051
                      HHHH                    31

                     TOTAL            4940340789
  @GMOIAA-I, Processing MO integrals for spin case BB.
  @GMOIAA-I, Generation of integral list completed.
                      TYPE                NUMBER
                      ----               --------
                      PPPP            4891523132
                      PPPH              46921529
                      PPHH                131588
                      PHPH                111490
                      PHHH                   779
                      HHHH                     4

                     TOTAL            4938688522
  @GMOIAB-I, Processing MO integrals for spin case AB.
                      TYPE                NUMBER
                      ----               --------
                      PPPP            9734317475
                      PPPH1H            96684510
                      PPPH2H            46755273
                      PPHH                505443
                      PHPH1P              110823
                      PHPH2P              350576
                      PHHH1P                1546
                      PHHH2P                2574
                      HHHH                    16

                     TOTAL            9878728236

  @FORMT2-I, Second-order MP correlation energies:
  @FORMT2-I, Singles contribution will be calculated.
            ------------------------------------------------
            E(SCF)                  =    -14.864020699355 a.u.
            E2(AA)                  =     -0.002517214572 a.u.
            E2(BB)                  =     -0.000000074985 a.u.
            E2(AB)                  =     -0.081742775507 a.u.
            E2(SINGLE)              =     -0.000031899487 a.u.
            E2(TOT)                 =     -0.084260065065 a.u.
            Total MP2 energy        =    -14.948312663907 a.u.
            ------------------------------------------------
            ----------------------------------------------
                     Projected spin multiplicities: 
            ----------------------------------------------
             <0|S^2|0>                  =    2.0000000000.
             <0|S^2 T2|0>               =    0.0000000000.
             Projected <0|S^2 exp(T)|0> =    2.0000000000.
             Approximate spin mult.     =    3.0000000000.
            ----------------------------------------------
   Largest T2 amplitudes for spin case AA:
   i   j   a   b             i   j   a   b             i   j   a   b
-----------------------------------------------------------------------------
[  4   2 385   5] 0.01017 [  4   2 385   7]-0.00784 [  4   2 383   5]-0.00755
[  4   2 387   5]-0.00754 [  4   2 603 227]-0.00702 [  4   2 511 135]-0.00702
[  4   2 602 227] 0.00687 [  4   2 510 135] 0.00687 [  4   2 385   8] 0.00677
[  4   2 386   5] 0.00666 [  4   2 385   6]-0.00654 [  4   2 382   5]-0.00635
[  4   2 511 134]-0.00620 [  4   2 603 226]-0.00620 [  4   2 510 134] 0.00614
-----------------------------------------------------------------------------
   Norm of T2AA vector (   223728 symmetry allowed elements):  0.0493774751.
-----------------------------------------------------------------------------
   Largest T2 amplitudes for spin case BB:
   i   j   a   b             i   j   a   b             i   j   a   b
-----------------------------------------------------------------------------
[  2   1 392  26]-0.00001 [  2   1 392  28] 0.00001 [  2   1 399  26] 0.00001
[  2   1 399  28]-0.00001 [  2   1 392  41] 0.00001 [  2   1 399  41]-0.00001
[  2   1 392  11]-0.00001 [  2   1 392  58]-0.00001 [  2   1 392  37]-0.00001
[  2   1 410  26]-0.00001 [  2   1 392  59] 0.00001 [  2   1 399  37] 0.00001
[  2   1 410  28] 0.00001 [  2   1 399  11] 0.00001 [  2   1 399  58] 0.00001
-----------------------------------------------------------------------------
   Norm of T2BB vector (    37672 symmetry allowed elements):  0.0001006112.
-----------------------------------------------------------------------------
   Largest T2 amplitudes for spin case AB:
       _       _                 _       _                 _       _
   i   j   a   b             i   j   a   b             i   j   a   b
-----------------------------------------------------------------------------
[  3   2 448 448]-0.00443 [  1   1 448 448]-0.00443 [  3   1 448  74]-0.00384
[  1   2 448  74]-0.00384 [  3   1  75 448]-0.00384 [  1   2  75 448]-0.00384
[  1   1  75  74]-0.00368 [  3   2  75  74]-0.00368 [  3   2 448 429] 0.00353
[  1   1 448 429] 0.00353 [  1   1 278 277]-0.00353 [  1   1 186 185]-0.00353
[  3   2 278 277]-0.00353 [  3   2 186 185]-0.00353 [  3   2 429 448] 0.00351
-----------------------------------------------------------------------------
   Norm of T2AB vector (   600672 symmetry allowed elements):  0.0743630207.
-----------------------------------------------------------------------------
 @CHECKOUT-I, Total execution time (CPU/WALL):     5755.90/    5889.02 seconds.
--executable xintprc finished with status     0 in     5906.40 seconds (walltime).
 --invoking executable--
/home-3/lcheng24@jhu.edu/work/update/cfour/bin/xvcc
 @GETMEM-I,  Allocated  858306 MB of main memory.
   CCSDT   energy will be calculated.
   The reference state is a ROHF wave function.
   The total correlation energy is -0.084292950628 a.u.
  transposing abij 
   The total correlation energy is -0.090915136526 a.u.
  Convergence information after     1 iterations: 
  Largest element of residual vector :  0.58968998E-02.
  Largest element of DIIS residual   :  0.58968998E-02.
  transposing abij 
   The total correlation energy is -0.092336252645 a.u.
  Convergence information after     2 iterations: 
  Largest element of residual vector : -0.48521051E-02.
  Largest element of DIIS residual   : -0.43413144E-02.
  transposing abij 
   The total correlation energy is -0.093099872855 a.u.
  Convergence information after     3 iterations: 
  Largest element of residual vector : -0.26019608E-02.
  Largest element of DIIS residual   :  0.10090469E-02.
  transposing abij 
   The total correlation energy is -0.093149270814 a.u.
  Convergence information after     4 iterations: 
  Largest element of residual vector :  0.62905724E-03.
  Largest element of DIIS residual   :  0.27082495E-03.
  transposing abij 
   The total correlation energy is -0.093185616334 a.u.
  Convergence information after     5 iterations: 
  Largest element of residual vector :  0.12965766E-03.
  Largest element of DIIS residual   :  0.70326600E-04.
  transposing abij 
   The total correlation energy is -0.093190571664 a.u.
  Convergence information after     6 iterations: 
  Largest element of residual vector :  0.50197132E-04.
  Largest element of DIIS residual   :  0.39618246E-04.
  transposing abij 
   The total correlation energy is -0.093190826155 a.u.
  Convergence information after     7 iterations: 
  Largest element of residual vector :  0.24803955E-04.
  Largest element of DIIS residual   :  0.13831324E-04.
  transposing abij 
   The total correlation energy is -0.093190771750 a.u.
  Convergence information after     8 iterations: 
  Largest element of residual vector :  0.91352291E-05.
  Largest element of DIIS residual   : -0.48374991E-05.
  transposing abij 
   The total correlation energy is -0.093190762461 a.u.
  Convergence information after     9 iterations: 
  Largest element of residual vector : -0.29775089E-05.
  Largest element of DIIS residual   :  0.32188971E-05.
  transposing abij 
   The total correlation energy is -0.093190746575 a.u.
  Convergence information after    10 iterations: 
  Largest element of residual vector :  0.20784242E-05.
  Largest element of DIIS residual   :  0.19875459E-05.
  transposing abij 
   The total correlation energy is -0.093190708046 a.u.
  Convergence information after    11 iterations: 
  Largest element of residual vector :  0.12524596E-05.
  Largest element of DIIS residual   : -0.60949449E-06.
  @WRDIR-F, I/O Error (IOSTAT =  38) on Unit  52.
 @CHECKOUT-I, Total execution time (CPU/WALL):   715268.65/  330317.41 seconds.
 
  ERROR ERROR ERROR ERROR ERROR ERROR 
  Job has terminated with error flag 
  ERROR ERROR ERROR ERROR ERROR ERROR 
 
--executable xvcc finished with status   256 in   330322.58 seconds (walltime).
  This computation required                       345208.36 seconds (walltime).
