 --invoking executable--
/home/nike/cfour_v2.00beta/bin/xjoda


   *************************************************************************
         <<<     CCCCCC     CCCCCC   |||     CCCCCC     CCCCCC   >>>
       <<<      CCC        CCC       |||    CCC        CCC         >>>
      <<<      CCC        CCC        |||   CCC        CCC            >>>
    <<<        CCC        CCC        |||   CCC        CCC              >>>
      <<<      CCC        CCC        |||   CCC        CCC            >>>
       <<<      CCC        CCC       |||    CCC        CCC         >>>
         <<<     CCCCCC     CCCCCC   |||     CCCCCC     CCCCCC   >>>
   *************************************************************************

     ****************************************************************
     * CFOUR Coupled-Cluster techniques for Computational Chemistry *
     ****************************************************************
 

   Department of Chemistry                Institut fuer Physikalische Chemie
   University of Texas at Austin          Universitaet Mainz
   Austin, TX  78712, USA                 D-55099 Mainz, Germany
 
                       Version 2.00beta
 
                     wob107                                            
                     Mon Apr  2 02:08:28 EDT 2018                      
                     integer*8 version is running
 
********************************************************************************
*                          Input from ZMAT file                                *
********************************************************************************
TITLE                                                                           
O                                                                               
                                                                                
*ACES2(CALC=CCSD                                                                
INPUT_MRCC=OFF                                                                  
CC_PROG=MRCC                                                                    
XFORM_TOL=18                                                                    
SAVE_INTS=ON                                                                    
SCF_EXPORDER=6                                                                  
SCF_EXPSTART=5                                                                  
#SCF_DAMPING=1000                                                               
SCF_EXTRAPOLATION=ON                                                            
SCF_CONV=10                                                                     
SCF_MAXCYC=9999                                                                 
CC_CONV=10                                                                      
CC_MAXCYC=999                                                                   
T3_EXTRAPOL=ON                                                                  
REFERENCE=ROHF                                                                  
CHARGE=+1                                                                       
MULT=4                                                                          
ABCDTYPE=STANDARD                                                               
OCCUPATION=2-1-1-1-0-0-0-0/2-0-0-0-0-0-0-0                                      
MEM=32                                                                          
MEM_UNIT=GB                                                                     
BASIS=SPECIAL)                                                                  
                                                                                
O:aCVDZ-EMSL                                                                    
                                                                                
********************************************************************************
  @GTFLGS-W, Keyword #SCF_DAMPING not known and is ignored.
    -------------------------------------------------------------------
                    CFOUR Control Parameters 
    -------------------------------------------------------------------
        External           Internal           Value            Units
          Name               Name
    -------------------------------------------------------------------
       ABCDTYPE             IABCDT         STANDARD     [  0]   ***   
       ANHARMONIC           IANHAR         OFF          [  0]   ***   
       ANH_ALGORIT          IANALG         STANDARD     [  0]   ***   
       ANH_DERIVAT          IANDER         SECOND       [  1]   ***   
       ANH_STEPSIZ          ICUBST             50000          x 10-6  
       ANH_SYMMETR          IANHSM         ABELIAN      [  0]   ***   
       AO_LADDERS           IAOLAD         SINGLEPASS   [  1]   ***   
       BASIS                IBASIS         SPECIAL      [  0]   ***   
       BREIT                IBREIT         OFF          [  0]   ***   
       BRUCK_CONV           IBRTOL          10D-  4             ***   
       BRUECKNER            IBRKNR             OFF      [  0]   ***   
       BUFFERSIZE           IBUFFS            600               ***   
       CACHE_RECS           ICHREC             10               ***   
       CALCLEVEL            ICLLVL           CCSD       [ 10]   ***   
       CCORBOPT             ICCORB             OFF      [  0] x 0.01  
       CC_CONV              ICCCNV          10D- 10             ***   
       CC_EXPORDER          ICCEOR              5               ***   
       CC_EXTRAPOL          ICCEXT             DIIS     [  1]   ***   
       CC_MAXCYC            ICCCYC            999              cycles 
       CC_PROGRAM           ICCPRO         MRCC         [  2]   ***   
       CHARGE               ICHRGE              1               ***   
       CHOLESKY             ICHOLE         OFF          [  0]   ***   
       CIS_CONV             ICISTL              5               ***   
       COMM_SIZE            IPSIZE            ***               ***   
       CONSTANT             ICONST         OLD          [  1]   ***   
       CONTINUUM            ICONTU         NONE         [  0]   ***   
       CONTRACTION          ICNTYP          GENERAL     [  1]   ***   
       COORDINATES          ICOORD         INTERNAL     [  0]   ***   
       CPHF_CONVER          ICPHFT          10D- 16             ***   
       CPHF_MAXCYC          ICPHFC             64              cycles 
       CUBIC                ICUBIC         OFF          [  0]   ***   
       CURVILINEAR          ICURVY            OFF       [  0]   ***   
       DBOC                 IDBOC          OFF          [  0]   ***   
       DCT                  IDCT           OFF          [  0]   ***   
       DERIV_LEV            IDRLVL            ZERO      [  0]   ***   
       DIAG_MRCC            IEOMST          10D-  0             ***   
       DIFF_TYPE            IDIFTY         RELAXED      [  0]   ***   
       DIRECT               IDIRCT         OFF          [  0]   ***   
       DROPMO               IDRPMO      NONE         
       ECP                  IECP           OFF          [  0]   ***   
       EIGENVECTOR          IVEC                1               ***   
       EL_ANHARM            IELANH         OFF          [  0]   ***   
       EOMFOLLOW            IEOMSR         ENERGY       [  0]   ***   
       EOM_MRCC             IMRCCE         NEW          [  1]   ***   
       EOM_NONIT            EOMNON         OFF          [  0]   ***   
       EOM_NSING            IEOMSI          10D-  0             ***   
       EOM_NSTATES          IMRCCD         DAVIDSON     [  0]   ***   
       EOM_NTRIP            IEOMTR          10D-  0             ***   
       EOM_ORDER            IEXORD         ENERGY       [  0]   ***   
       ESTATE_CONV          IEXTOL          10D-  5             ***   
       ESTATE_DIAG          IEXDIG         ITERATIVE    [  0]   ***   
       ESTATE_LOCK          IESLOC         ON           [  1]   ***   
       ESTATE_MAXC          IEXMXC             20               ***   
       ESTATE_PROP          IEXPRP         OFF          [  0]   ***   
       EVAL_HESS            IRECAL              0            # of cyc.
       EXCITATION           IEXCIT              0               ***   
       EXCITE               IEXCIT         NONE         [  0]   ***   
       FCGRADNEW            IFCGNW         OFF          [  0]   ***   
       FC_FIELD             IFINFC              0             x 10-6  
       FD_CALTYPE           IFDCAL         GRADONLY     [  0]   ***   
       FD_PROJECT           IFDPRJ         OFF          [  1]   ***   
       FD_STEPSIZE          IDISFD              0            10-4 bohr
       FD_USEGROUP          IFDGRP         FULL         [  0]   ***   
       FILE_RECSIZ          IFLREC              4096           words  
       FINITE_PERT          IFIPER              0             x 10-6  
       FIXGEOM              IFIXGM         OFF          [  0]   ***   
       FOCK                 IFOCK          AO           [  1]   ***   
       FREQ_ALGORI          IVIALG         STANDARD     [  0]   ***   
       FROZEN_CORE          IFROCO         OFF          [  0]   ***   
       FROZEN_VIRT          IFROVI         OFF          [  0]   ***   
       GAMMA_ABCD           IGABCD         STORE        [  0]   ***   
       GAMMA_ABCI           IGABCI         STORE        [  0]   ***   
       GENBAS_1             IGNBS1              0               ***   
       GENBAS_2             IGNBS2              0               ***   
       GENBAS_3             IGNBS3              0               ***   
       GENBAS_4             IGNBS4              0               ***   
       GEO_CONV             ICONTL              5              H/bohr 
       GEO_MAXCYC           IOPTCY             50               ***   
       GEO_MAXSTEP          IMXSTP            300            millibohr
       GEO_METHOD           INR            SINGLE_POINT [  5]   ***   
       GIAO                 IGIAO          OFF          [  1]   ***   
       GIMIC                IGIMIC         OFF          [  0]   ***   
       GRID                 IGRID          OFF          [  0]   ***   
       GRID_ALGO            IGALGO         SERIAL       [  0]   ***   
       GUESS                IGUESS            MOREAD    [  0]   ***   
       HBAR                 IHBAR              OFF      [  0]   ***   
       HESS_TYPE            IHESTP         SCF          [  0]   ***   
       HF2_FILE             IHF2Fl         USE          [  1]   ***   
       HFSTABILITY          ISTABL         OFF          [  0]   ***   
       INCORE               INCORE             OFF      [  0]   ***   
       INPUT_MRCC           IMRCC          OFF          [  0]   ***   
       INTEGRALS            INTTYP             VMOL     [  1]   ***   
       JODA_PRINT           IJPRNT              0               ***   
       LINDEP_TOL           ILINDP              8               ***   
       LINEQ_CONV           IZTACN          10D-  7           cycles  
       LINEQ_EXPOR          ILMAXD              5               ***   
       LINEQ_MAXCY          ILMAXC             50               ***   
       LINEQ_TYPE           ILTYPE         DIIS         [  1]   ***   
       LOCK_ORBOCC          ILOCOC             OFF      [  0]   ***   
       MEMORY_SIZE          IMEMSZ         *********           words  
       MEM_UNIT             IMEMU          GB           [  3]   ***   
       MRCC                 IMRCCC         OFF          [  0]   ***   
       MULTIPLICTY          IMULTP              4               ***   
       NEGEVAL              IDIE             ABORT      [  0]   ***   
       NEWNORM              INEWNO         OFF          [  0]   ***   
       NON-HF               INONHF              ON      [  1]   ***   
       NTOP_TAMP            ITOPT2             15               ***   
       NUC_MODEL            INUCMO         POINT        [  0]   ***   
       OCCUPATION           IOCCU  A   2,  1,  1,  1,  0,  0,  0,  0,
                                   B   2,  0,  0,  0,  0,  0,  0,  0,
       OPEN-SHELL           IOPEN          SPIN-ORBITAL [  0]   ***   
       ORBITALS             IORBTP         SEMICANONICAL[  1]   ***   
       PARALLEL             IPARAL         ON           [  1]   ***   
       PARA_INT             IPINTS         ON           [  1]   ***   
       PARA_PRINT           IPPRIN              0               ***   
       PERT_ORB             IPTORB         STANDARD     [  0]   ***   
       POINTS               IGRDFD              0               ***   
       PRINT                IPRNT               0               ***   
       PROPS                IPROPS             OFF      [  0]   ***   
       PROP_INTEGR          IINTYP         INTERNAL     [  0]   ***   
       PSI                  IPSI           OFF          [  0]   ***   
       QUARTIC              IQUART         OFF          [  0]   ***   
       RAMAN_INT            IRAMIN         OFF          [  0]   ***   
       RAMAN_ORB            IRAMRE         UNRELAXED    [  0]   ***   
       RDO                  IRDOFM             OFF      [  0]   ***   
       REFERENCE            IREFNC             ROHF     [  2]   ***   
       RELATIVIST           IRELAT         OFF          [  0]   ***   
       RELAX_DENS           IRDENS             OFF      [  0]   ***   
       RESET_FLAGS          IRESET             OFF      [  0]   ***   
       RESTART_CC           ICCRES         OFF          [  0]   ***   
       ROT_EVEC             ROTVEC              0               ***   
       SAVE_INTS            ISVINT              ON      [  1]   ***   
       SCALE_ON             ISTCRT              0               ***   
       SCF_CONV             ISCFCV          10D- 10             ***   
       SCF_DAMPING          IDAMP               0             x 10-3  
       SCF_EXPORDE          IRPPOR              6               ***   
       SCF_EXPSTAR          IRPPLS              5               ***   
       SCF_EXTRAPO          IRPP                ON      [  1]   ***   
       SCF_MAXCYC           ISCFCY            ***              cycles 
       SCF_NOSTOP           ISCFST         OFF          [  0]   ***   
       SCF_PRINT            ISCFPR              0               ***   
       SD_FIELD             IFINSD              0             x 10-6  
       SEQUENCE             ISEQUE         OFF          [  0]   ***   
       SOPERT               IPERSO         OFF          [  0]   ***   
       SPHERICAL            IDFGHI             ON       [  1]   ***   
       SPINORBIT            ISOCAL         OFF          [  0]   ***   
       SPINROTATIO          ISRCON         OFF          [  0]   ***   
       SPIN_FLIP            ISPFLP         OFF          [  0]   ***   
       SPIN_ORBIT           ISPORB         OFF          [  0]   ***   
       SPIN_SCAL            ISCSMP         OFF          [  0]   ***   
       SUBGROUP             ISUBGP         DEFAULT      [  0]   ***   
       SUBGRPAXIS           ISBXYZ         X            [  0]   ***   
       SYMMETRY             ISYM             ON         [  0]   ***   
       SYM_CHECK            ISYMCK         OVERRIDE     [  1]   ***   
       T3_EXTRAPOL          IT3EXT         ON           [  1]   ***   
       TAMP_SUM             IEVERY              5               ***   
       TESTSUITE            ITESTS         OFF          [  0]   ***   
       THERMOCH             ITHERM         OFF          [  0]   ***   
       TOL_CHOLESK          ITOLCH          10D-  4             ***   
       TRANGRAD             IRESRM         OFF          [  0]   ***   
       TRANS_INV            ITRAIN         USE          [  0]   ***   
       TREAT_PERT           ITREAT         SIMULTANEOUS [  0]   ***   
       UIJ_THRESHO          IUIJTH              1               ***   
       UNITS                IUNITS         ANGSTROM     [  0]   ***   
       UNOS                 IUNOS          OFF          [  0]   ***   
       UPDATE_HESS          IHUPDT         ON           [  1]   ***   
       VIBPHASE             ISETPH         STANDARD     [  0]   ***   
       VIBRATION            IVIB              NO        [  0]   ***   
       VIB_ALGORIT          IGEALG         STANDARD     [  0]   ***   
       VNATORB              IVNORB         OFF          [  0]   ***   
       VTRAN                IVTRAN         FULL/PARTIAL [  0]   ***   
       XFIELD               IXEFLD              0             x 10-6  
       XFORM_TOL            IXFTOL          10D- 18             ***   
       YFIELD               IYEFLD              0             x 10-6  
       ZFIELD               IZEFLD              0             x 10-6  
    -------------------------------------------------------------------
   1 entries found in Z-matrix 
   Job Title : TITLE                                                                           
  1  O          8    15.99491
 factor:   60.1997200000000     
   Rotational constants (in cm-1): 

   Rotational constants (in MHz): 

********************************************************************************
   The full molecular point group is I h .
   The largest Abelian subgroup of the full molecular point group is D2h .
   The computational point group is D2h .
********************************************************************************
  @GTFLGS-W, Keyword #SCF_DAMPING not known and is ignored.
  There are   27 basis functions.
 @GEOPT-W, Archive file not created for single-point calculation.
  @CHECKOUT-I, Total execution time (CPU/WALL):        0.23/       0.43 seconds.
--executable xjoda finished with status     0 in        0.78 seconds (walltime).
 --invoking executable--
/home/nike/cfour_v2.00beta/bin/xvmol
 Serial version of molecule started
********************************************************************************
                    Input from MOL file
********************************************************************************
INTGRL        1    0    1    0    0    0    0    0    0                         
         *** CFOUR Program System (Release V0.1) ***                            
TITLE                                                                           
    1    3 X  Y   Z   0.10E-08              0    0                              
   9999.00      3.00                                                            
          8.00000000    1    3    1    1    1                                   
O #1   0.000000000000000   0.000000000000000   0.000000000000000                
   11    5                                                                      
   11720.0000000000       7.100000000000000E-004 -1.600000000000000E-004        
  0.000000000000000E+000  0.000000000000000E+000  0.000000000000000E+000        
   1759.00000000000       5.470000000000000E-003 -1.263000000000000E-003        
  0.000000000000000E+000  0.000000000000000E+000  0.000000000000000E+000        
   400.800000000000       2.783700000000000E-002 -6.267000000000000E-003        
  0.000000000000000E+000  0.000000000000000E+000  0.000000000000000E+000        
   113.700000000000       0.104800000000000      -2.571600000000000E-002        
  0.000000000000000E+000  0.000000000000000E+000  0.000000000000000E+000        
   37.0300000000000       0.283062000000000      -7.092400000000000E-002        
  0.000000000000000E+000  0.000000000000000E+000  0.000000000000000E+000        
   13.2700000000000       0.448719000000000      -0.165411000000000             
  0.000000000000000E+000  0.000000000000000E+000  0.000000000000000E+000        
   5.02500000000000       0.270952000000000      -0.116955000000000             
  0.000000000000000E+000  0.000000000000000E+000  0.000000000000000E+000        
   1.01300000000000       1.545800000000000E-002  0.557368000000000             
  0.000000000000000E+000  0.000000000000000E+000  0.000000000000000E+000        
  0.302300000000000      -2.585000000000000E-003  0.572759000000000             
   1.00000000000000       0.000000000000000E+000  0.000000000000000E+000        
   8.21500000000000       0.000000000000000E+000  0.000000000000000E+000        
  0.000000000000000E+000   1.00000000000000       0.000000000000000E+000        
  7.896000000000000E-002  0.000000000000000E+000  0.000000000000000E+000        
  0.000000000000000E+000  0.000000000000000E+000   1.00000000000000             
    6    4                                                                      
   17.7000000000000       4.301800000000000E-002  0.000000000000000E+000        
  0.000000000000000E+000  0.000000000000000E+000                                
   3.85400000000000       0.228913000000000       0.000000000000000E+000        
  0.000000000000000E+000  0.000000000000000E+000                                
   1.04600000000000       0.508728000000000       0.000000000000000E+000        
  0.000000000000000E+000  0.000000000000000E+000                                
  0.275300000000000       0.460531000000000        1.00000000000000             
  0.000000000000000E+000  0.000000000000000E+000                                
   26.0560000000000       0.000000000000000E+000  0.000000000000000E+000        
   1.00000000000000       0.000000000000000E+000                                
  6.856000000000000E-002  0.000000000000000E+000  0.000000000000000E+000        
  0.000000000000000E+000   1.00000000000000                                     
    2    2                                                                      
   1.18500000000000        1.00000000000000       0.000000000000000E+000        
  0.332000000000000       0.000000000000000E+000   1.00000000000000             
FINISH                                                                          
 
********************************************************************************
 One- and two-electron integrals over symmetry-adapted AOs are calculated.

  Spherical harmonics are used.
  
  Integrals less than  0.10E-13 are neglected.

  Nuclear repulsion energy :    0.0000000000 a.u.
  required memory for a1 array                5029908  words 
  required memory for a2 array                2103164  words 
 @GETMEM-I,  Allocated      69 MB of main memory.
  @MOLECU-I, One electron integrals (CPU/WALL):        0.02/       0.02 seconds.
  @TWOEL-I,        634 integrals of symmetry type  I I I I
  @TWOEL-I,       2993 integrals of symmetry type  I J I J
  @TWOEL-I,       2170 integrals of symmetry type  I I J J
  @TWOEL-I,       3304 integrals of symmetry type  I J K L
  @TWOEL-I, Total number of 2-e integrals       9101.
  @MOLECU-I, Two electron integrals (CPU/WALL):        0.02/       0.06 seconds.
  @CHECKOUT-I, Total execution time (CPU/WALL):        0.04/       0.37 seconds.
--executable xvmol finished with status     0 in        0.50 seconds (walltime).
 --invoking executable--
/home/nike/cfour_v2.00beta/bin/xvmol2ja
 @GETMEM-I,  Allocated   30517 MB of main memory.
  @CHECKOUT-I, Total execution time (CPU/WALL):        0.00/       0.01 seconds.
--executable xvmol2ja finished with status     0 in        0.12 seconds (walltime).
 --invoking executable--
/home/nike/cfour_v2.00beta/bin/xvscf
  There are   27 functions in the AO basis.

  There are 8 irreducible representations.

       Irrep        # of functions
         1                  9
         2                  4
         3                  4
         4                  2
         5                  4
         6                  2
         7                  2
         8                  0


  Parameters for SCF calculation: 
        SCF reference function: ROHF  
  Maximum number of iterations: 9999
     Full symmetry point group: I h 
     Computational point group: D2h 
        Initial density matrix: MOREAD                 
     SCF convergence tolerance: 10**(-10)
  DIIS convergence acceleration:  ON
          Latest start for DIIS:   5
                     DIIS order:   6

     Alpha population by irrep:   2    1    1    1    0    0    0    0
      Beta population by irrep:   2    0    0    0    0    0    0    0


  Memory information:      70036 words required.
  Fock matrices are constructed from AO integral file.
 @GETMEM-I,  Allocated       0 MB of main memory.
  Initialization and symmetry analysis required      0.002 seconds.

 total no. of electrons in initial guess :  0.000000000000000E+000
 total no. of electrons in initial guess :  0.000000000000000E+000
  --------------------------------------------------------------------
  Iteration         Total Energy            Largest Density Difference
  --------------------------------------------------------------------
       0             0.000000000000000              0.0000000000D+00
   current occupation vector 
     2  1  1  1  0  0  0  0
     2  0  0  0  0  0  0  0
       1           -70.671177995229684              0.4854746730D+01
   current occupation vector 
     2  1  1  1  0  0  0  0
     2  0  0  0  0  0  0  0
       2           -72.854196947684358              0.3303205701D+01
   current occupation vector 
     2  1  1  1  0  0  0  0
     2  0  0  0  0  0  0  0
       3           -72.998408515284567              0.5281673355D+00
   current occupation vector 
     2  1  1  1  0  0  0  0
     2  0  0  0  0  0  0  0
       4           -73.001467208849903              0.1283892462D+00
   current occupation vector 
     2  1  1  1  0  0  0  0
     2  0  0  0  0  0  0  0
       5           -73.001557314587458              0.2753437078D-01
   current occupation vector 
     2  1  1  1  0  0  0  0
     2  0  0  0  0  0  0  0
       6           -73.001562912504482              0.2116928445D-02
   current occupation vector 
     2  1  1  1  0  0  0  0
     2  0  0  0  0  0  0  0
       7           -73.001562919773363              0.5066763353D-04
   current occupation vector 
     2  1  1  1  0  0  0  0
     2  0  0  0  0  0  0  0
       8           -73.001562919849320              0.1315392432D-04
   current occupation vector 
     2  1  1  1  0  0  0  0
     2  0  0  0  0  0  0  0
       9           -73.001562919849448              0.5162899206D-06
   current occupation vector 
     2  1  1  1  0  0  0  0
     2  0  0  0  0  0  0  0
      10           -73.001562919849576              0.8137923246D-07
   current occupation vector 
     2  1  1  1  0  0  0  0
     2  0  0  0  0  0  0  0
      11           -73.001562919849491              0.1022801680D-08
   current occupation vector 
     2  1  1  1  0  0  0  0
     2  0  0  0  0  0  0  0
      12           -73.001562919849519              0.3631832612D-09
   current occupation vector 
     2  1  1  1  0  0  0  0
     2  0  0  0  0  0  0  0

  SCF has converged.

 Density matrix saved to file den.dat
 total alpha spin electron number:   5.00000000000000     
 total  beta spin electron number:   2.00000000000000     
     E(ROHF)=       -73.001562919849633              0.9191609279D-11

  Eigenvector printing suppressed.


       The average multiplicity is    4.0000000
  The expectation value of S**2 is    3.7500000

 @PUTMOS-I, Writing converged MOs to NEWMOS. 
 @PUTMOS-I, Symmetry   1 Full Blocks  2 Partial Blocksize   1
 @PUTMOS-I, Symmetry   2 Full Blocks  1 Partial Blocksize   0
 @PUTMOS-I, Symmetry   3 Full Blocks  1 Partial Blocksize   0
 @PUTMOS-I, Symmetry   4 Full Blocks  0 Partial Blocksize   2
 @PUTMOS-I, Symmetry   5 Full Blocks  1 Partial Blocksize   0
 @PUTMOS-I, Symmetry   6 Full Blocks  0 Partial Blocksize   2
 @PUTMOS-I, Symmetry   7 Full Blocks  0 Partial Blocksize   2
 @PUTMOS-I, Symmetry   8 Full Blocks  0 Partial Blocksize   0
  @DMPJOB-I, Rotating orbitals to semicanonical basis.
             *** Eigenvalues correspond to new basis. ***



 
  ORBITAL EIGENVALUES (ALPHA)  (1H = 27.2113838 eV)

       MO #        E(hartree)               E(eV)           FULLSYM    COMPSYM
       ----   --------------------   --------------------   -------   ---------
    1     1         -21.8794910435        -595.3712285619      Ag        Ag (1)
    2     2          -2.2097587698         -60.1305940345      Ag        Ag (1)
    3    14          -1.5864894029         -43.1705720672       u       B3u (3)
    4    10          -1.5864894029         -43.1705720672       u       B2u (2)
    5    20          -0.7852530797         -21.3678229461      Au       B1u (5)
  +++++++++++++++++++++++++++++++++++++++++++++++++++++++++++++++++++++++++++++
    6     3          -0.1452567441          -3.9526370152      Ag        Ag (1)
    7    15          -0.0815527290          -2.2191626105       u       B3u (3)
    8    11          -0.0815527290          -2.2191626105       u       B2u (2)
    9    21          -0.0773962071          -2.1060578977      Au       B1u (5)
   10    18           0.0729978357           1.9863721253      Ag       B1g (4)
   11     4           0.4505362380          12.2597144961      Ag        Ag (1)
   12    26           0.4591961864          12.4953636773       g       B2g (7)
   13    24           0.4591961864          12.4953636773       g       B3g (6)
   14     5           0.4840591093          13.1719182155      Ag        Ag (1)
   15    16           0.6301533424          17.1473444647       u       B3u (3)
   16    12           0.6301533424          17.1473444647       u       B2u (2)
   17    22           0.7035452010          19.1444384984      Au       B1u (5)
   18     6           0.9861147310          26.8335464363      Ag        Ag (1)
   19    19           2.6380697417          71.7855282835      Ag       B1g (4)
   20     7           2.6692532445          72.6340745475      Ag        Ag (1)
   21    25           2.6761602735          72.8220243657       g       B3g (6)
   22    27           2.6761602735          72.8220243657       g       B2g (7)
   23     8           2.6783379678          72.8812824415      Ag        Ag (1)
   24     9          33.0056476901         898.1293475084      Ag        Ag (1)
   25    13          37.9733431939        1033.3072165622       u       B2u (2)
   26    17          37.9733431939        1033.3072165622       u       B3u (3)
   27    23          37.9940295425        1033.8701207329      Au       B1u (5)


 
  ORBITAL EIGENVALUES ( BETA)  (1H = 27.2113838 eV)

       MO #        E(hartree)               E(eV)           FULLSYM    COMPSYM
       ----   --------------------   --------------------   -------   ---------
    1     1         -21.7831762333        -592.7503692937      Ag        Ag (1)
    2     2          -1.8298876770         -49.7937759262      Ag        Ag (1)
  +++++++++++++++++++++++++++++++++++++++++++++++++++++++++++++++++++++++++++++
    3    20          -0.6881454501         -18.7253899664      Au       B1u (5)
    4    14          -0.5689810590         -15.4827619821       u       B3u (3)
    5    10          -0.5689810590         -15.4827619821       u       B2u (2)
    6     3          -0.1157024015          -3.1484224566      Ag        Ag (1)
    7    21          -0.0707213958          -1.9244270444      Au       B1u (5)
    8    15          -0.0457422490          -1.2447098955       u       B3u (3)
    9    11          -0.0457422490          -1.2447098955       u       B2u (2)
   10     4           0.5021447180          13.6640526555      Ag        Ag (1)
   11    26           0.5176041447          14.0847250488       g       B2g (7)
   12    24           0.5176041447          14.0847250488       g       B3g (6)
   13     5           0.5603720232          15.2484982057      Ag        Ag (1)
   14    18           0.5871362871          15.9767908636      Ag       B1g (4)
   15    22           0.7417576941          20.1842533160      Au       B1u (5)
   16    12           0.8244472835          22.4343514699       u       B2u (2)
   17    16           0.8244472835          22.4343514699       u       B3u (3)
   18     6           1.0884355003          29.6178361616      Ag        Ag (1)
   19     7           2.7770339074          75.5669355334      Ag        Ag (1)
   20    25           2.8025952786          76.2624958177       g       B3g (6)
   21    27           2.8025952786          76.2624958177       g       B2g (7)
   22     8           2.8815367119          78.4106014589      Ag        Ag (1)
   23    19           2.8977767134          78.8525143720      Ag       B1g (4)
   24     9          33.0723679653         899.9448985273      Ag        Ag (1)
   25    23          38.0137978719        1034.4080443332      Au       B1u (5)
   26    17          38.0678712037        1035.8794545188       u       B2u (3)
   27    13          38.0678712037        1035.8794545188       u       B3u (2)


  VSCF finished.

  @CHECKOUT-I, Total execution time (CPU/WALL):        0.04/       0.55 seconds.
--executable xvscf finished with status     0 in        0.88 seconds (walltime).
 --invoking executable--
/home/nike/cfour_v2.00beta/bin/xvtran
 @GETMEM-I,  Allocated   30517 MB of main memory.
  Full UHF integral transformation
  Transformation of IIII integrals :
  2 passes through the AO integral file were required.
         634 AO integrals were read.
        1218 MO integrals (Spin case AAAA) were written to HF2AA.
        1218 MO integrals (Spin case BBBB) were written to HF2BB.
        2352 MO integrals (Spin case AABB) were written to HF2AB.
  Transformation of IIJJ integrals :
  2 passes through the AO integral file were required.
        2170 AO integrals were read.
        2352 MO integrals (Spin case AAAA) were written to HF2AA.
        2352 MO integrals (Spin case BBBB) were written to HF2BB.
        4704 MO integrals (Spin case AABB) were written to HF2AB.
  Transformation of IJIJ integrals :
  2 passes through the AO integral file were required.
        2993 AO integrals were read.
        3273 MO integrals (Spin case AAAA) were written to HF2AA.
        3273 MO integrals (Spin case BBBB) were written to HF2BB.
        6252 MO integrals (Spin case AABB) were written to HF2AB.
  Transformation of IJKL integrals :
  2 passes through the AO integral file were required.
        3304 AO integrals were read.
        3384 MO integrals (Spin case AAAA) were written to HF2AA.
        3384 MO integrals (Spin case BBBB) were written to HF2BB.
        6768 MO integrals (Spin case AABB) were written to HF2AB.
  Summary of active molecular orbitals: 
------------------------------------------------------------------------
                         * Spin case alpha *
 
  Index      Eigenvalue    Symmetry    Index      Eigenvalue    Symmetry
------------------------------------------------------------------------
     1       -21.8794910        1        15        37.9733432        2
     2        -2.2097588        1        16        -0.0815527        3
     3        -1.5864894        2        17         0.6301533        3
     4        -1.5864894        3        18        37.9733432        3
     5         0.0729978        4        19         2.6380697        4
     6        -0.1452567        1        20        -0.7852531        5
     7         0.4505362        1        21        -0.0773962        5
     8         0.4840591        1        22         0.7035452        5
     9         0.9861147        1        23        37.9940295        5
    10         2.6692532        1        24         0.4591962        6
    11         2.6783380        1        25         2.6761603        6
    12        33.0056477        1        26         0.4591962        7
    13        -0.0815527        2        27         2.6761603        7
    14         0.6301533        2
------------------------------------------------------------------------
------------------------------------------------------------------------
                         * Spin case beta *
 
  Index      Eigenvalue    Symmetry    Index      Eigenvalue    Symmetry
------------------------------------------------------------------------
     1       -21.7831762        1        15        -0.0457422        3
     2        -1.8298877        1        16         0.8244473        3
     3        -0.1157024        1        17        38.0678712        3
     4         0.5021447        1        18         0.5871363        4
     5         0.5603720        1        19         2.8977767        4
     6         1.0884355        1        20        -0.6881455        5
     7         2.7770339        1        21        -0.0707214        5
     8         2.8815367        1        22         0.7417577        5
     9        33.0723680        1        23        38.0137979        5
    10        -0.5689811        2        24         0.5176041        6
    11        -0.0457422        2        25         2.8025953        6
    12         0.8244473        2        26         0.5176041        7
    13        38.0678712        2        27         2.8025953        7
    14        -0.5689811        3
------------------------------------------------------------------------
  @CHECKOUT-I, Total execution time (CPU/WALL):        0.03/       2.73 seconds.
--executable xvtran finished with status     0 in        2.87 seconds (walltime).
 --invoking executable--
/home/nike/cfour_v2.00beta/bin/xintprc
 @GETMEM-I,  Allocated   30517 MB of main memory.
  Processing integrals for CCSD calculation.
  @GMOIAA-I, Processing MO integrals for spin case AA.
  @GMOIAA-I, Generation of integral list completed.
                      TYPE                NUMBER
                      ----               --------
                      PPPP                  4687
                      PPPH                  3753
                      PPHH                   881
                      PHPH                   594
                      PHHH                   273
                      HHHH                    39

                     TOTAL                 10227
  @GMOIAA-I, Processing MO integrals for spin case BB.
  @GMOIAA-I, Generation of integral list completed.
                      TYPE                NUMBER
                      ----               --------
                      PPPP                  7333
                      PPPH                  2402
                      PPHH                   243
                      PHPH                   201
                      PHHH                    42
                      HHHH                     6

                     TOTAL                 10227
  @GMOIAB-I, Processing MO integrals for spin case AB.
                      TYPE                NUMBER
                      ----               --------
                      PPPP                 11363
                      PPPH1H                4813
                      PPPH2H                1934
                      PPHH                   802
                      PHPH1P                 171
                      PHPH2P                 768
                      PHHH1P                  63
                      PHHH2P                 144
                      HHHH                    18

                     TOTAL                 20076
            ----------------------------------------------
                     Projected spin multiplicities: 
            ----------------------------------------------
             <0|S^2|0>                  =    3.7500000000.
             <0|S^2 T2|0>               =    0.0000000000.
             Projected <0|S^2 exp(T)|0> =    3.7500000000.
             Approximate spin mult.     =    4.0000000000.
            ----------------------------------------------
   Largest T2 amplitudes for spin case AA:
   i   j   a   b             i   j   a   b             i   j   a   b
-----------------------------------------------------------------------------
[  4   3  17  14]-0.01576 [  4   3  19  10]-0.01300 [  5   3  19  14]-0.01243
[  5   4  19  17]-0.01243 [  3   2  25  20]-0.01048 [  4   2  27  20]-0.01048
[  4   2  17   9]-0.01007 [  3   2  14   9]-0.01007 [  4   2  26  20]-0.00937
[  3   2  24  20]-0.00937 [  4   3  19   8]-0.00871 [  5   2  19   9]-0.00787
[  4   3  17  13]-0.00719 [  4   3  16  14]-0.00719 [  5   3  17   8] 0.00693
-----------------------------------------------------------------------------
   Norm of T2AA vector (      287 symmetry allowed elements):  0.0482773935.
-----------------------------------------------------------------------------
   Largest T2 amplitudes for spin case BB:
   i   j   a   b             i   j   a   b             i   j   a   b
-----------------------------------------------------------------------------
[  2   1  23  20]-0.00139 [  2   1  13  10]-0.00136 [  2   1  17  14]-0.00136
[  2   1  17  16]-0.00097 [  2   1  13  12]-0.00097 [  2   1  23  22]-0.00095
[  2   1  22  20] 0.00069 [  2   1  16  14] 0.00068 [  2   1  12  10] 0.00068
[  2   1  17  15]-0.00038 [  2   1  13  11]-0.00038 [  2   1  23  21]-0.00036
[  2   1   9   6]-0.00034 [  2   1  16  15] 0.00013 [  2   1  12  11] 0.00013
-----------------------------------------------------------------------------
   Norm of T2BB vector (       42 symmetry allowed elements):  0.0032343501.
-----------------------------------------------------------------------------
   Largest T2 amplitudes for spin case AB:
       _       _                 _       _                 _       _
   i   j   a   b             i   j   a   b             i   j   a   b
-----------------------------------------------------------------------------
[  2   2  20  20]-0.06528 [  3   2  25  20]-0.02069 [  4   2  27  20]-0.02069
[  5   2  14  14] 0.02056 [  5   2  17  10] 0.02056 [  3   2  10  10]-0.01988
[  4   2  10  14] 0.01988 [  4   2  19  10]-0.01977 [  3   2  19  14]-0.01977
[  3   2  24  20]-0.01767 [  4   2  26  20]-0.01767 [  3   2   8  10]-0.01707
[  4   2   8  14] 0.01707 [  4   2  17   6]-0.01686 [  3   2  14   6]-0.01686
-----------------------------------------------------------------------------
   Norm of T2AB vector (      802 symmetry allowed elements):  0.1167839054.
-----------------------------------------------------------------------------
  @CHECKOUT-I, Total execution time (CPU/WALL):        0.04/       1.13 seconds.
--executable xintprc finished with status     0 in        1.32 seconds (walltime).
 --invoking executable--
/home/nike/cfour_v2.00beta/bin/xint
 @GETMEM-I,  Allocated   30517 MB of main memory.
  @CHECKOUT-I, Total execution time (CPU/WALL):        0.13/       0.15 seconds.
--executable xint finished with status     0 in        0.94 seconds (walltime).
 --invoking executable--
/home/nike/MRCC/dmrcc
 **********************************************************************
                          MRCC program system
 **********************************************************************
 
                              Written by
    Mihaly Kallay, Zoltan Rolik, Jozsef Csontos, Istvan Ladjanszki,
       Lorant Szegedy, Bence Ladoczki, Gyula Samu, Klara Petrov,
        Mate Farkas, Peter Nagy, David Mester, and Bence Hegely
 
        Department of Physical Chemistry and Materials Science
            Budapest University of Technology and Economics
                  Budapest P.O.Box 91, H-1521 Hungary
 
                              www.mrcc.hu

 ************************ 2018-04-02 02:08:35 *************************
 Executing minp...

 Reading input from MINP...
 
 Input file:
 
# O 2Z
basis=aCVDZ-EMSL
iface=cfour
uncontract=off
calc=CC(7)
mem=32GB
core=corr
itol=18
scftol=13
cctol=7
ccmaxit=999
scfmaxit=9999
scfiguess=ao
scftype=ROHF
rohftype=semicanonical
rest=2
charge=+1
refdet=serialno
1,2
3,4,5

#symm=1
mult=4
#occ=3,0,0,0,0,1,0,0/1,0,0,0,0,1,0,0
geom
O

#Li 1 R

#R=3.065

#unit=angstroms

tprint=0.01
verbosity=3
nstate=4

 
 
 Checking keyword combinations...
 
 Keywords:
 
 active=none
 agrid=ld0006-ld0590
 basis=acvdz-emsl
 basopt=off
 bpcompo=0.985
 bpcompv=0.98
 bpdfo=0.985
 bpocc=0.985
 bppdo=0.985
 bppdv=0.98
 bpedo=0.985
 bpedv=0.98
 calc=cc(7)
 ccmaxit=999
 ccprog=mrcc
 cctol=7
 charge=+1
 cialg=disk
 ciguess=off
 cmpgrp=auto
 core=corr
 corembed=off
 dboc=off
 dendec=cholesky
 dens=0
 dfalg=invsqrt
 dfbasis_cor=none
 dfbasis_scf=none
 dfintran=ovirt
 dft=off
 diag=david
 domrad=10.d0
 drpaalg=fit
 ecp=auto
 edisp=off
 embed=off
 epert=none
 eps=0.975
 excrad=0.d0
 excrad_fin=0.000000000D+00
 freq=off
 gauss=spher
 geom=zmat
 gopt=off
 ghost=none
 gtol=7
 grtol=10
 hamilton=dc
 iface=cfour
 intalg=auto
 itol=18
 lcorthr=loose
 lccrest=off
 lmp2dens=on
 lnoepso=3e-5
 lnoepsv=1e-6
 localcc=off
 locintrf=disk
 maxact=off
 maxex=0
 bfbasis=none
 mem=32gb
 molden=on
 mulmet=0
 mult=4
 nacto=0
 nactv=0
 naf_cor=off
 naf_scf=off
 nafalg=albe
 naftyp=
 nchol=auto
 ndeps=1e-3
 nstate=4
 nsing=0
 ntrip=0
 occ=
 optalg=
 optmaxit=50
 optetol=1e-6
 optgtol=1e-4
 optstol=1e-3
 orblocc=off
 orbloco=off
 orblocv=off
 osveps=1e-3
 ovirt=off
 ovosnorb=80.0
 ptfreq=0.0
 popul=off
 pressure=100000
 qmmm=off
 refdet=serialno
 rest=2
 rgrid=log3
 rohftype=semicanonical
 scspe=1.d0
 scsps=1.2d0
 scspt=0.33333333333333
 scfalg=auto
 scfdamp=off
 scfdiis=on
 scfdiis_end=9999
 scfdiis_start=1
 scfdiis_step=1
 scfdtol=17
 scfext=10
 scfiguess=ao
 scflshift=off
 scfmaxit=9999
 scftype=rohf
 scftol=13
 spairtol=1e-4
 symm=
 talg=occ
 temp=298.15
 test=off
 tprint=0.01
 uncontract=off
 unit=angs
 verbosity=3
 wpairtol=0.100000000E-05

 ************************ 2018-04-02 02:08:37 *************************
 Executing goldstone...

 Generation of CC equations in terms of H and T...
 Generation of antisymmetrized Goldstone diagrams...
 Number of diagrams in T^1 equations:    15
 Number of diagrams in T^2 equations:    38
 Number of diagrams in T^3 equations:    54
 Number of diagrams in T^4 equations:    81
 Number of diagrams in T^5 equations:   106
 Number of diagrams in T^6 equations:   141
 Number of diagrams in T^7 equations:   169
 Translation of diagrams to factorized equations...
 Optimizing intermediate calculation...
 Optimizing right-hand EOMCC calculation...
 Number of floating-point operations per iteration step:   1.1773E+12
 Probable CPU time per iteration step (hours):     11.77
 Required memory (Mbytes):    5083.5
 Number of intermediates:                                 627
 Number of intermediates to be stored:                    228
 Length of intermediate file (Mbytes):    8434.6

 ************************ 2018-04-02 02:08:50 *************************
 Executing xmrcc...

 **********************************************************************
 CC(                     7 ) calculation 
 
 
 Allocation of5083.5 Mbytes of memory...
 Number of spinorbitals:                    54
 Number of alpha electrons:                        5
 Number of beta electrons:                         2
 z-component of spin:  1.5
 Spatial symmetry:                      1
 Convergence criterion:  1.0E-07
 Construction of occupation graphs...
 Number of                     0 -fold excitations:                      1
 Number of                     1 -fold excitations:                     35
 Number of                     2 -fold excitations:                   1131
 Number of                     3 -fold excitations:                  20430
 Number of                     4 -fold excitations:                 185866
 Number of                     5 -fold excitations:                 806259
 Number of                     6 -fold excitations:                1532968
 Number of                     7 -fold excitations:                 984808
 Total number of configurations:                3531498
 Calculation of coupling coefficients...
 Length of intermediate file (Mbytes):    2598.2
 
 ======================================================================
 
 ======================================================================
 
 ======================================================================
 
 ======================================================================
 
 Memory requirements /Mbyte/: 
               Minimal        Optimal
 Real*8:      16742.8277     16742.8277
 Integer:        25.4269
 Total:       16768.2546     16768.2546
 

 ************************ 2018-04-02 02:09:06 *************************
 Executing goldstone...

 Generation of CC equations in terms of H and T...
 Generation of antisymmetrized Goldstone diagrams...
 Number of diagrams in T^1 equations:     8
 Translation of diagrams to factorized equations...
 Optimizing intermediate calculation...
 Optimizing right-hand EOMCC calculation...
 Number of floating-point operations per iteration step:   1.1344E+03
 Probable CPU time per iteration step (hours):      0.00
 Required memory (Mbytes):      41.3
 Number of intermediates:                                  19
 Number of intermediates to be stored:                      9
 Length of intermediate file (Mbytes):       0.1

 ************************ 2018-04-02 02:09:06 *************************
 Executing xmrcc...

 **********************************************************************
 CC(                     1 ) calculation 
 
 
 Allocation of 100.0 Mbytes of memory...
 Number of spinorbitals:                    54
 Number of alpha electrons:                        5
 Number of beta electrons:                         2
 z-component of spin:  1.5
 Spatial symmetry:                      1
 Convergence criterion:  1.0E-07
 Construction of occupation graphs...
 Number of                     0 -fold excitations:                      1
 Number of                     1 -fold excitations:                     35
 Total number of configurations:                     36
 Calculation of coupling coefficients...
 Length of intermediate file (Mbytes):       0.1
 
 ======================================================================
 
 ======================================================================
 
 ======================================================================
 
 ======================================================================
 
 Memory requirements /Mbyte/: 
               Minimal        Optimal
 Real*8:          0.1613         4.0696
 Integer:         3.3004
 Total:           3.4617         7.3700
 

 ************************ 2018-04-02 02:09:07 *************************
 Executing mrcc...

 **********************************************************************
 LR-CCS calculation                                                     
 
 
 OpenMP parallel version is running.
 Number of CPUs:  32
 Allocation of    4.1 Mbytes of memory...
 Number of spinorbitals:  54
 Number of alpha electrons:  5
 Number of beta  electrons:  2
 z-component of spin:  1.5
 Spatial symmetry: 1
 Convergence criterion:  1.0E-07
 Construction of occupation graphs...
 Number of 0-fold excitations: 1
 Number of 1-fold excitations: 35
 Total number of determinants: 36
 Calculation of coupling coefficients...
 Initial cluster amplitudes are generated.
 Length of intermediate file (Mbytes):       0.1
 Reading integral list from unit 55...
 Sorting integrals...
 Sorting integrals...
 Sorting integrals...
 Sorting integrals...
 Energy of reference determinant [au]:     -73.001562919850
 Calculation of diagonal elements of Hamiltonian...
 Calculation of MP denominators...
 
 Starting CC iteration...
 ======================================================================
 Norm of residual vector:     0.13807824
 CPU time [min]:     0.383                   Wall time [min]:     0.016
 
 Iteration  1  CC energy:   -73.00596161  Energy decrease:   0.00439869
 ======================================================================
 Norm of residual vector:     0.02652881
 CPU time [min]:     0.387                   Wall time [min]:     0.016
 
 Iteration  2  CC energy:   -73.00716606  Energy decrease:   0.00120445
 ======================================================================
 Norm of residual vector:     0.00138571
 CPU time [min]:     0.390                   Wall time [min]:     0.016
 
 Iteration  3  CC energy:   -73.00716456  Energy decrease:   0.00000149
 ======================================================================
 Norm of residual vector:     0.00014459
 CPU time [min]:     0.394                   Wall time [min]:     0.016
 
 Iteration  4  CC energy:   -73.00716533  Energy decrease:   0.00000076
 ======================================================================
 Norm of residual vector:     0.00000980
 CPU time [min]:     0.397                   Wall time [min]:     0.017
 
 Iteration  5  CC energy:   -73.00716531  Energy decrease:   0.00000001
 ======================================================================
 Norm of residual vector:     0.00000078
 CPU time [min]:     0.402                   Wall time [min]:     0.017
 
 Iteration  6  CC energy:   -73.00716532  Energy decrease:   0.00000001
 ======================================================================
 Norm of residual vector:     0.00000008
 CPU time [min]:     0.404                   Wall time [min]:     0.017
 
 Iteration  7  CC energy:   -73.00716532  Energy decrease:   6.2479E-10
 ======================================================================
 
 Iteration has converged in  7 steps.
 
 Final results:
 Total CCS energy [au]:              -73.007165319676
 Spin multiplicity:                     2
 
 
 
 Dominant cluster amplitudes
 Printing threshold:  1.00E-02
 
    1.000000  Reference determinant                                     
   -0.012362  2b -> 7b                                                  
   -0.023822  2b -> 11b                                                 
   -0.012032  2b -> 18b                                                 
    0.019413  2b -> 20b                                                 
    0.010197  2a -> 7a                                                  
    0.020384  2a -> 11a                                                 
    0.011516  2a -> 18a                                                 
   -0.017739  2a -> 23a                                                 
 
 Starting right-hand LR-CC iteration for root                      2 ...
 ======================================================================
 Norm of residual vector:     0.11031114      Convergence:   1.00000000
 CPU time [min]:     0.427                   Wall time [min]:     0.018
 
 Iteration  1  CI energy:   -71.76614328  Energy decrease:   1.24102204
 ======================================================================
 Norm of residual vector:     0.10698850      Convergence:   0.05920317
 CPU time [min]:     0.435                   Wall time [min]:     0.018
 
 Iteration  2  CI energy:   -71.76616489  Energy decrease:   0.00002161
 ======================================================================
 Norm of residual vector:     0.08421212      Convergence:   0.02423443
 CPU time [min]:     0.444                   Wall time [min]:     0.018
 
 Iteration  3  CI energy:   -71.76410562  Energy decrease:   0.00205927
 ======================================================================
 Norm of residual vector:     0.02967073      Convergence:   0.19549821
 CPU time [min]:     0.452                   Wall time [min]:     0.019
 
 Iteration  4  CI energy:   -71.77714434  Energy decrease:   0.01303872
 ======================================================================
 Norm of residual vector:     0.02580318      Convergence:   0.00750512
 CPU time [min]:     0.460                   Wall time [min]:     0.019
 
 Iteration  5  CI energy:   -71.80280821  Energy decrease:   0.02566387
 ======================================================================
 Norm of residual vector:     0.00128761      Convergence:   0.01023082
 CPU time [min]:     0.469                   Wall time [min]:     0.019
 
 Iteration  6  CI energy:   -71.80293952  Energy decrease:   0.00013130
 ======================================================================
 Norm of residual vector:     0.00008778      Convergence:   0.00037291
 CPU time [min]:     0.481                   Wall time [min]:     0.020
 
 Iteration  7  CI energy:   -71.80293989  Energy decrease:   0.00000038
 ======================================================================
 Norm of residual vector:     0.00000569      Convergence:   0.00003302
 CPU time [min]:     0.495                   Wall time [min]:     0.020
 
 Iteration  8  CI energy:   -71.80293990  Energy decrease:   3.0101E-09
 ======================================================================
 Norm of residual vector:     0.0000E+00      Convergence:   3.3888E-06
 CPU time [min]:     0.510                   Wall time [min]:     0.021
 
 Iteration  9  CI energy:   -71.80293990  Energy decrease:   9.7302E-11
 ======================================================================
 
 Iteration has converged in  9 steps.
 
 Final results:
 Total LR-CCS energy [au]:           -71.802939896992
 Excitation energy [eV]:          32.7686
 Excitation energy [cm^-1]:   264296.95
 Absorption wavelength [nm]:      37.84
 Spin multiplicity:                     2
 
 
 
 Dominant CI coefficients
 Printing threshold:  1.00E-02
 
   -0.030260  2a -> 14a                                                 
    0.686392  4a -> 9a                                                  
    0.168369  4a -> 16a                                                 
   -0.686392  3a -> 8a                                                  
   -0.168369  3a -> 15a                                                 
 
 Starting right-hand LR-CC iteration for root                      3 ...
 ======================================================================
 Norm of residual vector:     0.11031114      Convergence:   1.00000000
 CPU time [min]:     0.516                   Wall time [min]:     0.021
 
 Iteration  1  CI energy:   -71.76614328  Energy decrease:   1.24102204
 ======================================================================
 Norm of residual vector:     0.10698850      Convergence:   0.05920317
 CPU time [min]:     0.522                   Wall time [min]:     0.021
 
 Iteration  2  CI energy:   -71.76616489  Energy decrease:   0.00002161
 ======================================================================
 Norm of residual vector:     0.08421212      Convergence:   0.02423443
 CPU time [min]:     0.530                   Wall time [min]:     0.022
 
 Iteration  3  CI energy:   -71.76410562  Energy decrease:   0.00205927
 ======================================================================
 Norm of residual vector:     0.02967073      Convergence:   0.19549821
 CPU time [min]:     0.538                   Wall time [min]:     0.022
 
 Iteration  4  CI energy:   -71.77714434  Energy decrease:   0.01303872
 ======================================================================
 Norm of residual vector:     0.02580318      Convergence:   0.00750512
 CPU time [min]:     0.548                   Wall time [min]:     0.022
 
 Iteration  5  CI energy:   -71.80280821  Energy decrease:   0.02566387
 ======================================================================
 Norm of residual vector:     0.00128761      Convergence:   0.01023082
 CPU time [min]:     0.559                   Wall time [min]:     0.023
 
 Iteration  6  CI energy:   -71.80293952  Energy decrease:   0.00013130
 ======================================================================
 Norm of residual vector:     0.00008778      Convergence:   0.00037291
 CPU time [min]:     0.575                   Wall time [min]:     0.023
 
 Iteration  7  CI energy:   -71.80293989  Energy decrease:   0.00000038
 ======================================================================
 Norm of residual vector:     0.00000569      Convergence:   0.00003302
 CPU time [min]:     0.593                   Wall time [min]:     0.024
 
 Iteration  8  CI energy:   -71.80293990  Energy decrease:   3.0101E-09
 ======================================================================
 Norm of residual vector:     0.0000E+00      Convergence:   3.3888E-06
 CPU time [min]:     0.612                   Wall time [min]:     0.025
 
 Iteration  9  CI energy:   -71.80293990  Energy decrease:   9.7302E-11
 ======================================================================
 
 Iteration has converged in  9 steps.
 
 Final results:
 Total LR-CCS energy [au]:           -71.802939896992
 Excitation energy [eV]:          32.7686
 Excitation energy [cm^-1]:   264296.95
 Absorption wavelength [nm]:      37.84
 Spin multiplicity:                     2
 
 
 
 Dominant CI coefficients
 Printing threshold:  1.00E-02
 
    0.030260  2a -> 14a                                                 
   -0.686392  4a -> 9a                                                  
   -0.168369  4a -> 16a                                                 
    0.686392  3a -> 8a                                                  
    0.168369  3a -> 15a                                                 
 
 Starting right-hand LR-CC iteration for root                      4 ...
 ======================================================================
 Norm of residual vector:     0.11359106      Convergence:   1.00000000
 CPU time [min]:     0.618                   Wall time [min]:     0.025
 
 Iteration  1  CI energy:   -71.60033899  Energy decrease:   1.40682633
 ======================================================================
 Norm of residual vector:     0.03528258      Convergence:   0.19176262
 CPU time [min]:     0.625                   Wall time [min]:     0.025
 
 Iteration  2  CI energy:   -71.61425390  Energy decrease:   0.01391492
 ======================================================================
 Norm of residual vector:     0.01091812      Convergence:   0.10027962
 CPU time [min]:     0.633                   Wall time [min]:     0.026
 
 Iteration  3  CI energy:   -71.61287831  Energy decrease:   0.00137560
 ======================================================================
 Norm of residual vector:     0.00164725      Convergence:   0.00594552
 CPU time [min]:     0.643                   Wall time [min]:     0.026
 
 Iteration  4  CI energy:   -71.61296468  Energy decrease:   0.00008637
 ======================================================================
 Norm of residual vector:     0.00018470      Convergence:   0.00125859
 CPU time [min]:     0.651                   Wall time [min]:     0.026
 
 Iteration  5  CI energy:   -71.61296621  Energy decrease:   0.00000153
 ======================================================================
 Norm of residual vector:     0.00001224      Convergence:   0.00014679
 CPU time [min]:     0.659                   Wall time [min]:     0.027
 
 Iteration  6  CI energy:   -71.61296714  Energy decrease:   0.00000093
 ======================================================================
 Norm of residual vector:     0.00000087      Convergence:   0.00000922
 CPU time [min]:     0.668                   Wall time [min]:     0.027
 
 Iteration  7  CI energy:   -71.61296712  Energy decrease:   0.00000002
 ======================================================================
 Norm of residual vector:     0.0000E+00      Convergence:   2.2294E-07
 CPU time [min]:     0.678                   Wall time [min]:     0.027
 
 Iteration  8  CI energy:   -71.61296712  Energy decrease:   7.0253E-10
 ======================================================================
 
 Iteration has converged in  8 steps.
 
 Final results:
 Total LR-CCS energy [au]:           -71.612967123686
 Excitation energy [eV]:          37.9381
 Excitation energy [cm^-1]:   305991.16
 Absorption wavelength [nm]:      32.68
 Spin multiplicity:                     2
 
 Dominant CI coefficients
 Printing threshold:  1.00E-02
 
    0.014360  Reference determinant                                     
    0.965420  2b -> 7b                                                  
    0.021925  2b -> 11b                                                 
    0.095156  2b -> 18b                                                 
   -0.043308  2a -> 7a                                                  
   -0.036387  2a -> 18a                                                 
    0.146917  4a -> 9a                                                  
   -0.074619  4a -> 16a                                                 
    0.146917  3a -> 8a                                                  
   -0.074619  3a -> 15a                                                 
   -0.026754  5a -> 19a                                                 

 ************************ 2018-04-02 02:09:09 *************************
 Executing goldstone...

 Generation of CC equations in terms of H and T...
 Generation of antisymmetrized Goldstone diagrams...
 Number of diagrams in T^1 equations:    14
 Number of diagrams in T^2 equations:    31
 Translation of diagrams to factorized equations...
 Optimizing intermediate calculation...
 Optimizing right-hand EOMCC calculation...
 Number of floating-point operations per iteration step:   1.0814E+06
 Probable CPU time per iteration step (hours):      0.00
 Required memory (Mbytes):      41.3
 Number of intermediates:                                  84
 Number of intermediates to be stored:                     36
 Length of intermediate file (Mbytes):       1.3

 ************************ 2018-04-02 02:09:11 *************************
 Executing xmrcc...

 **********************************************************************
 CC(                     2 ) calculation 
 
 
 Allocation of 100.0 Mbytes of memory...
 Number of spinorbitals:                    54
 Number of alpha electrons:                        5
 Number of beta electrons:                         2
 z-component of spin:  1.5
 Spatial symmetry:                      1
 Convergence criterion:  1.0E-07
 Construction of occupation graphs...
 Number of                     0 -fold excitations:                      1
 Number of                     1 -fold excitations:                     35
 Number of                     2 -fold excitations:                   1131
 Total number of configurations:                   1167
 Calculation of coupling coefficients...
 Length of intermediate file (Mbytes):       1.4
 
 ======================================================================
 
 ======================================================================
 
 ======================================================================
 
 ======================================================================
 
 Memory requirements /Mbyte/: 
               Minimal        Optimal
 Real*8:          2.5305         6.2237
 Integer:         3.4862
 Total:           6.0167         9.7099
 

 ************************ 2018-04-02 02:09:12 *************************
 Executing mrcc...

 **********************************************************************
 LR-CCSD calculation                                                    
 
 
 OpenMP parallel version is running.
 Number of CPUs:  32
 Allocation of    6.2 Mbytes of memory...
 Number of spinorbitals:  54
 Number of alpha electrons:  5
 Number of beta  electrons:  2
 z-component of spin:  1.5
 Spatial symmetry: 1
 Convergence criterion:  1.0E-07
 Construction of occupation graphs...
 Number of 0-fold excitations: 1
 Number of 1-fold excitations: 35
 Number of 2-fold excitations: 1131
 Total number of determinants: 1167
 Calculation of coupling coefficients...
 Initial cluster amplitudes are read from unit 16.
 Length of intermediate file (Mbytes):       1.4
 Reading integral list from unit 55...
 Sorting integrals...
 Sorting integrals...
 Sorting integrals...
 Sorting integrals...
 Energy of reference determinant [au]:     -73.001562919850
 Calculation of diagonal elements of Hamiltonian...
 Calculation of MP denominators...
 
 Starting CC iteration...
 ======================================================================
 Norm of residual vector:     2.00887852
 CPU time [min]:     0.430                   Wall time [min]:     0.021
 
 Iteration  1  CC energy:   -73.10620715  Energy decrease:   0.09895997
 ======================================================================
 Norm of residual vector:     0.16558154
 CPU time [min]:     0.538                   Wall time [min]:     0.025
 
 Iteration  2  CC energy:   -73.12836338  Energy decrease:   0.02215623
 ======================================================================
 Norm of residual vector:     0.04616448
 CPU time [min]:     0.640                   Wall time [min]:     0.029
 
 Iteration  3  CC energy:   -73.13096907  Energy decrease:   0.00260570
 ======================================================================
 Norm of residual vector:     0.01547823
 CPU time [min]:     0.746                   Wall time [min]:     0.034
 
 Iteration  4  CC energy:   -73.13184789  Energy decrease:   0.00087882
 ======================================================================
 Norm of residual vector:     0.00995793
 CPU time [min]:     0.941                   Wall time [min]:     0.041
 
 Iteration  5  CC energy:   -73.13193019  Energy decrease:   0.00008230
 ======================================================================
 Norm of residual vector:     0.00749235
 CPU time [min]:     1.055                   Wall time [min]:     0.046
 
 Iteration  6  CC energy:   -73.13242997  Energy decrease:   0.00049978
 ======================================================================
 Norm of residual vector:     0.00531294
 CPU time [min]:     1.164                   Wall time [min]:     0.049
 
 Iteration  7  CC energy:   -73.13250247  Energy decrease:   0.00007249
 ======================================================================
 Norm of residual vector:     0.00395322
 CPU time [min]:     1.274                   Wall time [min]:     0.053
 
 Iteration  8  CC energy:   -73.13303980  Energy decrease:   0.00053733
 ======================================================================
 Norm of residual vector:     0.00127143
 CPU time [min]:     1.387                   Wall time [min]:     0.057
 
 Iteration  9  CC energy:   -73.13305092  Energy decrease:   0.00001112
 ======================================================================
 Norm of residual vector:     0.00025865
 CPU time [min]:     1.500                   Wall time [min]:     0.061
 
 Iteration 10  CC energy:   -73.13305389  Energy decrease:   0.00000297
 ======================================================================
 Norm of residual vector:     0.00005813
 CPU time [min]:     1.617                   Wall time [min]:     0.065
 
 Iteration 11  CC energy:   -73.13305492  Energy decrease:   0.00000103
 ======================================================================
 Norm of residual vector:     0.00001213
 CPU time [min]:     1.734                   Wall time [min]:     0.070
 
 Iteration 12  CC energy:   -73.13305425  Energy decrease:   0.00000067
 ======================================================================
 Norm of residual vector:     0.00000286
 CPU time [min]:     1.952                   Wall time [min]:     0.077
 
 Iteration 13  CC energy:   -73.13305448  Energy decrease:   0.00000023
 ======================================================================
 Norm of residual vector:     0.00000078
 CPU time [min]:     2.070                   Wall time [min]:     0.081
 
 Iteration 14  CC energy:   -73.13305442  Energy decrease:   0.00000006
 ======================================================================
 Norm of residual vector:     0.00000017
 CPU time [min]:     2.193                   Wall time [min]:     0.085
 
 Iteration 15  CC energy:   -73.13305442  Energy decrease:   0.00000001
 ======================================================================
 Norm of residual vector:     0.00000003
 CPU time [min]:     2.315                   Wall time [min]:     0.090
 
 Iteration 16  CC energy:   -73.13305442  Energy decrease:   6.4682E-10
 ======================================================================
 
 Iteration has converged in 16 steps.
 
 Final results:
 Total CCSD energy [au]:             -73.133054424555
 Spin multiplicity:                     2
 
 
 
 Dominant cluster amplitudes
 Printing threshold:  1.00E-02
 
    1.000000  Reference determinant                                     
   -0.010572  2b -> 7b                                                  
   -0.025020  2b -> 11b                                                 
    0.022557  2b -> 20b                                                 
    0.013010  2a -> 11a                                                 
    0.012127  2a -> 18a                                                 
   -0.011521  2a -> 23a                                                 
   -0.015263  2a 2b -> 18a 18b                                          
   -0.123173  2a 2b -> 6a 6b                                            
   -0.016220  2a 2b -> 10a 6b                                           
   -0.020729  2a 2b -> 17a 6b                                           
   -0.018520  2a 2b -> 6a 10b                                           
   -0.022036  2a 2b -> 6a 17b                                           
   -0.010852  4a 2b -> 7a 4b                                            
   -0.014707  4a 2b -> 11a 4b                                           
   -0.022999  4a 2b -> 14a 4b                                           
   -0.011997  4a 2b -> 18a 4b                                           
   -0.024853  4a 2b -> 20a 4b                                           
    0.014896  4a 2b -> 23a 4b                                           
   -0.018897  4a 2b -> 16a 18b                                          
   -0.023426  4a 2b -> 19a 3b                                           
   -0.014509  4a 2b -> 6a 13b                                           
   -0.016863  4a 2b -> 6a 21b                                           
   -0.025228  4a 2b -> 13a 6b                                           
   -0.026122  4a 2b -> 21a 6b                                           
   -0.010852  3a 2b -> 7a 3b                                            
   -0.014707  3a 2b -> 11a 3b                                           
    0.022999  3a 2b -> 14a 3b                                           
   -0.011997  3a 2b -> 18a 3b                                           
    0.024853  3a 2b -> 20a 3b                                           
    0.014896  3a 2b -> 23a 3b                                           
   -0.018897  3a 2b -> 15a 18b                                          
   -0.023426  3a 2b -> 19a 4b                                           
   -0.014509  3a 2b -> 6a 12b                                           
   -0.016863  3a 2b -> 6a 22b                                           
   -0.025228  3a 2b -> 12a 6b                                           
   -0.026122  3a 2b -> 22a 6b                                           
    0.050990  5a 2b -> 9a 3b                                            
    0.038050  5a 2b -> 16a 3b                                           
    0.050990  5a 2b -> 8a 4b                                            
    0.038050  5a 2b -> 15a 4b                                           
    0.011670  2a 4a -> 16a 18a                                          
   -0.125840  3a 5a -> 6a 13a                                           
   -0.010154  3a 5a -> 10a 13a                                          
    0.012420  3a 5a -> 13a 17a                                          
   -0.013068  3a 5a -> 15a 19a                                          
    0.011670  2a 3a -> 15a 18a                                          
   -0.125840  4a 5a -> 6a 12a                                           
   -0.010154  4a 5a -> 10a 12a                                          
    0.012420  4a 5a -> 12a 17a                                          
   -0.013068  4a 5a -> 16a 19a                                          
   -0.018638  3a 4a -> 15a 16a                                          
   -0.013354  3a 4a -> 19a 20a                                          
 
 Starting right-hand LR-CC iteration for root                      2 ...
 ======================================================================
 Norm of residual vector:     0.46125307      Convergence:   1.00000000
 CPU time [min]:     2.404                   Wall time [min]:     0.093
 
 Iteration  1  CI energy:   -71.89700051  Energy decrease:   1.23605392
 ======================================================================
 Norm of residual vector:     0.41073400      Convergence:   0.41814078
 CPU time [min]:     2.508                   Wall time [min]:     0.096
 
 Iteration  2  CI energy:   -71.91561000  Energy decrease:   0.01860949
 ======================================================================
 Norm of residual vector:     0.09821376      Convergence:   0.25235327
 CPU time [min]:     2.614                   Wall time [min]:     0.100
 
 Iteration  3  CI energy:   -71.96909922  Energy decrease:   0.05348922
 ======================================================================
 Norm of residual vector:     0.04286374      Convergence:   0.13969239
 CPU time [min]:     2.707                   Wall time [min]:     0.103
 
 Iteration  4  CI energy:   -71.97411612  Energy decrease:   0.00501690
 ======================================================================
 Norm of residual vector:     0.02743604      Convergence:   0.03173851
 CPU time [min]:     2.801                   Wall time [min]:     0.106
 
 Iteration  5  CI energy:   -71.97441237  Energy decrease:   0.00029625
 ======================================================================
 Norm of residual vector:     0.01157542      Convergence:   0.02422556
 CPU time [min]:     3.034                   Wall time [min]:     0.114
 
 Iteration  6  CI energy:   -71.97437064  Energy decrease:   0.00004173
 ======================================================================
 Norm of residual vector:     0.00866834      Convergence:   0.00895085
 CPU time [min]:     3.137                   Wall time [min]:     0.118
 
 Iteration  7  CI energy:   -71.97440248  Energy decrease:   0.00003185
 ======================================================================
 Norm of residual vector:     0.00214200      Convergence:   0.00710578
 CPU time [min]:     3.240                   Wall time [min]:     0.121
 
 Iteration  8  CI energy:   -71.97444502  Energy decrease:   0.00004253
 ======================================================================
 Norm of residual vector:     0.00097379      Convergence:   0.00183287
 CPU time [min]:     3.349                   Wall time [min]:     0.125
 
 Iteration  9  CI energy:   -71.97446389  Energy decrease:   0.00001887
 ======================================================================
 Norm of residual vector:     0.00054986      Convergence:   0.00046596
 CPU time [min]:     3.456                   Wall time [min]:     0.129
 
 Iteration 10  CI energy:   -71.97447036  Energy decrease:   0.00000647
 ======================================================================
 Norm of residual vector:     0.00085038      Convergence:   0.00010771
 CPU time [min]:     3.566                   Wall time [min]:     0.132
 
 Iteration 11  CI energy:   -71.97446652  Energy decrease:   0.00000384
 ======================================================================
 Norm of residual vector:     0.00010422      Convergence:   0.00014367
 CPU time [min]:     3.688                   Wall time [min]:     0.136
 
 Iteration 12  CI energy:   -71.97447523  Energy decrease:   0.00000872
 ======================================================================
 Norm of residual vector:     0.00002449      Convergence:   0.00005498
 CPU time [min]:     3.802                   Wall time [min]:     0.140
 
 Iteration 13  CI energy:   -71.97447601  Energy decrease:   0.00000078
 ======================================================================
[...]
 CPU time [min]: 15037.656                   Wall time [min]:  1426.303
 
 Iteration 22  CI energy:   -71.69623806  Energy decrease:   0.00000792
 ======================================================================
 Norm of residual vector:     0.01563802      Convergence:   0.01121501
 CPU time [min]: 15431.399                   Wall time [min]:  1458.756
 
 Iteration 23  CI energy:   -71.69621961  Energy decrease:   0.00001845
 ======================================================================
 Norm of residual vector:     0.00740559      Convergence:   0.00183780
 CPU time [min]: 15831.222                   Wall time [min]:  1494.281
 
 Iteration 24  CI energy:   -71.69623867  Energy decrease:   0.00001906
 ======================================================================
 Complex root in matrix diagonalization.
 Norm of residual vector:     0.01070142      Convergence:   0.00209085
 CPU time [min]: 16237.848                   Wall time [min]:  1531.878
 
 Iteration 25  CI energy:   -71.69624274  Energy decrease:   0.00000407
 ======================================================================
 Norm of residual vector:     0.01067808      Convergence:   0.00000696
 CPU time [min]: 16639.559                   Wall time [min]:  1569.686
 
 Iteration 26  CI energy:   -71.69624258  Energy decrease:   0.00000015
 ======================================================================
 Complex root in matrix diagonalization.
 Norm of residual vector:     0.00946992      Convergence:   0.00299263
 CPU time [min]: 17040.859                   Wall time [min]:  1602.762
 
 Iteration 27  CI energy:   -71.69623412  Energy decrease:   0.00000846
 ======================================================================
 Norm of residual vector:     0.00808065      Convergence:   0.00234821
 CPU time [min]: 17441.114                   Wall time [min]:  1639.889
 
 Iteration 28  CI energy:   -71.69619905  Energy decrease:   0.00003508
 ======================================================================
 Norm of residual vector:     0.00695746      Convergence:   0.00081095
 CPU time [min]: 17835.053                   Wall time [min]:  1671.727
 
 Iteration 29  CI energy:   -71.69619665  Energy decrease:   0.00000239
 ======================================================================
 Complex root in matrix diagonalization.
 Norm of residual vector:     0.00925902      Convergence:   0.00332711
 CPU time [min]: 18235.153                   Wall time [min]:  1704.906
 
 Iteration 30  CI energy:   -71.69612653  Energy decrease:   0.00007013
 ======================================================================
 Complex root in matrix diagonalization.
 Norm of residual vector:     0.00794426      Convergence:   0.00175981
 CPU time [min]: 18643.268                   Wall time [min]:  1742.461
 
 Iteration 31  CI energy:   -71.69623971  Energy decrease:   0.00011318
 ======================================================================
 Complex root in matrix diagonalization.
 Norm of residual vector:     0.00714362      Convergence:   0.00040682
 CPU time [min]: 19046.993                   Wall time [min]:  1777.021
 
 Iteration 32  CI energy:   -71.69622967  Energy decrease:   0.00001003
 ======================================================================
 Norm of residual vector:     0.00915202      Convergence:   0.00236626
 CPU time [min]: 19450.360                   Wall time [min]:  1809.559
 
 Iteration 33  CI energy:   -71.69621561  Energy decrease:   0.00001407
 ======================================================================
 Norm of residual vector:     0.00521511      Convergence:   0.00077638
 CPU time [min]: 19853.933                   Wall time [min]:  1843.979
 
 Iteration 34  CI energy:   -71.69621576  Energy decrease:   0.00000015
 ======================================================================
 Complex root in matrix diagonalization.
 Desired root is complex.
 Imaginary part:   1.496998917012712E-003
 Norm of residual vector:     0.06857776      Convergence:   0.01761520
 CPU time [min]: 20259.352                   Wall time [min]:  1883.332
 
 Iteration 35  CI energy:   -71.69562941  Energy decrease:   0.00058635
 ======================================================================
 Norm of residual vector:     0.04574001      Convergence:   0.00408368
 CPU time [min]: 20670.035                   Wall time [min]:  1919.107
 
 Iteration 36  CI energy:   -71.69660227  Energy decrease:   0.00097287
 ======================================================================
 Norm of residual vector:     0.07892013      Convergence:   0.00503525
 CPU time [min]: 21079.882                   Wall time [min]:  1952.535
 
 Iteration 37  CI energy:   -71.69707750  Energy decrease:   0.00047523
 ======================================================================
 Norm of residual vector:     0.00971934      Convergence:   0.00334692
 CPU time [min]: 21496.017                   Wall time [min]:  1990.466
 
 Iteration 38  CI energy:   -71.69636343  Energy decrease:   0.00071408
 ======================================================================
 Norm of residual vector:     0.04094704      Convergence:   0.00885788
 CPU time [min]: 21905.585                   Wall time [min]:  2023.139
 
 Iteration 39  CI energy:   -71.69595914  Energy decrease:   0.00040429
 ======================================================================
 Norm of residual vector:     0.09423311      Convergence:   0.00585642
 CPU time [min]: 22323.315                   Wall time [min]:  2057.456
 
 Iteration 40  CI energy:   -71.69540766  Energy decrease:   0.00055147
 ======================================================================
 Complex root in matrix diagonalization.
 Norm of residual vector:     0.00218261      Convergence:   0.00167793
 CPU time [min]: 22729.317                   Wall time [min]:  2093.332
 
 Iteration 41  CI energy:   -71.69626287  Energy decrease:   0.00085521
 ======================================================================
 Norm of residual vector:     0.00379646      Convergence:   0.00123720
 CPU time [min]: 23142.309                   Wall time [min]:  2128.184
 
 Iteration 42  CI energy:   -71.69623411  Energy decrease:   0.00002876
 ======================================================================
 Norm of residual vector:     0.01284000      Convergence:   0.00888483
 CPU time [min]: 23560.298                   Wall time [min]:  2162.634
 
 Iteration 43  CI energy:   -71.69643679  Energy decrease:   0.00020267
 ======================================================================
 Norm of residual vector:     0.01450678      Convergence:   0.00173716
 CPU time [min]: 23979.277                   Wall time [min]:  2196.116
 
 Iteration 44  CI energy:   -71.69643114  Energy decrease:   0.00000564
 ======================================================================
 Complex root in matrix diagonalization.
 Norm of residual vector:     0.01500252      Convergence:   0.00281110
 CPU time [min]: 24390.009                   Wall time [min]:  2230.696
 
 Iteration 45  CI energy:   -71.69655585  Energy decrease:   0.00012471
 ======================================================================
 Norm of residual vector:     0.00540106      Convergence:   0.00206431
 CPU time [min]: 24811.184                   Wall time [min]:  2274.132
 
 Iteration 46  CI energy:   -71.69628863  Energy decrease:   0.00026722
 ======================================================================
 Norm of residual vector:     0.00596822      Convergence:   0.00412198
 CPU time [min]: 25219.959                   Wall time [min]:  2307.313
 
 Iteration 47  CI energy:   -71.69616656  Energy decrease:   0.00012207
 ======================================================================
 Norm of residual vector:     0.00935526      Convergence:   0.00407294
 CPU time [min]: 25641.244                   Wall time [min]:  2351.645
 
 Iteration 48  CI energy:   -71.69602179  Energy decrease:   0.00014477
 ======================================================================
 Norm of residual vector:     0.00512134      Convergence:   0.00169123
 CPU time [min]: 26069.155                   Wall time [min]:  2394.981
 
 Iteration 49  CI energy:   -71.69608359  Energy decrease:   0.00006179
 ======================================================================
 Complex root in matrix diagonalization.
 Desired root is complex.
 Imaginary part:   9.756638779477306E-004
 Norm of residual vector:     0.04011437      Convergence:   0.01345637
 CPU time [min]: 26499.584                   Wall time [min]:  2438.046
 
 Iteration 50  CI energy:   -71.69700028  Energy decrease:   0.00091669
 ======================================================================
 
 Convergence not achieved in 50 iterations!
 
 Final results:
 Total LR-CC(7) energy [au]:         -71.697000276076
 Excitation energy [eV]:          38.8817
 Excitation energy [cm^-1]:   313602.45
 Absorption wavelength [nm]:      31.89
 Spin multiplicity:                     2
 
 Dominant CI coefficients
 Printing threshold:  1.00E-02
 
    0.027661  Reference determinant                                     
    0.780204  2b -> 7b                                                  
    0.034026  2b -> 11b                                                 
    0.062414  2b -> 18b                                                 
    0.231085  2a -> 7a                                                  
    0.013097  2a -> 11a                                                 
    0.087120  4a -> 9a                                                  
   -0.089603  4a -> 16a                                                 
    0.087219  3a -> 8a                                                  
   -0.089915  3a -> 15a                                                 
   -0.029150  5a -> 19a                                                 
    0.043778  2a 2b -> 7a 7b                                            
    0.037496  2a 2b -> 18a 7b                                           
    0.017017  2a 2b -> 7a 18b                                           
   -0.016490  2a 2b -> 16a 4b                                           
   -0.016522  2a 2b -> 15a 3b                                           
    0.106455  2a 2b -> 6a 6b                                            
   -0.022521  2a 2b -> 6a 10b                                           
   -0.020904  2a 2b -> 6a 17b                                           
    0.235617  4a 2b -> 7a 4b                                            
    0.018569  4a 2b -> 18a 4b                                           
    0.043664  4a 2b -> 7a 9b                                            
    0.056118  4a 2b -> 7a 16b                                           
    0.037187  4a 2b -> 9a 7b                                            
    0.053587  4a 2b -> 16a 7b                                           
    0.037097  4a 2b -> 6a 13b                                           
    0.235560  3a 2b -> 7a 3b                                            
    0.018562  3a 2b -> 18a 3b                                           
    0.043587  3a 2b -> 7a 8b                                            
    0.056067  3a 2b -> 7a 15b                                           
    0.037169  3a 2b -> 8a 7b                                            
    0.053627  3a 2b -> 15a 7b                                           
    0.036964  3a 2b -> 6a 12b                                           
    0.039539  5a 2b -> 7a 5b                                            
    0.030611  5a 2b -> 11a 5b                                           
    0.021609  5a 2b -> 7a 19b                                           
    0.012393  5a 2b -> 16a 3b                                           
   -0.120048  5a 2b -> 9a 8b                                            
    0.022543  5a 2b -> 16a 8b                                           
   -0.022540  5a 2b -> 9a 15b                                           
    0.021301  5a 2b -> 16a 15b                                          
    0.012276  5a 2b -> 15a 4b                                           
   -0.121551  5a 2b -> 8a 9b                                            
    0.023942  5a 2b -> 15a 9b                                           
   -0.021239  5a 2b -> 8a 16b                                           
    0.021544  5a 2b -> 15a 16b                                          
    0.049535  5a 2b -> 19a 7b                                           
    0.039046  5a 2b -> 13a 12b                                          
    0.037383  5a 2b -> 12a 13b                                          
    0.012738  2a 4a -> 7a 9a                                            
   -0.019467  2a 4a -> 6a 13a                                           
    0.014754  2a 4a -> 7a 16a                                           
    0.035842  3a 5a -> 10a 13a                                          
   -0.014292  3a 5a -> 9a 14a                                           
   -0.012329  3a 5a -> 7a 16a                                           
    0.011680  3a 5a -> 14a 16a                                          
    0.040132  3a 5a -> 13a 17a                                          
    0.012334  3a 5a -> 16a 18a                                          
   -0.013339  3a 5a -> 6a 21a                                           
    0.012677  2a 3a -> 7a 8a                                            
   -0.019446  2a 3a -> 6a 12a                                           
    0.014707  2a 3a -> 7a 15a                                           
    0.034529  4a 5a -> 10a 12a                                          
    0.014323  4a 5a -> 8a 14a                                           
   -0.014367  4a 5a -> 7a 15a                                           
   -0.011452  4a 5a -> 14a 15a                                          
    0.038183  4a 5a -> 12a 17a                                          
    0.011632  4a 5a -> 15a 18a                                          
   -0.012976  4a 5a -> 6a 22a                                           
    0.014829  3a 4a -> 8a 9a                                            
   -0.011024  3a 4a -> 15a 16a                                          
    0.010149  2a 5a -> 7a 19a                                           
   -0.010563  3a 5a 2b -> 8a 15a 4b                                     
   -0.052911  3a 5a 2b -> 6a 10a 9b                                     
    0.010805  3a 5a 2b -> 8a 15a 9b                                     
    0.011975  3a 5a 2b -> 10a 17a 9b                                    
   -0.013287  3a 5a 2b -> 6a 10a 16b                                    
   -0.017631  3a 5a 2b -> 6a 13a 7b                                     
    0.014808  3a 5a 2b -> 10a 13a 7b                                    
   -0.025087  3a 5a 2b -> 13a 17a 7b                                    
    0.022875  3a 5a 2b -> 6a 21a 7b                                     
   -0.043228  3a 5a 2b -> 6a 13a 11b                                    
    0.023511  3a 5a 2b -> 6a 13a 14b                                    
    0.067748  3a 5a 2b -> 8a 9a 3b                                      
   -0.014689  3a 5a 2b -> 9a 15a 3b                                     
    0.028555  3a 5a 2b -> 8a 16a 3b                                     
    0.013871  3a 5a 2b -> 8a 9a 15b                                     
    0.012825  3a 5a 2b -> 6a 14a 13b                                    
   -0.032630  3a 5a 2b -> 9a 10a 6b                                     
    0.086948  3a 5a 2b -> 7a 13a 6b                                     
    0.015306  3a 5a 2b -> 10a 16a 6b                                    
   -0.058030  3a 5a 2b -> 6a 9a 10b                                     
    0.014423  3a 5a 2b -> 7a 13a 10b                                    
    0.010153  3a 5a 2b -> 9a 17a 10b                                    
   -0.010347  3a 5a 2b -> 6a 9a 17b                                     
    0.020075  3a 5a 2b -> 7a 13a 17b                                    
   -0.010817  4a 5a 2b -> 9a 16a 3b                                     
   -0.050217  4a 5a 2b -> 6a 10a 8b                                     
    0.011059  4a 5a 2b -> 9a 16a 8b                                     
    0.011303  4a 5a 2b -> 10a 17a 8b                                    
   -0.011124  4a 5a 2b -> 6a 10a 15b                                    
   -0.058957  4a 5a 2b -> 6a 12a 7b                                     
    0.010716  4a 5a 2b -> 10a 12a 7b                                    
   -0.018904  4a 5a 2b -> 12a 17a 7b                                    
    0.019763  4a 5a 2b -> 6a 22a 7b                                     
   -0.041652  4a 5a 2b -> 6a 12a 11b                                    
   -0.022053  4a 5a 2b -> 6a 12a 14b                                    
   -0.067654  4a 5a 2b -> 8a 9a 4b                                      
    0.028246  4a 5a 2b -> 9a 15a 4b                                     
   -0.014193  4a 5a 2b -> 8a 16a 4b                                     
   -0.013746  4a 5a 2b -> 8a 9a 16b                                     
    0.032406  4a 5a 2b -> 6a 7a 12b                                     
   -0.012965  4a 5a 2b -> 6a 14a 12b                                    
    0.011128  4a 5a 2b -> 6a 7a 22b                                     
   -0.031020  4a 5a 2b -> 8a 10a 6b                                     
    0.103775  4a 5a 2b -> 7a 12a 6b                                     
    0.016253  4a 5a 2b -> 10a 15a 6b                                    
   -0.055942  4a 5a 2b -> 6a 8a 10b                                     
    0.016456  4a 5a 2b -> 7a 12a 10b                                    
    0.023090  4a 5a 2b -> 7a 12a 17b                                    
    0.010476  3a 4a 2b -> 7a 9a 3b                                      
    0.017245  3a 4a 2b -> 7a 16a 3b                                     
   -0.043614  2a 5a 2b -> 6a 13a 3b                                     
    0.010016  2a 5a 2b -> 6a 13a 15b                                    
   -0.010504  3a 4a 2b -> 7a 8a 4b                                      
   -0.017343  3a 4a 2b -> 7a 15a 4b                                     
   -0.043825  2a 5a 2b -> 6a 12a 4b                                     
    0.017248  3a 4a 5a -> 6a 10a 14a                                    
   -0.010337  3a 4a 5a -> 6a 14a 17a                                    
    0.023441  2a 3a 5a -> 6a 7a 13a                                     
    0.010669  2a 3a 5a -> 6a 11a 13a                                    
    0.010681  2a 4a 5a -> 6a 11a 12a                                    
    0.033370  3a 4a 5a 2b -> 6a 9a 10a 4b                               
   -0.014765  3a 4a 5a 2b -> 6a 7a 13a 4b                               
    0.012669  3a 4a 5a 2b -> 6a 9a 17a 4b                               
   -0.031311  3a 4a 5a 2b -> 6a 8a 10a 3b                               
   -0.012866  3a 4a 5a 2b -> 6a 8a 17a 3b                               
 
 ************************ 2018-04-04 23:56:01 *************************
                      Normal termination of mrcc.
 **********************************************************************
--executable dmrcc finished with status     0 in   251246.22 seconds (walltime).
  The final electronic energy is       -71.697000276075968 a.u. 
  This computation required                       251254.29 seconds (walltime).
--- SharcNET Job Epilogue ---
Job completed successfully.
               jobid: 1537769
               resid: 3017456
         exit status: 0
      allocated time: 251255
           user time: 2666900
         system time: 384092
peak rss=24598441984; peak vsz=24598441984 (bytes)
atime=251255; utime=2666900; stime=384092; exit=0
