 --invoking executable--
/home/nike/cfour_v2.00beta/bin/xjoda


   *************************************************************************
         <<<     CCCCCC     CCCCCC   |||     CCCCCC     CCCCCC   >>>
       <<<      CCC        CCC       |||    CCC        CCC         >>>
      <<<      CCC        CCC        |||   CCC        CCC            >>>
    <<<        CCC        CCC        |||   CCC        CCC              >>>
      <<<      CCC        CCC        |||   CCC        CCC            >>>
       <<<      CCC        CCC       |||    CCC        CCC         >>>
         <<<     CCCCCC     CCCCCC   |||     CCCCCC     CCCCCC   >>>
   *************************************************************************

     ****************************************************************
     * CFOUR Coupled-Cluster techniques for Computational Chemistry *
     ****************************************************************
 

   Department of Chemistry                Institut fuer Physikalische Chemie
   University of Texas at Austin          Universitaet Mainz
   Austin, TX  78712, USA                 D-55099 Mainz, Germany
 
                       Version 2.00beta
 
                     wob121                                            
                     Mon Apr  2 02:12:16 EDT 2018                      
                     integer*8 version is running
 
********************************************************************************
*                          Input from ZMAT file                                *
********************************************************************************
TITLE                                                                           
O                                                                               
                                                                                
*ACES2(CALC=CCSD                                                                
INPUT_MRCC=OFF                                                                  
CC_PROG=MRCC                                                                    
XFORM_TOL=18                                                                    
SAVE_INTS=ON                                                                    
SCF_EXPORDER=6                                                                  
SCF_EXPSTART=5                                                                  
#SCF_DAMPING=1000                                                               
SCF_EXTRAPOLATION=ON                                                            
SCF_CONV=10                                                                     
SCF_MAXCYC=9999                                                                 
CC_CONV=10                                                                      
CC_MAXCYC=999                                                                   
T3_EXTRAPOL=ON                                                                  
REFERENCE=ROHF                                                                  
CHARGE=+1                                                                       
MULT=4                                                                          
ABCDTYPE=STANDARD                                                               
OCCUPATION=2-1-1-1-0-0-0-0/2-0-0-0-0-0-0-0                                      
MEM=32                                                                          
MEM_UNIT=GB                                                                     
BASIS=SPECIAL)                                                                  
                                                                                
O:aCVTZ-EMSL                                                                    
                                                                                
********************************************************************************
  @GTFLGS-W, Keyword #SCF_DAMPING not known and is ignored.
    -------------------------------------------------------------------
                    CFOUR Control Parameters 
    -------------------------------------------------------------------
        External           Internal           Value            Units
          Name               Name
    -------------------------------------------------------------------
       ABCDTYPE             IABCDT         STANDARD     [  0]   ***   
       ANHARMONIC           IANHAR         OFF          [  0]   ***   
       ANH_ALGORIT          IANALG         STANDARD     [  0]   ***   
       ANH_DERIVAT          IANDER         SECOND       [  1]   ***   
       ANH_STEPSIZ          ICUBST             50000          x 10-6  
       ANH_SYMMETR          IANHSM         ABELIAN      [  0]   ***   
       AO_LADDERS           IAOLAD         SINGLEPASS   [  1]   ***   
       BASIS                IBASIS         SPECIAL      [  0]   ***   
       BREIT                IBREIT         OFF          [  0]   ***   
       BRUCK_CONV           IBRTOL          10D-  4             ***   
       BRUECKNER            IBRKNR             OFF      [  0]   ***   
       BUFFERSIZE           IBUFFS            600               ***   
       CACHE_RECS           ICHREC             10               ***   
       CALCLEVEL            ICLLVL           CCSD       [ 10]   ***   
       CCORBOPT             ICCORB             OFF      [  0] x 0.01  
       CC_CONV              ICCCNV          10D- 10             ***   
       CC_EXPORDER          ICCEOR              5               ***   
       CC_EXTRAPOL          ICCEXT             DIIS     [  1]   ***   
       CC_MAXCYC            ICCCYC            999              cycles 
       CC_PROGRAM           ICCPRO         MRCC         [  2]   ***   
       CHARGE               ICHRGE              1               ***   
       CHOLESKY             ICHOLE         OFF          [  0]   ***   
       CIS_CONV             ICISTL              5               ***   
       COMM_SIZE            IPSIZE            ***               ***   
       CONSTANT             ICONST         OLD          [  1]   ***   
       CONTINUUM            ICONTU         NONE         [  0]   ***   
       CONTRACTION          ICNTYP          GENERAL     [  1]   ***   
       COORDINATES          ICOORD         INTERNAL     [  0]   ***   
       CPHF_CONVER          ICPHFT          10D- 16             ***   
       CPHF_MAXCYC          ICPHFC             64              cycles 
       CUBIC                ICUBIC         OFF          [  0]   ***   
       CURVILINEAR          ICURVY            OFF       [  0]   ***   
       DBOC                 IDBOC          OFF          [  0]   ***   
       DCT                  IDCT           OFF          [  0]   ***   
       DERIV_LEV            IDRLVL            ZERO      [  0]   ***   
       DIAG_MRCC            IEOMST          10D-  0             ***   
       DIFF_TYPE            IDIFTY         RELAXED      [  0]   ***   
       DIRECT               IDIRCT         OFF          [  0]   ***   
       DROPMO               IDRPMO      NONE         
       ECP                  IECP           OFF          [  0]   ***   
       EIGENVECTOR          IVEC                1               ***   
       EL_ANHARM            IELANH         OFF          [  0]   ***   
       EOMFOLLOW            IEOMSR         ENERGY       [  0]   ***   
       EOM_MRCC             IMRCCE         NEW          [  1]   ***   
       EOM_NONIT            EOMNON         OFF          [  0]   ***   
       EOM_NSING            IEOMSI          10D-  0             ***   
       EOM_NSTATES          IMRCCD         DAVIDSON     [  0]   ***   
       EOM_NTRIP            IEOMTR          10D-  0             ***   
       EOM_ORDER            IEXORD         ENERGY       [  0]   ***   
       ESTATE_CONV          IEXTOL          10D-  5             ***   
       ESTATE_DIAG          IEXDIG         ITERATIVE    [  0]   ***   
       ESTATE_LOCK          IESLOC         ON           [  1]   ***   
       ESTATE_MAXC          IEXMXC             20               ***   
       ESTATE_PROP          IEXPRP         OFF          [  0]   ***   
       EVAL_HESS            IRECAL              0            # of cyc.
       EXCITATION           IEXCIT              0               ***   
       EXCITE               IEXCIT         NONE         [  0]   ***   
       FCGRADNEW            IFCGNW         OFF          [  0]   ***   
       FC_FIELD             IFINFC              0             x 10-6  
       FD_CALTYPE           IFDCAL         GRADONLY     [  0]   ***   
       FD_PROJECT           IFDPRJ         OFF          [  1]   ***   
       FD_STEPSIZE          IDISFD              0            10-4 bohr
       FD_USEGROUP          IFDGRP         FULL         [  0]   ***   
       FILE_RECSIZ          IFLREC              4096           words  
       FINITE_PERT          IFIPER              0             x 10-6  
       FIXGEOM              IFIXGM         OFF          [  0]   ***   
       FOCK                 IFOCK          AO           [  1]   ***   
       FREQ_ALGORI          IVIALG         STANDARD     [  0]   ***   
       FROZEN_CORE          IFROCO         OFF          [  0]   ***   
       FROZEN_VIRT          IFROVI         OFF          [  0]   ***   
       GAMMA_ABCD           IGABCD         STORE        [  0]   ***   
       GAMMA_ABCI           IGABCI         STORE        [  0]   ***   
       GENBAS_1             IGNBS1              0               ***   
       GENBAS_2             IGNBS2              0               ***   
       GENBAS_3             IGNBS3              0               ***   
       GENBAS_4             IGNBS4              0               ***   
       GEO_CONV             ICONTL              5              H/bohr 
       GEO_MAXCYC           IOPTCY             50               ***   
       GEO_MAXSTEP          IMXSTP            300            millibohr
       GEO_METHOD           INR            SINGLE_POINT [  5]   ***   
       GIAO                 IGIAO          OFF          [  1]   ***   
       GIMIC                IGIMIC         OFF          [  0]   ***   
       GRID                 IGRID          OFF          [  0]   ***   
       GRID_ALGO            IGALGO         SERIAL       [  0]   ***   
       GUESS                IGUESS            MOREAD    [  0]   ***   
       HBAR                 IHBAR              OFF      [  0]   ***   
       HESS_TYPE            IHESTP         SCF          [  0]   ***   
       HF2_FILE             IHF2Fl         USE          [  1]   ***   
       HFSTABILITY          ISTABL         OFF          [  0]   ***   
       INCORE               INCORE             OFF      [  0]   ***   
       INPUT_MRCC           IMRCC          OFF          [  0]   ***   
       INTEGRALS            INTTYP             VMOL     [  1]   ***   
       JODA_PRINT           IJPRNT              0               ***   
       LINDEP_TOL           ILINDP              8               ***   
       LINEQ_CONV           IZTACN          10D-  7           cycles  
       LINEQ_EXPOR          ILMAXD              5               ***   
       LINEQ_MAXCY          ILMAXC             50               ***   
       LINEQ_TYPE           ILTYPE         DIIS         [  1]   ***   
       LOCK_ORBOCC          ILOCOC             OFF      [  0]   ***   
       MEMORY_SIZE          IMEMSZ         *********           words  
       MEM_UNIT             IMEMU          GB           [  3]   ***   
       MRCC                 IMRCCC         OFF          [  0]   ***   
       MULTIPLICTY          IMULTP              4               ***   
       NEGEVAL              IDIE             ABORT      [  0]   ***   
       NEWNORM              INEWNO         OFF          [  0]   ***   
       NON-HF               INONHF              ON      [  1]   ***   
       NTOP_TAMP            ITOPT2             15               ***   
       NUC_MODEL            INUCMO         POINT        [  0]   ***   
       OCCUPATION           IOCCU  A   2,  1,  1,  1,  0,  0,  0,  0,
                                   B   2,  0,  0,  0,  0,  0,  0,  0,
       OPEN-SHELL           IOPEN          SPIN-ORBITAL [  0]   ***   
       ORBITALS             IORBTP         SEMICANONICAL[  1]   ***   
       PARALLEL             IPARAL         ON           [  1]   ***   
       PARA_INT             IPINTS         ON           [  1]   ***   
       PARA_PRINT           IPPRIN              0               ***   
       PERT_ORB             IPTORB         STANDARD     [  0]   ***   
       POINTS               IGRDFD              0               ***   
       PRINT                IPRNT               0               ***   
       PROPS                IPROPS             OFF      [  0]   ***   
       PROP_INTEGR          IINTYP         INTERNAL     [  0]   ***   
       PSI                  IPSI           OFF          [  0]   ***   
       QUARTIC              IQUART         OFF          [  0]   ***   
       RAMAN_INT            IRAMIN         OFF          [  0]   ***   
       RAMAN_ORB            IRAMRE         UNRELAXED    [  0]   ***   
       RDO                  IRDOFM             OFF      [  0]   ***   
       REFERENCE            IREFNC             ROHF     [  2]   ***   
       RELATIVIST           IRELAT         OFF          [  0]   ***   
       RELAX_DENS           IRDENS             OFF      [  0]   ***   
       RESET_FLAGS          IRESET             OFF      [  0]   ***   
       RESTART_CC           ICCRES         OFF          [  0]   ***   
       ROT_EVEC             ROTVEC              0               ***   
       SAVE_INTS            ISVINT              ON      [  1]   ***   
       SCALE_ON             ISTCRT              0               ***   
       SCF_CONV             ISCFCV          10D- 10             ***   
       SCF_DAMPING          IDAMP               0             x 10-3  
       SCF_EXPORDE          IRPPOR              6               ***   
       SCF_EXPSTAR          IRPPLS              5               ***   
       SCF_EXTRAPO          IRPP                ON      [  1]   ***   
       SCF_MAXCYC           ISCFCY            ***              cycles 
       SCF_NOSTOP           ISCFST         OFF          [  0]   ***   
       SCF_PRINT            ISCFPR              0               ***   
       SD_FIELD             IFINSD              0             x 10-6  
       SEQUENCE             ISEQUE         OFF          [  0]   ***   
       SOPERT               IPERSO         OFF          [  0]   ***   
       SPHERICAL            IDFGHI             ON       [  1]   ***   
       SPINORBIT            ISOCAL         OFF          [  0]   ***   
       SPINROTATIO          ISRCON         OFF          [  0]   ***   
       SPIN_FLIP            ISPFLP         OFF          [  0]   ***   
       SPIN_ORBIT           ISPORB         OFF          [  0]   ***   
       SPIN_SCAL            ISCSMP         OFF          [  0]   ***   
       SUBGROUP             ISUBGP         DEFAULT      [  0]   ***   
       SUBGRPAXIS           ISBXYZ         X            [  0]   ***   
       SYMMETRY             ISYM             ON         [  0]   ***   
       SYM_CHECK            ISYMCK         OVERRIDE     [  1]   ***   
       T3_EXTRAPOL          IT3EXT         ON           [  1]   ***   
       TAMP_SUM             IEVERY              5               ***   
       TESTSUITE            ITESTS         OFF          [  0]   ***   
       THERMOCH             ITHERM         OFF          [  0]   ***   
       TOL_CHOLESK          ITOLCH          10D-  4             ***   
       TRANGRAD             IRESRM         OFF          [  0]   ***   
       TRANS_INV            ITRAIN         USE          [  0]   ***   
       TREAT_PERT           ITREAT         SIMULTANEOUS [  0]   ***   
       UIJ_THRESHO          IUIJTH              1               ***   
       UNITS                IUNITS         ANGSTROM     [  0]   ***   
       UNOS                 IUNOS          OFF          [  0]   ***   
       UPDATE_HESS          IHUPDT         ON           [  1]   ***   
       VIBPHASE             ISETPH         STANDARD     [  0]   ***   
       VIBRATION            IVIB              NO        [  0]   ***   
       VIB_ALGORIT          IGEALG         STANDARD     [  0]   ***   
       VNATORB              IVNORB         OFF          [  0]   ***   
       VTRAN                IVTRAN         FULL/PARTIAL [  0]   ***   
       XFIELD               IXEFLD              0             x 10-6  
       XFORM_TOL            IXFTOL          10D- 18             ***   
       YFIELD               IYEFLD              0             x 10-6  
       ZFIELD               IZEFLD              0             x 10-6  
    -------------------------------------------------------------------
   1 entries found in Z-matrix 
   Job Title : TITLE                                                                           
  1  O          8    15.99491
 factor:   60.1997200000000     
   Rotational constants (in cm-1): 

   Rotational constants (in MHz): 

********************************************************************************
   The full molecular point group is I h .
   The largest Abelian subgroup of the full molecular point group is D2h .
   The computational point group is D2h .
********************************************************************************
  @GTFLGS-W, Keyword #SCF_DAMPING not known and is ignored.
  There are   59 basis functions.
 @GEOPT-W, Archive file not created for single-point calculation.
  @CHECKOUT-I, Total execution time (CPU/WALL):        0.23/       0.32 seconds.
--executable xjoda finished with status     0 in        0.35 seconds (walltime).
 --invoking executable--
/home/nike/cfour_v2.00beta/bin/xvmol
 Serial version of molecule started
********************************************************************************
                    Input from MOL file
********************************************************************************
INTGRL        1    0    1    0    0    0    0    0    0                         
         *** CFOUR Program System (Release V0.1) ***                            
TITLE                                                                           
    1    3 X  Y   Z   0.10E-08              0    0                              
   9999.00      3.00                                                            
          8.00000000    1    4    1    1    1    1                              
O #1   0.000000000000000   0.000000000000000   0.000000000000000                
   13    7                                                                      
   15330.0000000000       5.080000000000000E-004 -1.150000000000000E-004        
  0.000000000000000E+000  0.000000000000000E+000  0.000000000000000E+000        
  0.000000000000000E+000  0.000000000000000E+000                                
   2299.00000000000       3.929000000000000E-003 -8.950000000000000E-004        
  0.000000000000000E+000  0.000000000000000E+000  0.000000000000000E+000        
  0.000000000000000E+000  0.000000000000000E+000                                
   522.400000000000       2.024300000000000E-002 -4.636000000000000E-003        
  0.000000000000000E+000  0.000000000000000E+000  0.000000000000000E+000        
  0.000000000000000E+000  0.000000000000000E+000                                
   147.300000000000       7.918100000000000E-002 -1.872400000000000E-002        
  0.000000000000000E+000  0.000000000000000E+000  0.000000000000000E+000        
  0.000000000000000E+000  0.000000000000000E+000                                
   47.5500000000000       0.230687000000000      -5.846300000000000E-002        
  0.000000000000000E+000  0.000000000000000E+000  0.000000000000000E+000        
  0.000000000000000E+000  0.000000000000000E+000                                
   16.7600000000000       0.433118000000000      -0.136463000000000             
  0.000000000000000E+000  0.000000000000000E+000  0.000000000000000E+000        
  0.000000000000000E+000  0.000000000000000E+000                                
   6.20700000000000       0.350260000000000      -0.175740000000000             
  0.000000000000000E+000  0.000000000000000E+000  0.000000000000000E+000        
  0.000000000000000E+000  0.000000000000000E+000                                
   1.75200000000000       4.272800000000000E-002  0.160934000000000             
   1.00000000000000       0.000000000000000E+000  0.000000000000000E+000        
  0.000000000000000E+000  0.000000000000000E+000                                
  0.688200000000000      -8.154000000000000E-003  0.603418000000000             
  0.000000000000000E+000  0.000000000000000E+000  0.000000000000000E+000        
  0.000000000000000E+000  0.000000000000000E+000                                
  0.238400000000000       2.381000000000000E-003  0.378765000000000             
  0.000000000000000E+000   1.00000000000000       0.000000000000000E+000        
  0.000000000000000E+000  0.000000000000000E+000                                
   7.84500000000000       0.000000000000000E+000  0.000000000000000E+000        
  0.000000000000000E+000  0.000000000000000E+000   1.00000000000000             
  0.000000000000000E+000  0.000000000000000E+000                                
   21.0320000000000       0.000000000000000E+000  0.000000000000000E+000        
  0.000000000000000E+000  0.000000000000000E+000  0.000000000000000E+000        
   1.00000000000000       0.000000000000000E+000                                
  7.376000000000001E-002  0.000000000000000E+000  0.000000000000000E+000        
  0.000000000000000E+000  0.000000000000000E+000  0.000000000000000E+000        
  0.000000000000000E+000   1.00000000000000                                     
    8    6                                                                      
   34.4600000000000       1.592800000000000E-002  0.000000000000000E+000        
  0.000000000000000E+000  0.000000000000000E+000  0.000000000000000E+000        
  0.000000000000000E+000                                                        
   7.74900000000000       9.974000000000000E-002  0.000000000000000E+000        
  0.000000000000000E+000  0.000000000000000E+000  0.000000000000000E+000        
  0.000000000000000E+000                                                        
   2.28000000000000       0.310492000000000       0.000000000000000E+000        
  0.000000000000000E+000  0.000000000000000E+000  0.000000000000000E+000        
  0.000000000000000E+000                                                        
  0.715600000000000       0.491026000000000        1.00000000000000             
  0.000000000000000E+000  0.000000000000000E+000  0.000000000000000E+000        
  0.000000000000000E+000                                                        
  0.214000000000000       0.336337000000000       0.000000000000000E+000        
   1.00000000000000       0.000000000000000E+000  0.000000000000000E+000        
  0.000000000000000E+000                                                        
   15.1590000000000       0.000000000000000E+000  0.000000000000000E+000        
  0.000000000000000E+000   1.00000000000000       0.000000000000000E+000        
  0.000000000000000E+000                                                        
   57.4370000000000       0.000000000000000E+000  0.000000000000000E+000        
  0.000000000000000E+000  0.000000000000000E+000   1.00000000000000             
  0.000000000000000E+000                                                        
  5.974000000000000E-002  0.000000000000000E+000  0.000000000000000E+000        
  0.000000000000000E+000  0.000000000000000E+000  0.000000000000000E+000        
   1.00000000000000                                                             
    4    4                                                                      
   2.31400000000000        1.00000000000000       0.000000000000000E+000        
  0.000000000000000E+000  0.000000000000000E+000                                
  0.645000000000000       0.000000000000000E+000   1.00000000000000             
  0.000000000000000E+000  0.000000000000000E+000                                
   15.8580000000000       0.000000000000000E+000  0.000000000000000E+000        
   1.00000000000000       0.000000000000000E+000                                
  0.214000000000000       0.000000000000000E+000  0.000000000000000E+000        
  0.000000000000000E+000   1.00000000000000                                     
    2    2                                                                      
   1.42800000000000        1.00000000000000       0.000000000000000E+000        
  0.500000000000000       0.000000000000000E+000   1.00000000000000             
FINISH                                                                          
 
********************************************************************************
 One- and two-electron integrals over symmetry-adapted AOs are calculated.

  Spherical harmonics are used.
  
  Integrals less than  0.10E-13 are neglected.

  Nuclear repulsion energy :    0.0000000000 a.u.
  required memory for a1 array                5208952  words 
  required memory for a2 array                2664637  words 
 @GETMEM-I,  Allocated      75 MB of main memory.
  @MOLECU-I, One electron integrals (CPU/WALL):        0.03/       0.03 seconds.
  @TWOEL-I,       7254 integrals of symmetry type  I I I I
  @TWOEL-I,      48318 integrals of symmetry type  I J I J
  @TWOEL-I,      30318 integrals of symmetry type  I I J J
  @TWOEL-I,      80992 integrals of symmetry type  I J K L
  @TWOEL-I, Total number of 2-e integrals     166882.
  @MOLECU-I, Two electron integrals (CPU/WALL):        0.27/       0.37 seconds.
  @CHECKOUT-I, Total execution time (CPU/WALL):        0.31/       0.42 seconds.
--executable xvmol finished with status     0 in        0.46 seconds (walltime).
 --invoking executable--
/home/nike/cfour_v2.00beta/bin/xvmol2ja
 @GETMEM-I,  Allocated   30517 MB of main memory.
  @CHECKOUT-I, Total execution time (CPU/WALL):        0.00/       0.08 seconds.
--executable xvmol2ja finished with status     0 in        0.11 seconds (walltime).
 --invoking executable--
/home/nike/cfour_v2.00beta/bin/xvscf
  There are   59 functions in the AO basis.

  There are 8 irreducible representations.

       Irrep        # of functions
         1                 15
         2                 10
         3                 10
         4                  4
         5                 10
         6                  4
         7                  4
         8                  2


  Parameters for SCF calculation: 
        SCF reference function: ROHF  
  Maximum number of iterations: 9999
     Full symmetry point group: I h 
     Computational point group: D2h 
        Initial density matrix: MOREAD                 
     SCF convergence tolerance: 10**(-10)
  DIIS convergence acceleration:  ON
          Latest start for DIIS:   5
                     DIIS order:   6

     Alpha population by irrep:   2    1    1    1    0    0    0    0
      Beta population by irrep:   2    0    0    0    0    0    0    0


  Memory information:     195604 words required.
  Fock matrices are constructed from AO integral file.
 @GETMEM-I,  Allocated       1 MB of main memory.
  Initialization and symmetry analysis required      0.003 seconds.

 total no. of electrons in initial guess :  0.000000000000000E+000
 total no. of electrons in initial guess :  0.000000000000000E+000
  --------------------------------------------------------------------
  Iteration         Total Energy            Largest Density Difference
  --------------------------------------------------------------------
       0             0.000000000000000              0.0000000000D+00
   current occupation vector 
     2  1  1  1  0  0  0  0
     2  0  0  0  0  0  0  0
       1           -68.706677303356315              0.5407590638D+01
   current occupation vector 
     2  1  1  1  0  0  0  0
     2  0  0  0  0  0  0  0
       2           -72.248424648184951              0.4922751042D+01
   current occupation vector 
     2  1  1  1  0  0  0  0
     2  0  0  0  0  0  0  0
       3           -73.158594013450610              0.1253187013D+01
   current occupation vector 
     2  1  1  1  0  0  0  0
     2  0  0  0  0  0  0  0
       4           -73.178608036319716              0.1671584458D+00
   current occupation vector 
     2  1  1  1  0  0  0  0
     2  0  0  0  0  0  0  0
       5           -73.179083916298410              0.4035694815D-01
   current occupation vector 
     2  1  1  1  0  0  0  0
     2  0  0  0  0  0  0  0
       6           -73.179090081693232              0.6133990920D-02
   current occupation vector 
     2  1  1  1  0  0  0  0
     2  0  0  0  0  0  0  0
       7           -73.179090646223884              0.6659535294D-03
   current occupation vector 
     2  1  1  1  0  0  0  0
     2  0  0  0  0  0  0  0
       8           -73.179090670111336              0.1448960321D-03
   current occupation vector 
     2  1  1  1  0  0  0  0
     2  0  0  0  0  0  0  0
       9           -73.179090670166644              0.5676755871D-05
   current occupation vector 
     2  1  1  1  0  0  0  0
     2  0  0  0  0  0  0  0
      10           -73.179090670166630              0.3504751618D-06
   current occupation vector 
     2  1  1  1  0  0  0  0
     2  0  0  0  0  0  0  0
      11           -73.179090670166758              0.3243055502D-07
   current occupation vector 
     2  1  1  1  0  0  0  0
     2  0  0  0  0  0  0  0
      12           -73.179090670166829              0.4955055033D-08
   current occupation vector 
     2  1  1  1  0  0  0  0
     2  0  0  0  0  0  0  0
      13           -73.179090670166943              0.5181137741D-09
   current occupation vector 
     2  1  1  1  0  0  0  0
     2  0  0  0  0  0  0  0

  SCF has converged.

 Density matrix saved to file den.dat
 total alpha spin electron number:   5.00000000000002     
 total  beta spin electron number:   2.00000000000001     
     E(ROHF)=       -73.179090670166943              0.2102562568D-10

  Eigenvector printing suppressed.


       The average multiplicity is    4.0000000
  The expectation value of S**2 is    3.7500000

 @PUTMOS-I, Writing converged MOs to NEWMOS. 
 @PUTMOS-I, Symmetry   1 Full Blocks  3 Partial Blocksize   3
 @PUTMOS-I, Symmetry   2 Full Blocks  2 Partial Blocksize   2
 @PUTMOS-I, Symmetry   3 Full Blocks  2 Partial Blocksize   2
 @PUTMOS-I, Symmetry   4 Full Blocks  1 Partial Blocksize   0
 @PUTMOS-I, Symmetry   5 Full Blocks  2 Partial Blocksize   2
 @PUTMOS-I, Symmetry   6 Full Blocks  1 Partial Blocksize   0
 @PUTMOS-I, Symmetry   7 Full Blocks  1 Partial Blocksize   0
 @PUTMOS-I, Symmetry   8 Full Blocks  0 Partial Blocksize   2
  @DMPJOB-I, Rotating orbitals to semicanonical basis.
             *** Eigenvalues correspond to new basis. ***



 
  ORBITAL EIGENVALUES (ALPHA)  (1H = 27.2113838 eV)

       MO #        E(hartree)               E(eV)           FULLSYM    COMPSYM
       ----   --------------------   --------------------   -------   ---------
    1     1         -21.9332445088        -596.8339347371      Ag        Ag (1)
    2     2          -2.2773805498         -61.9706762447      Ag        Ag (1)
    3    16          -1.6572045477         -45.0948290160       u       B2u (2)
    4    26          -1.6572045477         -45.0948290160       u       B3u (3)
    5    40          -0.8498373883         -23.1252513576      Au       B1u (5)
  +++++++++++++++++++++++++++++++++++++++++++++++++++++++++++++++++++++++++++++
    6     3          -0.1739950771          -4.7346468260      Ag        Ag (1)
    7    27          -0.1080669690          -2.9406517715       u       B3u (3)
    8    17          -0.1080669690          -2.9406517715       u       B2u (2)
    9    41          -0.0981192448          -2.6699604291      Au       B1u (5)
   10    36          -0.0864100897          -2.3513381166      Ag       B1g (4)
   11     4           0.2119959191           5.7687023232      Ag        Ag (1)
   12    50           0.2200845442           5.9888050051       g       B3g (6)
   13    54           0.2200845442           5.9888050051       g       B2g (7)
   14     5           0.2445119455           6.6535083985      Ag        Ag (1)
   15    28           0.3521808104           9.5833272064       u       B3u (3)
   16    18           0.3521808104           9.5833272064       u       B2u (2)
   17    42           0.3928038163          10.6887354118      Au       B1u (5)
   18     6           0.5300468010          14.4233069433      Ag        Ag (1)
   19    37           1.3737536652          37.3817382581      Ag       B1g (4)
   20     7           1.4047101906          38.2241081511      Ag        Ag (1)
   21    51           1.4056402501          38.2494163582       g       B3g (6)
   22    55           1.4056402501          38.2494163582       g       B2g (7)
   23     8           1.4062273726          38.2653927743      Ag        Ag (1)
   24    58           1.4514979856          39.4972687984      Au        Au (8)
   25    19           1.4517979229          39.5054305098       u       B2u (2)
   26    29           1.4517979229          39.5054305098       u       B3u (3)
   27    43           1.4578270470          39.6694913176      Au       B1u (5)
   28    20           1.4758142481          40.1589479528       u       B2u (2)
   29    30           1.4758142481          40.1589479528       u       B3u (3)
   30    44           1.4807210788          40.2924696055      Au       B1u (5)
   31    31           3.0420088254          82.7772697306       u       B3u (3)
   32    21           3.0420088254          82.7772697306       u       B2u (2)
   33    45           3.0944172200          84.2033746719      Au       B1u (5)
   34     9           4.2001580363         114.2921124275      Ag        Ag (1)
   35    46           5.5097308663         149.9274013452      Au       B1u (5)
   36    22           5.5149376223         150.0690843807       u       B2u (2)
   37    32           5.5149376223         150.0690843807       u       B3u (3)
   38    59           5.5300597952         150.4805796313      Au        Au (8)
   39    47           5.5311623509         150.5105816996      Au       B1u (5)
   40    23           5.5567139165         151.2058751581       u       B2u (2)
   41    33           5.5567139165         151.2058751581       u       B3u (3)
   42    38           5.8944736923         160.3967860547      Ag       B1g (4)
   43    10           5.8966491512         160.4559833034      Ag        Ag (1)
   44    52           5.9022453387         160.6082633100       g       B3g (6)
   45    56           5.9022453387         160.6082633100       g       B2g (7)
   46    11           5.9044374021         160.6679123871      Ag        Ag (1)
   47    48          24.7172307938         672.5900540878      Au       B1u (5)
   48    24          24.7214469691         672.7047820512       u       B2u (2)
   49    34          24.7214469691         672.7047820512       u       B3u (3)
   50    12          26.7995513978         729.2528792780      Ag        Ag (1)
   51    13          42.5722856607        1158.4508051913      Ag        Ag (1)
   52    57          42.5788273018        1158.6288122982       g       B2g (7)
   53    53          42.5788273018        1158.6288122982       g       B3g (6)
   54    14          42.5985704676        1159.1660511594      Ag        Ag (1)
   55    39          42.5986669688        1159.1686770914      Ag       B1g (4)
   56    49         136.8950788318        3725.1045331045      Au       B1u (5)
   57    25         136.9188265046        3725.7507401427       u       B2u (2)
   58    35         136.9188265046        3725.7507401427       u       B3u (3)
   59    15         147.0594232695        4001.6904108734      Ag        Ag (1)


 
  ORBITAL EIGENVALUES ( BETA)  (1H = 27.2113838 eV)

       MO #        E(hartree)               E(eV)           FULLSYM    COMPSYM
       ----   --------------------   --------------------   -------   ---------
    1     1         -21.8324554964        -594.0913262365      Ag        Ag (1)
    2     2          -1.9054784434         -51.8507052835      Ag        Ag (1)
  +++++++++++++++++++++++++++++++++++++++++++++++++++++++++++++++++++++++++++++
    3    40          -0.7547026198         -20.5365026558      Au       B1u (5)
    4    16          -0.6438391903         -17.5197553258       u       B2u (2)
    5    26          -0.6438391903         -17.5197553258       u       B3u (3)
    6     3          -0.1393267173          -3.7912727798      Ag        Ag (1)
    7    41          -0.0909402085          -2.4746089192      Au       B1u (5)
    8    27          -0.0657901863          -1.7902420118       u       B3u (3)
    9    17          -0.0657901863          -1.7902420118       u       B2u (2)
   10     4           0.2450936218           6.6693366151      Ag        Ag (1)
   11    54           0.2544664026           6.9243829501       g       B2g (7)
   12    50           0.2544664026           6.9243829501       g       B3g (6)
   13     5           0.2832898740           7.7087094941      Ag        Ag (1)
   14    36           0.3048387231           8.2950834987      Ag       B1g (4)
   15    42           0.4175965429          11.3633798095      Au       B1u (5)
   16    18           0.4796336652          13.0514957572       u       B2u (2)
   17    28           0.4796336652          13.0514957572       u       B3u (3)
   18     6           0.5926642104          16.1272133063      Ag        Ag (1)
   19     7           1.4737039419          40.1015236007      Ag        Ag (1)
   20    43           1.4838244801          40.3769174495      Au       B1u (5)
   21    19           1.4898839882          40.5418050487       u       B2u (2)
   22    29           1.4898839882          40.5418050487       u       B3u (3)
   23    51           1.4926340569          40.6166382250       g       B3g (6)
   24    55           1.4926340569          40.6166382250       g       B2g (7)
   25    44           1.5040798431          40.9280939050      Au       B1u (5)
   26    58           1.5188478455          41.3299516872      Au        Au (8)
   27     8           1.5493866575          42.1609550213      Ag        Ag (1)
   28    20           1.5533372972          42.2684573964       u       B2u (2)
   29    30           1.5533372972          42.2684573964       u       B3u (3)
   30    37           1.5639571470          42.5574382041      Ag       B1g (4)
   31    45           3.1409191352          85.4687561336      Au       B1u (5)
   32    31           3.2403561842          88.1745758404       u       B3u (3)
   33    21           3.2403561842          88.1745758404       u       B2u (2)
   34     9           4.3037522064         117.1110531539      Ag        Ag (1)
   35    46           5.5664996629         151.4721588600      Au       B1u (5)
   36    22           5.5780207815         151.7856644385       u       B2u (2)
   37    32           5.5780207815         151.7856644385       u       B3u (3)
   38    47           5.6102255753         152.6620014451      Au       B1u (5)
   39    59           5.6170935061         152.8488873440      Au        Au (8)
   40    23           5.6762319495         154.4581262255       u       B2u (2)
   41    33           5.6762319495         154.4581262255       u       B3u (3)
   42    10           6.0042845005         163.3848901050      Ag        Ag (1)
   43    52           6.0313929937         164.1225497195       g       B3g (6)
   44    56           6.0313929937         164.1225497195       g       B2g (7)
   45    11           6.1164803250         166.4378937478      Ag        Ag (1)
   46    38           6.1231315040         166.6188815329      Ag       B1g (4)
   47    48          24.7470527661         673.4015512222      Au       B1u (5)
   48    24          24.8279634835         675.6032438083       u       B2u (2)
   49    34          24.8279634835         675.6032438083       u       B3u (3)
   50    12          26.8650681539         731.0356808749      Ag        Ag (1)
   51    13          42.6187794524        1159.7159656015      Ag        Ag (1)
   52    53          42.6394373839        1160.2780965052       g       B3g (6)
   53    57          42.6394373839        1160.2780965052       g       B2g (7)
   54    14          42.7019544207        1161.9792715871      Ag        Ag (1)
   55    39          42.7025423233        1161.9952692317      Ag       B1g (4)
   56    49         136.9036593674        3725.3380213505      Au       B1u (5)
   57    25         136.9429442790        3726.4070181588       u       B2u (2)
   58    35         136.9429442790        3726.4070181588       u       B3u (3)
   59    15         147.0769930603        4002.1685091931      Ag        Ag (1)


  VSCF finished.

  @CHECKOUT-I, Total execution time (CPU/WALL):        0.23/       0.41 seconds.
--executable xvscf finished with status     0 in        0.44 seconds (walltime).
 --invoking executable--
/home/nike/cfour_v2.00beta/bin/xvtran
 @GETMEM-I,  Allocated   30517 MB of main memory.
  Full UHF integral transformation
  Transformation of IIII integrals :
  2 passes through the AO integral file were required.
        7254 AO integrals were read.
       12051 MO integrals (Spin case AAAA) were written to HF2AA.
       12051 MO integrals (Spin case BBBB) were written to HF2BB.
       23784 MO integrals (Spin case AABB) were written to HF2AB.
  Transformation of IIJJ integrals :
  2 passes through the AO integral file were required.
       30318 AO integrals were read.
       38670 MO integrals (Spin case AAAA) were written to HF2AA.
       38670 MO integrals (Spin case BBBB) were written to HF2BB.
       77340 MO integrals (Spin case AABB) were written to HF2AB.
  Transformation of IJIJ integrals :
  2 passes through the AO integral file were required.
       48318 AO integrals were read.
       63606 MO integrals (Spin case AAAA) were written to HF2AA.
       63606 MO integrals (Spin case BBBB) were written to HF2BB.
      125760 MO integrals (Spin case AABB) were written to HF2AB.
  Transformation of IJKL integrals :
  2 passes through the AO integral file were required.
       80992 AO integrals were read.
       90960 MO integrals (Spin case AAAA) were written to HF2AA.
       90960 MO integrals (Spin case BBBB) were written to HF2BB.
      181920 MO integrals (Spin case AABB) were written to HF2AB.
  Summary of active molecular orbitals: 
------------------------------------------------------------------------
                         * Spin case alpha *
 
  Index      Eigenvalue    Symmetry    Index      Eigenvalue    Symmetry
------------------------------------------------------------------------
     1       -21.9332445        1        31         1.4758142        3
     2        -2.2773805        1        32         3.0420088        3
     3        -1.6572045        2        33         5.5149376        3
     4        -1.6572045        3        34         5.5567139        3
     5        -0.0864101        4        35        24.7214470        3
     6        -0.1739951        1        36       136.9188265        3
     7         0.2119959        1        37         1.3737537        4
     8         0.2445119        1        38         5.8944737        4
     9         0.5300468        1        39        42.5986670        4
    10         1.4047102        1        40        -0.8498374        5
    11         1.4062274        1        41        -0.0981192        5
    12         4.2001580        1        42         0.3928038        5
    13         5.8966492        1        43         1.4578270        5
    14         5.9044374        1        44         1.4807211        5
    15        26.7995514        1        45         3.0944172        5
    16        42.5722857        1        46         5.5097309        5
    17        42.5985705        1        47         5.5311624        5
    18       147.0594233        1        48        24.7172308        5
    19        -0.1080670        2        49       136.8950788        5
    20         0.3521808        2        50         0.2200845        6
    21         1.4517979        2        51         1.4056403        6
    22         1.4758142        2        52         5.9022453        6
    23         3.0420088        2        53        42.5788273        6
    24         5.5149376        2        54         0.2200845        7
    25         5.5567139        2        55         1.4056403        7
    26        24.7214470        2        56         5.9022453        7
    27       136.9188265        2        57        42.5788273        7
    28        -0.1080670        3        58         1.4514980        8
    29         0.3521808        3        59         5.5300598        8
    30         1.4517979        3
------------------------------------------------------------------------
------------------------------------------------------------------------
                         * Spin case beta *
 
  Index      Eigenvalue    Symmetry    Index      Eigenvalue    Symmetry
------------------------------------------------------------------------
     1       -21.8324555        1        31         3.2403562        3
     2        -1.9054784        1        32         5.5780208        3
     3        -0.1393267        1        33         5.6762319        3
     4         0.2450936        1        34        24.8279635        3
     5         0.2832899        1        35       136.9429443        3
     6         0.5926642        1        36         0.3048387        4
     7         1.4737039        1        37         1.5639571        4
     8         1.5493867        1        38         6.1231315        4
     9         4.3037522        1        39        42.7025423        4
    10         6.0042845        1        40        -0.7547026        5
    11         6.1164803        1        41        -0.0909402        5
    12        26.8650682        1        42         0.4175965        5
    13        42.6187795        1        43         1.4838245        5
    14        42.7019544        1        44         1.5040798        5
    15       147.0769931        1        45         3.1409191        5
    16        -0.6438392        2        46         5.5664997        5
    17        -0.0657902        2        47         5.6102256        5
    18         0.4796337        2        48        24.7470528        5
    19         1.4898840        2        49       136.9036594        5
    20         1.5533373        2        50         0.2544664        6
    21         3.2403562        2        51         1.4926341        6
    22         5.5780208        2        52         6.0313930        6
    23         5.6762319        2        53        42.6394374        6
    24        24.8279635        2        54         0.2544664        7
    25       136.9429443        2        55         1.4926341        7
    26        -0.6438392        3        56         6.0313930        7
    27        -0.0657902        3        57        42.6394374        7
    28         0.4796337        3        58         1.5188478        8
    29         1.4898840        3        59         5.6170935        8
    30         1.5533373        3
------------------------------------------------------------------------
  @CHECKOUT-I, Total execution time (CPU/WALL):        0.23/       4.37 seconds.
--executable xvtran finished with status     0 in        4.40 seconds (walltime).
 --invoking executable--
/home/nike/cfour_v2.00beta/bin/xintprc
 @GETMEM-I,  Allocated   30517 MB of main memory.
  Processing integrals for CCSD calculation.
  @GMOIAA-I, Processing MO integrals for spin case AA.
  @GMOIAA-I, Generation of integral list completed.
                      TYPE                NUMBER
                      ----               --------
                      PPPP                144295
                      PPPH                 52051
                      PPHH                  5041
                      PHPH                  3210
                      PHHH                   651
                      HHHH                    39

                     TOTAL                205287
  @GMOIAA-I, Processing MO integrals for spin case BB.
  @GMOIAA-I, Generation of integral list completed.
                      TYPE                NUMBER
                      ----               --------
                      PPPP                177547
                      PPPH                 25690
                      PPHH                  1099
                      PHPH                   867
                      PHHH                    78
                      HHHH                     6

                     TOTAL                205287
  @GMOIAB-I, Processing MO integrals for spin case AB.
                      TYPE                NUMBER
                      ----               --------
                      PPPP                318329
                      PPPH1H               58063
                      PPPH2H               23242
                      PPHH                  4310
                      PHPH1P                 795
                      PHPH2P                3606
                      PHHH1P                 141
                      PHHH2P                 300
                      HHHH                    18

                     TOTAL                408804
            ----------------------------------------------
                     Projected spin multiplicities: 
            ----------------------------------------------
             <0|S^2|0>                  =    3.7500000000.
             <0|S^2 T2|0>               =    0.0000000000.
             Projected <0|S^2 exp(T)|0> =    3.7500000000.
             Approximate spin mult.     =    4.0000000000.
            ----------------------------------------------
   Largest T2 amplitudes for spin case AA:
   i   j   a   b             i   j   a   b             i   j   a   b
-----------------------------------------------------------------------------
[  4   3  37  10]-0.01289 [  5   2  58  40] 0.01268 [  5   4  37  29]-0.01212
[  5   3  37  20]-0.01212 [  4   2  55  40]-0.01125 [  3   2  51  40]-0.01125
[  4   3  32  23]-0.01004 [  4   3  29  20]-0.00980 [  5   3  37  19]-0.00867
[  5   4  37  28]-0.00867 [  4   3  29  23]-0.00810 [  4   3  32  20]-0.00810
[  4   3  38  13]-0.00739 [  4   3  37   8]-0.00712 [  4   3  37  13]-0.00689
-----------------------------------------------------------------------------
   Norm of T2AA vector (     1831 symmetry allowed elements):  0.0587242624.
-----------------------------------------------------------------------------
   Largest T2 amplitudes for spin case BB:
   i   j   a   b             i   j   a   b             i   j   a   b
-----------------------------------------------------------------------------
[  2   1  48  40]-0.00166 [  2   1  24  16]-0.00163 [  2   1  34  26]-0.00163
[  2   1  45  40] 0.00149 [  2   1  31  26] 0.00146 [  2   1  21  16] 0.00146
[  2   1  24  21]-0.00119 [  2   1  34  31]-0.00119 [  2   1  48  45]-0.00119
[  2   1  34  28]-0.00087 [  2   1  24  18]-0.00087 [  2   1  48  42]-0.00084
[  2   1  31  28] 0.00056 [  2   1  21  18] 0.00056 [  2   1  45  42] 0.00053
-----------------------------------------------------------------------------
   Norm of T2BB vector (      232 symmetry allowed elements):  0.0049369028.
-----------------------------------------------------------------------------
   Largest T2 amplitudes for spin case AB:
       _       _                 _       _                 _       _
   i   j   a   b             i   j   a   b             i   j   a   b
-----------------------------------------------------------------------------
[  2   2  40  40]-0.06580 [  4   2  55  40]-0.02193 [  3   2  51  40]-0.02193
[  3   2  10  16]-0.02120 [  4   2  10  26] 0.02120 [  4   2  37  16]-0.02118
[  3   2  37  26]-0.02118 [  5   2  29  16] 0.01702 [  5   2  20  26] 0.01702
[  5   2  58  40] 0.01589 [  5   2  28  16] 0.01576 [  5   2  19  26] 0.01576
[  5   2  30  16]-0.01479 [  5   2  21  26]-0.01479 [  2   2  40  42]-0.01321
-----------------------------------------------------------------------------
   Norm of T2AB vector (     4310 symmetry allowed elements):  0.1265799172.
-----------------------------------------------------------------------------
  @CHECKOUT-I, Total execution time (CPU/WALL):        0.19/       1.16 seconds.
--executable xintprc finished with status     0 in        2.41 seconds (walltime).
 --invoking executable--
/home/nike/cfour_v2.00beta/bin/xint
 @GETMEM-I,  Allocated   30517 MB of main memory.
  @CHECKOUT-I, Total execution time (CPU/WALL):        3.17/       3.19 seconds.
--executable xint finished with status     0 in        9.33 seconds (walltime).
 --invoking executable--
/home/nike/MRCC/dmrcc
 **********************************************************************
                          MRCC program system
 **********************************************************************
 
                              Written by
    Mihaly Kallay, Zoltan Rolik, Jozsef Csontos, Istvan Ladjanszki,
       Lorant Szegedy, Bence Ladoczki, Gyula Samu, Klara Petrov,
        Mate Farkas, Peter Nagy, David Mester, and Bence Hegely
 
        Department of Physical Chemistry and Materials Science
            Budapest University of Technology and Economics
                  Budapest P.O.Box 91, H-1521 Hungary
 
                              www.mrcc.hu

 ************************ 2018-04-02 02:12:34 *************************
 Executing minp...

 Reading input from MINP...
 
 Input file:
 
# O 2Z
basis=aCVTZ-EMSL
iface=cfour
uncontract=off
calc=CC(7)
mem=32GB
core=corr
itol=18
scftol=13
cctol=7
ccmaxit=999
scfmaxit=9999
scfiguess=ao
scftype=ROHF
rohftype=semicanonical
rest=2
charge=+1
refdet=serialno
1,2
3,4,5

#symm=1
mult=4
#occ=3,0,0,0,0,1,0,0/1,0,0,0,0,1,0,0
geom
O

#Li 1 R

#R=3.065

#unit=angstroms

tprint=0.01
verbosity=3
nstate=4

 
 
 Checking keyword combinations...
 
 Keywords:
 
 active=none
 agrid=ld0006-ld0590
 basis=acvtz-emsl
 basopt=off
 bpcompo=0.985
 bpcompv=0.98
 bpdfo=0.985
 bpocc=0.985
 bppdo=0.985
 bppdv=0.98
 bpedo=0.985
 bpedv=0.98
 calc=cc(7)
 ccmaxit=999
 ccprog=mrcc
 cctol=7
 charge=+1
 cialg=disk
 ciguess=off
 cmpgrp=auto
 core=corr
 corembed=off
 dboc=off
 dendec=cholesky
 dens=0
 dfalg=invsqrt
 dfbasis_cor=none
 dfbasis_scf=none
 dfintran=ovirt
 dft=off
 diag=david
 domrad=10.d0
 drpaalg=fit
 ecp=auto
 edisp=off
 embed=off
 epert=none
 eps=0.975
 excrad=0.d0
 excrad_fin=0.000000000D+00
 freq=off
 gauss=spher
 geom=zmat
 gopt=off
 ghost=none
 gtol=7
 grtol=10
 hamilton=dc
 iface=cfour
 intalg=auto
 itol=18
 lcorthr=loose
 lccrest=off
 lmp2dens=on
 lnoepso=3e-5
 lnoepsv=1e-6
 localcc=off
 locintrf=disk
 maxact=off
 maxex=0
 bfbasis=none
 mem=32gb
 molden=on
 mulmet=0
 mult=4
 nacto=0
 nactv=0
 naf_cor=off
 naf_scf=off
 nafalg=albe
 naftyp=
 nchol=auto
 ndeps=1e-3
 nstate=4
 nsing=0
 ntrip=0
 occ=
 optalg=
 optmaxit=50
 optetol=1e-6
 optgtol=1e-4
 optstol=1e-3
 orblocc=off
 orbloco=off
 orblocv=off
 osveps=1e-3
 ovirt=off
 ovosnorb=80.0
 ptfreq=0.0
 popul=off
 pressure=100000
 qmmm=off
 refdet=serialno
 rest=2
 rgrid=log3
 rohftype=semicanonical
 scspe=1.d0
 scsps=1.2d0
 scspt=0.33333333333333
 scfalg=auto
 scfdamp=off
 scfdiis=on
 scfdiis_end=9999
 scfdiis_start=1
 scfdiis_step=1
 scfdtol=17
 scfext=10
 scfiguess=ao
 scflshift=off
 scfmaxit=9999
 scftype=rohf
 scftol=13
 spairtol=1e-4
 symm=
 talg=occ
 temp=298.15
 test=off
 tprint=0.01
 uncontract=off
 unit=angs
 verbosity=3
 wpairtol=0.100000000E-05

 ************************ 2018-04-02 02:12:34 *************************
 Executing goldstone...

 Generation of CC equations in terms of H and T...
 Generation of antisymmetrized Goldstone diagrams...
 Number of diagrams in T^1 equations:    15
 Number of diagrams in T^2 equations:    38
 Number of diagrams in T^3 equations:    54
 Number of diagrams in T^4 equations:    81
 Number of diagrams in T^5 equations:   106
 Number of diagrams in T^6 equations:   141
 Number of diagrams in T^7 equations:   169
 Translation of diagrams to factorized equations...
 Optimizing intermediate calculation...
 Optimizing right-hand EOMCC calculation...
 Number of floating-point operations per iteration step:   8.8529E+14
 Probable CPU time per iteration step (hours):   8852.85
 Required memory (Mbytes): 2532918.3
 Number of intermediates:                                 624
 Number of intermediates to be stored:                    230
 Length of intermediate file (Mbytes): 2941744.9

 ************************ 2018-04-02 02:12:48 *************************
 Executing xmrcc...

 **********************************************************************
 CC(                     7 ) calculation 
 
 
 Allocation of****** Mbytes of memory...
 Number of spinorbitals:                   118
 Number of alpha electrons:                        5
 Number of beta electrons:                         2
 z-component of spin:  1.5
 Spatial symmetry:                      1
 Convergence criterion:  1.0E-07
 Construction of occupation graphs...
 Number of                     0 -fold excitations:                      1
 Number of                     1 -fold excitations:                     73
 Number of                     2 -fold excitations:                   6373
 Number of                     3 -fold excitations:                 290902
 Number of                     4 -fold excitations:                6584546
 Number of                     5 -fold excitations:               72384661
 Number of                     6 -fold excitations:              360453562
 Number of                     7 -fold excitations:              630778936
 Total number of configurations:             1070499054
 Calculation of coupling coefficients...
 Length of intermediate file (Mbytes):  808745.0
 
 ======================================================================
 
 ======================================================================
 
 ======================================================================
 
 ======================================================================
 
 Memory requirements /Mbyte/: 
               Minimal        Optimal
 Real*8:    8784445.7672   8784445.7672
 Integer:      2102.7732
 Total:     8786548.5404   8786548.5404
 

 ************************ 2018-04-02 02:15:25 *************************
 Executing goldstone...

 Generation of MRCC equations in terms of H and T...
 Generation of antisymmetrized Goldstone diagrams...
 Number of diagrams in T^1 equations:    15
 Number of diagrams in T^2 equations:    38
 Number of diagrams in T^3 equations:    54
 Number of diagrams in T^4 equations:    81
 Number of diagrams in T^5 equations:   106
 Number of diagrams in T^6 equations:   141
 Number of diagrams in T^7 equations:   169
 Translation of diagrams to factorized equations...
 Number of restricted diagrams in T^1 equations:     30
 Number of restricted diagrams in T^2 equations:    129
 Number of restricted diagrams in T^3 equations:    306
 Number of restricted diagrams in T^4 equations:    674
 Number of restricted diagrams in T^5 equations:   1288
 Number of restricted diagrams in T^6 equations:   2340
 Number of restricted diagrams in T^7 equations:   3912
 Optimizing intermediate calculation...
 Optimizing right-hand EOMCC calculation...
 Number of floating-point operations per iteration step:   8.2141E+14
 Probable CPU time per iteration step (hours):   8214.09
 Required memory (Mbytes):   16062.8
 Number of intermediates:                                5151
 Number of intermediates to be stored:                   1588
 Length of intermediate file (Mbytes):  520417.3

 ************************ 2018-04-02 02:17:29 *************************
 Executing xmrcc...

 **********************************************************************
 MRCC(                     7 ) calculation 
 
 
 Allocation of****** Mbytes of memory...
 Number of spinorbitals:                   118
 Number of alpha electrons:                        5
 Number of beta electrons:                         2
 Number of active particles:                    56
 Number of active holes:                         0
 z-component of spin:  1.5
 Spatial symmetry:                      1
 Convergence criterion:  1.0E-07
 Construction of occupation graphs...
 Number of                     0 -fold excitations:                      1
 Number of                     1 -fold excitations:                     73
 Number of                     2 -fold excitations:                   6373
 Number of                     3 -fold excitations:                 290902
 Number of                     4 -fold excitations:                6584546
 Number of                     5 -fold excitations:               72384661
 Number of                     6 -fold excitations:              360453562
 Number of                     7 -fold excitations:              630778936
 Total number of configurations:             1070499054
 Calculation of coupling coefficients...
 Length of intermediate file (Mbytes):  286071.3
 
 ======================================================================
 
 ======================================================================
 
 ======================================================================
 
 ======================================================================
 
 Memory requirements /Mbyte/: 
               Minimal        Optimal
 Real*8:      53864.8544     53864.8544
 Integer:      2220.9372
 Total:       56085.7916     56085.7916
 

 ************************ 2018-04-02 02:28:10 *************************
 Executing goldstone...

 Generation of MRCC equations in terms of H and T...
 Generation of antisymmetrized Goldstone diagrams...
 Number of diagrams in T^1 equations:    15
 Number of diagrams in T^2 equations:    38
 Number of diagrams in T^3 equations:    54
 Number of diagrams in T^4 equations:    81
 Number of diagrams in T^5 equations:   106
 Number of diagrams in T^6 equations:   141
 Number of diagrams in T^7 equations:   169
 Translation of diagrams to factorized equations...
 Number of restricted diagrams in T^1 equations:     30
 Number of restricted diagrams in T^2 equations:    129
 Number of restricted diagrams in T^3 equations:    306
 Number of restricted diagrams in T^4 equations:    674
 Number of restricted diagrams in T^5 equations:   1288
 Number of restricted diagrams in T^6 equations:   2340
 Number of restricted diagrams in T^7 equations:   3912
 Optimizing intermediate calculation...
 Optimizing right-hand EOMCC calculation...
 Number of floating-point operations per iteration step:   8.5408E+14
 Probable CPU time per iteration step (hours):   8540.76
 Required memory (Mbytes):   20838.5
 Number of intermediates:                                5160
 Number of intermediates to be stored:                   1575
 Length of intermediate file (Mbytes):  527053.3

 ************************ 2018-04-02 02:30:03 *************************
 Executing xmrcc...

 **********************************************************************
 MRCC(                     7 ) calculation 
 
 
 Allocation of****** Mbytes of memory...
 Number of spinorbitals:                   118
 Number of alpha electrons:                        5
 Number of beta electrons:                         2
 Number of active particles:                    54
 Number of active holes:                         0
 z-component of spin:  1.5
 Spatial symmetry:                      1
 Convergence criterion:  1.0E-07
 Construction of occupation graphs...
 Number of                     0 -fold excitations:                      1
 Number of                     1 -fold excitations:                     73
 Number of                     2 -fold excitations:                   6373
 Number of                     3 -fold excitations:                 290902
 Number of                     4 -fold excitations:                6584546
 Number of                     5 -fold excitations:               72384661
 Number of                     6 -fold excitations:              360453562
 Number of                     7 -fold excitations:              630778936
 Total number of configurations:             1070499054
 Calculation of coupling coefficients...
 Length of intermediate file (Mbytes):  284117.6
 
 ======================================================================
 
 ======================================================================
 
 ======================================================================
 
 ======================================================================
 
 Memory requirements /Mbyte/: 
               Minimal        Optimal
 Real*8:      70071.4590     70071.4590
 Integer:      2220.9949
 Total:       72292.4538     72292.4538
 

 ************************ 2018-04-02 02:40:52 *************************
 Executing goldstone...

 Generation of MRCC equations in terms of H and T...
 Generation of antisymmetrized Goldstone diagrams...
 Number of diagrams in T^1 equations:    15
 Number of diagrams in T^2 equations:    38
 Number of diagrams in T^3 equations:    54
 Number of diagrams in T^4 equations:    81
 Number of diagrams in T^5 equations:   106
 Number of diagrams in T^6 equations:   141
 Number of diagrams in T^7 equations:   169
 Translation of diagrams to factorized equations...
 Number of restricted diagrams in T^1 equations:     30
 Number of restricted diagrams in T^2 equations:    129
 Number of restricted diagrams in T^3 equations:    306
 Number of restricted diagrams in T^4 equations:    674
 Number of restricted diagrams in T^5 equations:   1288
 Number of restricted diagrams in T^6 equations:   2340
 Number of restricted diagrams in T^7 equations:   3912
 Optimizing intermediate calculation...
 Optimizing right-hand EOMCC calculation...
 Number of floating-point operations per iteration step:   7.9381E+14
 Probable CPU time per iteration step (hours):   7938.06
 Required memory (Mbytes):   12257.5
 Number of intermediates:                                5159
 Number of intermediates to be stored:                   1579
 Length of intermediate file (Mbytes):  502432.2

 ************************ 2018-04-02 02:42:38 *************************
 Executing xmrcc...

 **********************************************************************
 MRCC(                     7 ) calculation 
 
 
 Allocation of****** Mbytes of memory...
 Number of spinorbitals:                   118
 Number of alpha electrons:                        5
 Number of beta electrons:                         2
 Number of active particles:                    58
 Number of active holes:                         0
 z-component of spin:  1.5
 Spatial symmetry:                      1
 Convergence criterion:  1.0E-07
 Construction of occupation graphs...
 Number of                     0 -fold excitations:                      1
 Number of                     1 -fold excitations:                     73
 Number of                     2 -fold excitations:                   6373
 Number of                     3 -fold excitations:                 290902
 Number of                     4 -fold excitations:                6584546
 Number of                     5 -fold excitations:               72384661
 Number of                     6 -fold excitations:              360453562
 Number of                     7 -fold excitations:              630778936
 Total number of configurations:             1070499054
 Calculation of coupling coefficients...
 Length of intermediate file (Mbytes):  279474.5
 
 ======================================================================
 
 ======================================================================
 
 ======================================================================
 
 ======================================================================
 
 Memory requirements /Mbyte/: 
               Minimal        Optimal
 Real*8:      42444.3952     42444.3952
 Integer:      2220.9885
 Total:       44665.3836     44665.3836
 

 ************************ 2018-04-02 02:53:09 *************************
 Executing goldstone...

 Generation of MRCC equations in terms of H and T...
 Generation of antisymmetrized Goldstone diagrams...
 Number of diagrams in T^1 equations:    15
 Number of diagrams in T^2 equations:    38
 Number of diagrams in T^3 equations:    54
 Number of diagrams in T^4 equations:    81
 Number of diagrams in T^5 equations:   106
 Number of diagrams in T^6 equations:   141
 Number of diagrams in T^7 equations:   169
 Translation of diagrams to factorized equations...
 Number of restricted diagrams in T^1 equations:     30
 Number of restricted diagrams in T^2 equations:    129
 Number of restricted diagrams in T^3 equations:    306
 Number of restricted diagrams in T^4 equations:    674
 Number of restricted diagrams in T^5 equations:   1288
 Number of restricted diagrams in T^6 equations:   2340
 Number of restricted diagrams in T^7 equations:   3912
 Optimizing intermediate calculation...
 Optimizing right-hand EOMCC calculation...
 Number of floating-point operations per iteration step:   7.6428E+14
 Probable CPU time per iteration step (hours):   7642.75
 Required memory (Mbytes):    9685.3
 Number of intermediates:                                5189
 Number of intermediates to be stored:                   1569
 Length of intermediate file (Mbytes):  496815.0

 ************************ 2018-04-02 02:55:59 *************************
 Executing xmrcc...

 **********************************************************************
 MRCC(                     7 ) calculation 
 
 
 Allocation of9685.3 Mbytes of memory...
 Number of spinorbitals:                   118
 Number of alpha electrons:                        5
 Number of beta electrons:                         2
 Number of active particles:                    60
 Number of active holes:                         0
 z-component of spin:  1.5
 Spatial symmetry:                      1
 Convergence criterion:  1.0E-07
 Construction of occupation graphs...
 Number of                     0 -fold excitations:                      1
 Number of                     1 -fold excitations:                     73
 Number of                     2 -fold excitations:                   6373
 Number of                     3 -fold excitations:                 290902
 Number of                     4 -fold excitations:                6584546
 Number of                     5 -fold excitations:               72384661
 Number of                     6 -fold excitations:              360453562
 Number of                     7 -fold excitations:              630778936
 Total number of configurations:             1070499054
 Calculation of coupling coefficients...
 Length of intermediate file (Mbytes):  277594.2
 
 ======================================================================
 
 ======================================================================
 
 ======================================================================
 
 ======================================================================
 
 Memory requirements /Mbyte/: 
               Minimal        Optimal
 Real*8:      34248.3633     34248.3633
 Integer:      2221.1805
 Total:       36469.5438     36469.5438
 

 ************************ 2018-04-02 03:07:44 *************************
 Executing goldstone...

 Generation of MRCC equations in terms of H and T...
 Generation of antisymmetrized Goldstone diagrams...
 Number of diagrams in T^1 equations:    15
 Number of diagrams in T^2 equations:    38
 Number of diagrams in T^3 equations:    54
 Number of diagrams in T^4 equations:    81
 Number of diagrams in T^5 equations:   106
 Number of diagrams in T^6 equations:   141
 Number of diagrams in T^7 equations:   169
 Translation of diagrams to factorized equations...
 Number of restricted diagrams in T^1 equations:     30
 Number of restricted diagrams in T^2 equations:    129
 Number of restricted diagrams in T^3 equations:    306
 Number of restricted diagrams in T^4 equations:    674
 Number of restricted diagrams in T^5 equations:   1288
 Number of restricted diagrams in T^6 equations:   2340
 Number of restricted diagrams in T^7 equations:   3912
 Optimizing intermediate calculation...
 Optimizing right-hand EOMCC calculation...
 Number of floating-point operations per iteration step:   7.6667E+14
 Probable CPU time per iteration step (hours):   7666.67
 Required memory (Mbytes):    9802.3
 Number of intermediates:                                5197
 Number of intermediates to be stored:                   1576
 Length of intermediate file (Mbytes):  496616.6

 ************************ 2018-04-02 03:09:39 *************************
 Executing xmrcc...

 **********************************************************************
 MRCC(                     7 ) calculation 
 
 
 Allocation of9802.3 Mbytes of memory...
 Number of spinorbitals:                   118
 Number of alpha electrons:                        5
 Number of beta electrons:                         2
 Number of active particles:                    62
 Number of active holes:                         0
 z-component of spin:  1.5
 Spatial symmetry:                      1
 Convergence criterion:  1.0E-07
 Construction of occupation graphs...
 Number of                     0 -fold excitations:                      1
 Number of                     1 -fold excitations:                     73
 Number of                     2 -fold excitations:                   6373
 Number of                     3 -fold excitations:                 290902
 Number of                     4 -fold excitations:                6584546
 Number of                     5 -fold excitations:               72384661
 Number of                     6 -fold excitations:              360453562
 Number of                     7 -fold excitations:              630778936
 Total number of configurations:             1070499054
 Calculation of coupling coefficients...
 Length of intermediate file (Mbytes):  279073.8
 
 ======================================================================
 
 ======================================================================
 
 ======================================================================
 
 ======================================================================
 
 Memory requirements /Mbyte/: 
               Minimal        Optimal
 Real*8:      28848.0951     28848.0951
 Integer:      2221.2317
 Total:       31069.3268     31069.3268
 

 ************************ 2018-04-02 03:20:12 *************************
 Executing goldstone...

 Generation of MRCC equations in terms of H and T...
 Generation of antisymmetrized Goldstone diagrams...
 Number of diagrams in T^1 equations:     8
 Translation of diagrams to factorized equations...
 Number of restricted diagrams in T^1 equations:     12
 Optimizing intermediate calculation...
 Optimizing right-hand EOMCC calculation...
 Number of floating-point operations per iteration step:   2.5861E+03
 Probable CPU time per iteration step (hours):      0.00
 Required memory (Mbytes):    1250.8
 Number of intermediates:                                  52
 Number of intermediates to be stored:                     34
 Length of intermediate file (Mbytes):      15.6

 ************************ 2018-04-02 03:20:13 *************************
 Executing xmrcc...

 **********************************************************************
 MRCC(                     1 ) calculation 
 
 
 Allocation of1250.8 Mbytes of memory...
 Number of spinorbitals:                   118
 Number of alpha electrons:                        5
 Number of beta electrons:                         2
 Number of active particles:                    62
 Number of active holes:                         0
 z-component of spin:  1.5
 Spatial symmetry:                      1
 Convergence criterion:  1.0E-07
 Construction of occupation graphs...
 Number of                     0 -fold excitations:                      1
 Number of                     1 -fold excitations:                     73
 Total number of configurations:                     74
 Calculation of coupling coefficients...
 Length of intermediate file (Mbytes):      14.0
 
 ======================================================================
 
 ======================================================================
 
 ======================================================================
 
 ======================================================================
 
 Memory requirements /Mbyte/: 
               Minimal        Optimal
 Real*8:          1.6200        92.5051
 Integer:         3.8944
 Total:           5.5144        96.3995
 

 ************************ 2018-04-02 03:20:14 *************************
 Executing mrcc...

 **********************************************************************
 LR-CCS calculation                                                     
 
 
 OpenMP parallel version is running.
 Number of CPUs:  32
 Allocation of   92.5 Mbytes of memory...
 Number of spinorbitals: 118
 Number of alpha electrons:  5
 Number of beta  electrons:  2
 Number of active particles:                    62
 Number of active holes:                         0
 z-component of spin:  1.5
 Spatial symmetry: 1
 Convergence criterion:  1.0E-07
 Construction of occupation graphs...
 Number of 0-fold excitations: 1
 Number of 1-fold excitations: 73
 Total number of determinants: 74
 Calculation of coupling coefficients...
 Initial cluster amplitudes are generated.
 Length of intermediate file (Mbytes):      14.0
 Reading integral list from unit 55...
 Sorting integrals...
 Sorting integrals...
 Sorting integrals...
 Sorting integrals...
 Energy of reference determinant [au]:     -73.179090670167
 Calculation of diagonal elements of Hamiltonian...
 Calculation of MP denominators...
 
 Starting CC iteration...
 ======================================================================
 Norm of residual vector:     0.15699587
 CPU time [min]:     0.659                   Wall time [min]:     0.175
 
 Iteration  1  CC energy:   -73.18368861  Energy decrease:   0.00459794
 ======================================================================
 Norm of residual vector:     0.02797159
 CPU time [min]:     0.678                   Wall time [min]:     0.176
 
 Iteration  2  CC energy:   -73.18491397  Energy decrease:   0.00122536
 ======================================================================
 Norm of residual vector:     0.00176293
 CPU time [min]:     0.701                   Wall time [min]:     0.176
 
 Iteration  3  CC energy:   -73.18491629  Energy decrease:   0.00000232
 ======================================================================
 Norm of residual vector:     0.00016263
 CPU time [min]:     0.725                   Wall time [min]:     0.177
 
 Iteration  4  CC energy:   -73.18491695  Energy decrease:   0.00000066
 ======================================================================
 Norm of residual vector:     0.00001214
 CPU time [min]:     0.750                   Wall time [min]:     0.178
 
 Iteration  5  CC energy:   -73.18491692  Energy decrease:   0.00000003
 ======================================================================
 Norm of residual vector:     0.00000101
 CPU time [min]:     0.795                   Wall time [min]:     0.180
 
 Iteration  6  CC energy:   -73.18491693  Energy decrease:   0.00000001
 ======================================================================
 Norm of residual vector:     0.00000006
[...]
 CPU time [min]: 43921.440                   Wall time [min]:  2441.468
 
 Iteration 20  CI energy:   -72.24161058  Energy decrease:   0.00000043
 ======================================================================
 Norm of residual vector:     0.00022542      Convergence:   0.00015045
 CPU time [min]: 44342.933                   Wall time [min]:  2462.404
 
 Iteration 21  CI energy:   -72.24160766  Energy decrease:   0.00000292
 ======================================================================
 Norm of residual vector:     0.00015112      Convergence:   0.00007632
 CPU time [min]: 44768.161                   Wall time [min]:  2488.150
 
 Iteration 22  CI energy:   -72.24160651  Energy decrease:   0.00000114
 ======================================================================
 Norm of residual vector:     0.00011602      Convergence:   0.00007047
 CPU time [min]: 45188.230                   Wall time [min]:  2512.429
 
 Iteration 23  CI energy:   -72.24160715  Energy decrease:   0.00000064
 ======================================================================
 Norm of residual vector:     0.00054916      Convergence:   0.00013448
 CPU time [min]: 45626.829                   Wall time [min]:  2539.845
 
 Iteration 24  CI energy:   -72.24160929  Energy decrease:   0.00000214
 ======================================================================
 Norm of residual vector:     0.00011475      Convergence:   0.00004245
 CPU time [min]: 46065.660                   Wall time [min]:  2566.077
 
 Iteration 25  CI energy:   -72.24160729  Energy decrease:   0.00000201
 ======================================================================
 Norm of residual vector:     0.00361825      Convergence:   0.00070283
 CPU time [min]: 46492.994                   Wall time [min]:  2589.068
 
 Iteration 26  CI energy:   -72.24162655  Energy decrease:   0.00001927
 ======================================================================
 Norm of residual vector:     0.00003711      Convergence:   0.00002422
 CPU time [min]: 46925.672                   Wall time [min]:  2613.968
 
 Iteration 27  CI energy:   -72.24160712  Energy decrease:   0.00001943
 ======================================================================
 Norm of residual vector:     0.00002253      Convergence:   0.00001244
 CPU time [min]: 47369.485                   Wall time [min]:  2639.402
 
 Iteration 28  CI energy:   -72.24160729  Energy decrease:   0.00000017
 ======================================================================
 Norm of residual vector:     0.00001180      Convergence:   0.00000785
 CPU time [min]: 47801.251                   Wall time [min]:  2663.497
 
 Iteration 29  CI energy:   -72.24160724  Energy decrease:   0.00000004
 ======================================================================
 Norm of residual vector:     0.00000608      Convergence:   0.00000416
 CPU time [min]: 48237.726                   Wall time [min]:  2686.626
 
 Iteration 30  CI energy:   -72.24160721  Energy decrease:   0.00000003
 ======================================================================
 Norm of residual vector:     0.00000699      Convergence:   0.00000399
 CPU time [min]: 48669.342                   Wall time [min]:  2709.481
 
 Iteration 31  CI energy:   -72.24160720  Energy decrease:   0.00000001
 ======================================================================
 Norm of residual vector:     0.00000754      Convergence:   0.00000031
 CPU time [min]: 49109.703                   Wall time [min]:  2733.177
 
 Iteration 32  CI energy:   -72.24160720  Energy decrease:   2.4579E-10
 ======================================================================
 Norm of residual vector:     0.00000206      Convergence:   0.00000115
 CPU time [min]: 49551.808                   Wall time [min]:  2757.070
 
 Iteration 33  CI energy:   -72.24160721  Energy decrease:   0.00000001
 ======================================================================
 Norm of residual vector:     0.00000192      Convergence:   0.00000065
 CPU time [min]: 49987.006                   Wall time [min]:  2780.136
 
 Iteration 34  CI energy:   -72.24160720  Energy decrease:   8.2146E-10
 ======================================================================
 Norm of residual vector:     0.00000466      Convergence:   0.00000065
 CPU time [min]: 50435.411                   Wall time [min]:  2806.570
 
 Iteration 35  CI energy:   -72.24160720  Energy decrease:   2.5680E-09
 ======================================================================
 Norm of residual vector:     0.00000151      Convergence:   0.00000044
 CPU time [min]: 50873.389                   Wall time [min]:  2829.777
 
 Iteration 36  CI energy:   -72.24160721  Energy decrease:   3.6081E-09
 ======================================================================
 Norm of residual vector:     0.0000E+00      Convergence:   1.7333E-07
 CPU time [min]: 51302.826                   Wall time [min]:  2850.027
 
 Iteration 37  CI energy:   -72.24160721  Energy decrease:   8.3396E-10
 ======================================================================
 
 Iteration has converged in 37 steps.
 
 Final results:
 Total LR-CCSDTQ energy [au]:        -72.241607206653
 Excitation energy [eV]:          30.0066
 Excitation energy [cm^-1]:   242019.45
 Absorption wavelength [nm]:      41.32
 Spin multiplicity:                     2
 
 Dominant CI coefficients
 Printing threshold:  1.00E-02
 
   -0.013317  5a 2b -> 21a 22b                                          
    0.013317  5a 2b -> 22a 21b                                          
    0.011047  4a 5a -> 7a 9a                                            
   -0.025208  4a 5a -> 9a 11a                                           
   -0.030500  4a 5a -> 6a 12a                                           
   -0.036769  4a 5a -> 10a 12a                                          
   -0.015296  4a 5a -> 7a 16a                                           
    0.035590  4a 5a -> 12a 17a                                          
    0.679349  4a 5a -> 6a 21a                                           
    0.043195  4a 5a -> 10a 21a                                          
    0.055637  4a 5a -> 17a 21a                                          
   -0.018534  4a 5a -> 21a 33a                                          
   -0.011047  3a 5a -> 7a 8a                                            
    0.025208  3a 5a -> 8a 11a                                           
    0.030500  3a 5a -> 6a 13a                                           
    0.036768  3a 5a -> 10a 13a                                          
    0.015296  3a 5a -> 7a 15a                                           
   -0.035590  3a 5a -> 13a 17a                                          
   -0.679348  3a 5a -> 6a 22a                                           
   -0.043195  3a 5a -> 10a 22a                                          
   -0.055637  3a 5a -> 17a 22a                                          
    0.018534  3a 5a -> 22a 33a                                          
   -0.015362  2a 5a -> 21a 22a                                          
   -0.010120  4a 5a 2b -> 6a 39a 3b                                     
   -0.010119  4a 5a 2b -> 6a 38a 4b                                     
   -0.010120  3a 5a 2b -> 6a 39a 4b                                     
    0.010119  3a 5a 2b -> 6a 38a 3b                                     
    0.013358  3a 5a 2b -> 6a 37a 6b                                     
    0.013853  4a 5a 2b -> 6a 10a 3b                                     
    0.015718  4a 5a 2b -> 6a 17a 3b                                     
   -0.013915  4a 5a 2b -> 12a 21a 3b                                    
   -0.021913  4a 5a 2b -> 6a 27a 3b                                     
    0.029255  4a 5a 2b -> 6a 30a 3b                                     
    0.014359  4a 5a 2b -> 6a 33a 3b                                     
   -0.010661  4a 5a 2b -> 6a 21a 43b                                    
   -0.013238  4a 5a 2b -> 13a 21a 4b                                    
    0.020336  4a 5a 2b -> 21a 22a 4b                                    
    0.029243  4a 5a 2b -> 6a 24a 4b                                     
   -0.013853  3a 5a 2b -> 6a 10a 4b                                     
   -0.015718  3a 5a 2b -> 6a 17a 4b                                     
    0.013915  3a 5a 2b -> 13a 22a 4b                                    
    0.021913  3a 5a 2b -> 6a 27a 4b                                     
    0.029255  3a 5a 2b -> 6a 30a 4b                                     
   -0.014359  3a 5a 2b -> 6a 33a 4b                                     
    0.010661  3a 5a 2b -> 6a 22a 43b                                    
    0.013238  3a 5a 2b -> 12a 22a 3b                                    
    0.020336  3a 5a 2b -> 21a 22a 3b                                    
   -0.029243  3a 5a 2b -> 6a 24a 3b                                     
   -0.013836  3a 4a 2b -> 6a 21a 4b                                     
    0.087914  2a 5a 2b -> 6a 21a 4b                                     
   -0.013836  3a 4a 2b -> 6a 22a 3b                                     
   -0.087914  2a 5a 2b -> 6a 22a 3b                                     
   -0.021730  4a 5a 2b -> 6a 12a 7b                                     
   -0.011892  4a 5a 2b -> 6a 21a 7b                                     
    0.018559  4a 5a 2b -> 6a 21a 11b                                    
   -0.012302  4a 5a 2b -> 6a 21a 14b                                    
   -0.010288  4a 5a 2b -> 6a 12a 18b                                    
   -0.012581  4a 5a 2b -> 6a 21a 18b                                    
   -0.010348  4a 5a 2b -> 17a 21a 18b                                   
   -0.028327  4a 5a 2b -> 6a 21a 20b                                    
   -0.019155  4a 5a 2b -> 6a 21a 23b                                    
   -0.012333  4a 5a 2b -> 6a 22a 5b                                     
   -0.019190  4a 5a 2b -> 6a 22a 19b                                    
    0.012787  4a 5a 2b -> 6a 9a 6b                                      
    0.014997  4a 5a 2b -> 6a 16a 6b                                     
    0.014119  4a 5a 2b -> 11a 21a 6b                                    
    0.021983  4a 5a 2b -> 21a 23a 6b                                    
    0.029390  4a 5a 2b -> 6a 25a 6b                                     
    0.021280  4a 5a 2b -> 6a 28a 6b                                     
    0.012780  4a 5a 2b -> 6a 32a 6b                                     
   -0.013358  4a 5a 2b -> 6a 36a 6b                                     
    0.012333  3a 5a 2b -> 6a 21a 5b                                     
    0.019190  3a 5a 2b -> 6a 21a 19b                                    
    0.021730  3a 5a 2b -> 6a 13a 7b                                     
    0.011892  3a 5a 2b -> 6a 22a 7b                                     
   -0.018559  3a 5a 2b -> 6a 22a 11b                                    
   -0.012302  3a 5a 2b -> 6a 22a 14b                                    
    0.010288  3a 5a 2b -> 6a 13a 18b                                    
    0.012581  3a 5a 2b -> 6a 22a 18b                                    
    0.010348  3a 5a 2b -> 17a 22a 18b                                   
    0.028327  3a 5a 2b -> 6a 22a 20b                                    
   -0.019155  3a 5a 2b -> 6a 22a 23b                                    
   -0.012787  3a 5a 2b -> 6a 8a 6b                                      
   -0.014997  3a 5a 2b -> 6a 15a 6b                                     
   -0.014119  3a 5a 2b -> 11a 22a 6b                                    
   -0.021983  3a 5a 2b -> 22a 23a 6b                                    
   -0.029390  3a 5a 2b -> 6a 26a 6b                                     
   -0.021280  3a 5a 2b -> 6a 29a 6b                                     
   -0.012780  3a 5a 2b -> 6a 31a 6b                                     
    0.011963  2a 5a 2b -> 6a 21a 8b                                     
    0.016795  2a 5a 2b -> 6a 21a 15b                                    
   -0.011963  2a 5a 2b -> 6a 22a 9b                                     
   -0.016795  2a 5a 2b -> 6a 22a 16b                                    
   -0.021965  3a 4a 5a -> 6a 7a 10a                                     
   -0.033061  3a 4a 5a -> 6a 10a 11a                                    
    0.042497  3a 4a 5a -> 6a 9a 12a                                     
    0.042497  3a 4a 5a -> 6a 8a 13a                                     
   -0.032399  3a 4a 5a -> 6a 13a 15a                                    
   -0.032399  3a 4a 5a -> 6a 12a 16a                                    
    0.028438  3a 4a 5a -> 6a 7a 17a                                     
    0.010923  3a 4a 5a -> 6a 10a 18a                                    
    0.011481  3a 4a 5a -> 6a 16a 21a                                    
    0.011481  3a 4a 5a -> 6a 15a 22a                                    
    0.010543  3a 4a 5a -> 6a 10a 23a                                    
    0.011895  2a 4a 5a -> 6a 7a 12a                                     
   -0.010748  2a 4a 5a -> 6a 12a 18a                                    
    0.011432  2a 4a 5a -> 6a 21a 23a                                    
   -0.011895  2a 3a 5a -> 6a 7a 13a                                     
    0.010748  2a 3a 5a -> 6a 13a 18a                                    
   -0.011432  2a 3a 5a -> 6a 22a 23a                                    

 ************************ 2018-04-04 04:00:39 *************************
 Executing goldstone...

 Generation of MRCC equations in terms of H and T...
 Generation of antisymmetrized Goldstone diagrams...
 Number of diagrams in T^1 equations:    15
 Number of diagrams in T^2 equations:    38
 Number of diagrams in T^3 equations:    54
 Number of diagrams in T^4 equations:    80
 Number of diagrams in T^5 equations:    99
 Translation of diagrams to factorized equations...
 Number of restricted diagrams in T^1 equations:     30
 Number of restricted diagrams in T^2 equations:    129
 Number of restricted diagrams in T^3 equations:    306
 Number of restricted diagrams in T^4 equations:    669
 Number of restricted diagrams in T^5 equations:   1238
 Optimizing intermediate calculation...
 Optimizing right-hand EOMCC calculation...
 Number of floating-point operations per iteration step:   2.9830E+12
 Probable CPU time per iteration step (hours):     29.83
 Required memory (Mbytes):    1250.8
 Number of intermediates:                                1814
 Number of intermediates to be stored:                    547
 Length of intermediate file (Mbytes):    7920.7

 ************************ 2018-04-04 04:01:27 *************************
 Executing xmrcc...

 **********************************************************************
 MRCC(                     5 ) calculation 
 
 
 Allocation of1250.8 Mbytes of memory...
 Number of spinorbitals:                   118
 Number of alpha electrons:                        5
 Number of beta electrons:                         2
 Number of active particles:                    62
 Number of active holes:                         0
 z-component of spin:  1.5
 Spatial symmetry:                      1
 Convergence criterion:  1.0E-07
 Construction of occupation graphs...
 Number of                     0 -fold excitations:                      1
 Number of                     1 -fold excitations:                     73
 Number of                     2 -fold excitations:                   6373
 Number of                     3 -fold excitations:                 290902
 Number of                     4 -fold excitations:                6584546
 Number of                     5 -fold excitations:               72384661
 Total number of configurations:               79266556
 Calculation of coupling coefficients...
 Length of intermediate file (Mbytes):    5898.1
 
 ======================================================================
 
 ======================================================================
 
 ======================================================================
 
 ======================================================================
 
 Memory requirements /Mbyte/: 
               Minimal        Optimal
 Real*8:       2712.4604      2712.4604
 Integer:      2168.6138
 Total:        4881.0742      4881.0742
 

 ************************ 2018-04-04 04:07:11 *************************
 Executing mrcc...

 **********************************************************************
 LR-CCSDTQP calculation                                                 
 
 
 OpenMP parallel version is running.
 Number of CPUs:  32
 Allocation of 2712.5 Mbytes of memory...
 Number of spinorbitals: 118
 Number of alpha electrons:  5
 Number of beta  electrons:  2
 Number of active particles:                    62
 Number of active holes:                         0
 z-component of spin:  1.5
 Spatial symmetry: 1
 Convergence criterion:  1.0E-07
 Construction of occupation graphs...
 Number of 0-fold excitations: 1
 Number of 1-fold excitations: 73
 Number of 2-fold excitations: 6373
 Number of 3-fold excitations: 290902
 Number of 4-fold excitations: 6584546
 Number of 5-fold excitations: 72384661
 Total number of determinants: 79266556
 Calculation of coupling coefficients...
 Initial cluster amplitudes are read from unit 16.
 Length of intermediate file (Mbytes):    5898.1
 Reading integral list from unit 55...
 Sorting integrals...
 Sorting integrals...
 Sorting integrals...
 Sorting integrals...
 Energy of reference determinant [au]:     -73.179090670167
 Calculation of diagonal elements of Hamiltonian...
 Calculation of MP denominators...
 
 Starting CC iteration...
 ======================================================================
 Norm of residual vector:     0.02065831
 CPU time [min]:  4070.367                   Wall time [min]:   507.204
 
 Iteration  1  CC energy:   -73.34432888  Energy decrease:   3.4120E-11
 ======================================================================
 Norm of residual vector:     0.00277095
 CPU time [min]:  8012.209                   Wall time [min]:   958.271
 
 Iteration  2  CC energy:   -73.34432888  Energy decrease:   3.0298E-11
 ======================================================================
 Norm of residual vector:     0.00045197
 CPU time [min]: 11979.282                   Wall time [min]:  1521.656
 
 Iteration  3  CC energy:   -73.34432875  Energy decrease:   0.00000013
 ======================================================================
 Norm of residual vector:     0.00010198
 CPU time [min]: 15925.076                   Wall time [min]:  2123.968
 
 Iteration  4  CC energy:   -73.34432882  Energy decrease:   0.00000007
 ======================================================================
 Norm of residual vector:     0.00004077
 CPU time [min]: 19930.911                   Wall time [min]:  2639.675
 
 Iteration  5  CC energy:   -73.34432863  Energy decrease:   0.00000019
 ======================================================================
 Norm of residual vector:     0.00003064
 CPU time [min]: 23986.612                   Wall time [min]:  3129.128
 
 Iteration  6  CC energy:   -73.34432862  Energy decrease:   0.00000001
 ======================================================================
 Norm of residual vector:     0.00003053
 CPU time [min]: 28163.040                   Wall time [min]:  3619.587
 
 Iteration  7  CC energy:   -73.34432931  Energy decrease:   0.00000070
 ======================================================================
--- SharcNET Job Epilogue ---
Job ended with signal 1.
               jobid: 1537774
               resid: 3017461
         exit status: 129
      allocated time: 410042
           user time: 0
         system time: 0
peak rss=17920528384; peak vsz=17920528384 (bytes)
atime=410042; utime=0; stime=0; exit=129
