 --invoking executable--
/project1/nike/cfour_v2.00beta_May2019xnmol_noLABBASIS/bin/xjoda


   *************************************************************************
         <<<     CCCCCC     CCCCCC   |||     CCCCCC     CCCCCC   >>>
       <<<      CCC        CCC       |||    CCC        CCC         >>>
      <<<      CCC        CCC        |||   CCC        CCC            >>>
    <<<        CCC        CCC        |||   CCC        CCC              >>>
      <<<      CCC        CCC        |||   CCC        CCC            >>>
       <<<      CCC        CCC       |||    CCC        CCC         >>>
         <<<     CCCCCC     CCCCCC   |||     CCCCCC     CCCCCC   >>>
   *************************************************************************

     ****************************************************************
     * CFOUR Coupled-Cluster techniques for Computational Chemistry *
     ****************************************************************
 

   Department of Chemistry                Institut fuer Physikalische Chemie
   University of Texas at Austin          Universitaet Mainz
   Austin, TX  78712, USA                 D-55099 Mainz, Germany
 
                       Version 2.00beta
 
                     req31                                             
                     Tue Mar 10 00:44:10 EDT 2020                      
                     integer*8 version is running
 
********************************************************************************
*                          Input from ZMAT file                                *
********************************************************************************
TITLE                                                                           
Si                                                                              
H 1 R                                                                           
H 1 R 2 A                                                                       
H 1 R 2 A 3 D                                                                   
H 1 R 2 A 3 E                                                                   
                                                                                
R=2.79641671922                                                                 
A=109.4712206                                                                   
D=240.0                                                                         
E=120.0                                                                         
                                                                                
*ACES2(CALC=CCSD(T)                                                             
UNITS=BOHR                                                                      
#GEOM=1.4798*10/5.29177210903_CRC2016_moreDigitsThanCCCBDBwhichRefersTo1955Boyd 
#COORD=CARTESIAN                                                                
COORD=INTERNAL                                                                  
PRINT=4                                                                         
JODA_PRINT=4                                                                    
INPUT_MRCC=OFF                                                                  
#CC_PROG=MRCC                                                                   
#FROZEN_CORE=ON                                                                 
DROPMO=1>5                                                                      
CONTRACTION=GENERAL                                                             
#CONTRACTION=SEGMENTED                                                          
RELATIVISTIC=OFF                                                                
#EXCITE=EOMEE                                                                   
#ESTATE_CONV=5                                                                  
#ESTATE_SYM=2/2/2/2/2/2/2/2                                                     
XFORM_TOL=18                                                                    
SAVE_INTS=ON                                                                    
SCF_EXPORDER=6                                                                  
SCF_EXPSTART=5                                                                  
#SCF_DAMPING=1000                                                               
SCF_EXTRAPOLATION=ON                                                            
SCF_CONV=12                                                                     
SCF_MAXCYC=99999                                                                
CC_CONV=9                                                                       
CC_MAXCYC=999                                                                   
T3_EXTRAPOL=ON                                                                  
REFERENCE=ROHF                                                                  
CHARGE=+1                                                                       
MULT=2                                                                          
ABCDTYPE=STANDARD                                                               
#OCCUPATION=3-2-2-0-1-0-0-0/3-1-1-0-1-0-0-0                                     
MEM=4                                                                           
MEM_UNIT=GB                                                                     
ECP=OFF                                                                         
BASIS=SPECIAL)                                                                  
                                                                                
SI:def2-TZVPP                                                                   
H:def2-TZVPP                                                                    
H:def2-TZVPP                                                                    
H:def2-TZVPP                                                                    
H:def2-TZVPP                                                                    
                                                                                
********************************************************************************
  @GTFLGS-W, Keyword #GEOM not known and is ignored.
  @GTFLGS-W, Keyword #COORD not known and is ignored.
  @GTFLGS-W, Keyword #CC_PROG not known and is ignored.
  @GTFLGS-W, Keyword #FROZEN_CORE not known and is ignored.
  @GTFLGS-W, Keyword #CONTRACTION not known and is ignored.
  @GTFLGS-W, Keyword #EXCITE not known and is ignored.
  @GTFLGS-W, Keyword #ESTATE_CONV not known and is ignored.
  @GTFLGS-W, Keyword #ESTATE_SYM not known and is ignored.
  @GTFLGS-W, Keyword #SCF_DAMPING not known and is ignored.
  @GTFLGS-W, Keyword #OCCUPATION not known and is ignored.
    -------------------------------------------------------------------
                    CFOUR Control Parameters 
    -------------------------------------------------------------------
        External           Internal           Value            Units
          Name               Name
    -------------------------------------------------------------------
       ABCDTYPE             IABCDT         STANDARD     [  0]   ***   
       ANHARMONIC           IANHAR         OFF          [  0]   ***   
       ANH_ALGORIT          IANALG         STANDARD     [  0]   ***   
       ANH_DERIVAT          IANDER         SECOND       [  1]   ***   
       ANH_STEPSIZ          ICUBST             50000          x 10-6  
       ANH_SYMMETR          IANHSM         ABELIAN      [  0]   ***   
       AO_LADDERS           IAOLAD         SINGLEPASS   [  1]   ***   
       BASIS                IBASIS         SPECIAL      [  0]   ***   
       BREIT                IBREIT         OFF          [  0]   ***   
       BRUCK_CONV           IBRTOL          10D-  4             ***   
       BRUECKNER            IBRKNR             OFF      [  0]   ***   
       BUFFERSIZE           IBUFFS            600               ***   
       CACHE_RECS           ICHREC             10               ***   
       CALCLEVEL            ICLLVL           CCSD(T)    [ 22]   ***   
       CCORBOPT             ICCORB             OFF      [  0] x 0.01  
       CC_CONV              ICCCNV          10D-  9             ***   
       CC_EXPORDER          ICCEOR              5               ***   
       CC_EXTRAPOL          ICCEXT             DIIS     [  1]   ***   
       CC_MAXCYC            ICCCYC            999              cycles 
       CC_PROGRAM           ICCPRO         VCC          [  0]   ***   
       CHARGE               ICHRGE              1               ***   
       CHOLESKY             ICHOLE         OFF          [  0]   ***   
       CIS_CONV             ICISTL              5               ***   
       COMM_SIZE            IPSIZE            ***               ***   
       CONSTANT             ICONST         OLD          [  1]   ***   
       CONTINUUM            ICONTU         NONE         [  0]   ***   
       CONTRACTION          ICNTYP          GENERAL     [  1]   ***   
       COORDINATES          ICOORD         INTERNAL     [  0]   ***   
       CPHF_CONVER          ICPHFT          10D- 16             ***   
       CPHF_MAXCYC          ICPHFC             64              cycles 
       CUBIC                ICUBIC         OFF          [  0]   ***   
       CURVILINEAR          ICURVY            OFF       [  0]   ***   
       DBOC                 IDBOC          OFF          [  0]   ***   
       DCT                  IDCT           OFF          [  0]   ***   
       DERIV_LEV            IDRLVL            ZERO      [  0]   ***   
       DIAG_MRCC            IEOMST          10D-  0             ***   
       DIFF_TYPE            IDIFTY         RELAXED      [  0]   ***   
       DIRECT               IDIRCT         OFF          [  0]   ***   
       DROPMO               IDRPMO A   1,  2,  3,  4,  5,
                                   B   1,  2,  3,  4,  5,
       ECP                  IECP           OFF          [  0]   ***   
       EIGENVECTOR          IVEC                1               ***   
       EL_ANHARM            IELANH         OFF          [  0]   ***   
       EOMFOLLOW            IEOMSR         ENERGY       [  0]   ***   
       EOM_MRCC             IMRCCE         NEW          [  1]   ***   
       EOM_NONIT            EOMNON         OFF          [  0]   ***   
       EOM_NSING            IEOMSI          10D-  0             ***   
       EOM_NSTATES          IMRCCD         DAVIDSON     [  0]   ***   
       EOM_NTRIP            IEOMTR          10D-  0             ***   
       EOM_ORDER            IEXORD         ENERGY       [  0]   ***   
       ESTATE_CONV          IEXTOL          10D-  5             ***   
       ESTATE_DIAG          IEXDIG         ITERATIVE    [  0]   ***   
       ESTATE_LOCK          IESLOC         ON           [  1]   ***   
       ESTATE_MAXC          IEXMXC             20               ***   
       ESTATE_PROP          IEXPRP         OFF          [  0]   ***   
       EVAL_HESS            IRECAL              0            # of cyc.
       EXCITATION           IEXCIT              0               ***   
       EXCITE               IEXCIT         NONE         [  0]   ***   
       FCGRADNEW            IFCGNW         OFF          [  0]   ***   
       FC_FIELD             IFINFC              0             x 10-6  
       FD_CALTYPE           IFDCAL         GRADONLY     [  0]   ***   
       FD_PROJECT           IFDPRJ         OFF          [  1]   ***   
       FD_STEPSIZE          IDISFD              0            10-4 bohr
       FD_USEGROUP          IFDGRP         FULL         [  0]   ***   
       FILE_RECSIZ          IFLREC              4096           words  
       FINITE_PERT          IFIPER              0             x 10-6  
       FIXGEOM              IFIXGM         OFF          [  0]   ***   
       FOCK                 IFOCK          AO           [  1]   ***   
       FREQ_ALGORI          IVIALG         STANDARD     [  0]   ***   
       FROZEN_CORE          IFROCO         OFF          [  0]   ***   
       FROZEN_VIRT          IFROVI         OFF          [  0]   ***   
       GAMMA_ABCD           IGABCD         STORE        [  0]   ***   
       GAMMA_ABCI           IGABCI         STORE        [  0]   ***   
       GENBAS_1             IGNBS1              0               ***   
       GENBAS_2             IGNBS2              0               ***   
       GENBAS_3             IGNBS3              0               ***   
       GENBAS_4             IGNBS4              0               ***   
       GEO_CONV             ICONTL              5              H/bohr 
       GEO_MAXCYC           IOPTCY             50               ***   
       GEO_MAXSTEP          IMXSTP            300            millibohr
       GEO_METHOD           INR            SINGLE_POINT [  5]   ***   
       GIAO                 IGIAO          OFF          [  1]   ***   
       GIMIC                IGIMIC         OFF          [  0]   ***   
       GRID                 IGRID          OFF          [  0]   ***   
       GRID_ALGO            IGALGO         SERIAL       [  0]   ***   
       GUESS                IGUESS            MOREAD    [  0]   ***   
       HBAR                 IHBAR              OFF      [  0]   ***   
       HESS_TYPE            IHESTP         SCF          [  0]   ***   
       HF2_FILE             IHF2Fl         USE          [  1]   ***   
       HFSTABILITY          ISTABL         OFF          [  0]   ***   
       INCORE               INCORE             OFF      [  0]   ***   
       INPUT_MRCC           IMRCC          OFF          [  0]   ***   
       INTEGRALS            INTTYP             VMOL     [  1]   ***   
       JODA_PRINT           IJPRNT              4               ***   
       LINDEP_TOL           ILINDP              8               ***   
       LINEQ_CONV           IZTACN          10D-  7           cycles  
       LINEQ_EXPOR          ILMAXD              5               ***   
       LINEQ_MAXCY          ILMAXC             50               ***   
       LINEQ_TYPE           ILTYPE         DIIS         [  1]   ***   
       LOCK_ORBOCC          ILOCOC             OFF      [  0]   ***   
       MEMORY_SIZE          IMEMSZ         500000000           words  
       MEM_UNIT             IMEMU          GB           [  3]   ***   
       MRCC                 IMRCCC         OFF          [  0]   ***   
       MULTIPLICTY          IMULTP              2               ***   
       NEGEVAL              IDIE             ABORT      [  0]   ***   
       NEWNORM              INEWNO         OFF          [  0]   ***   
       NON-HF               INONHF              ON      [  1]   ***   
       NTOP_TAMP            ITOPT2             15               ***   
       NUC_MODEL            INUCMO         POINT        [  0]   ***   
       OCCUPATION           IOCCU   ESTIMATED BY SCF 
       OPEN-SHELL           IOPEN          SPIN-ORBITAL [  0]   ***   
       ORBITALS             IORBTP         SEMICANONICAL[  1]   ***   
       PARALLEL             IPARAL         ON           [  1]   ***   
       PARA_INT             IPINTS         ON           [  1]   ***   
       PARA_PRINT           IPPRIN              0               ***   
       PERT_ORB             IPTORB         STANDARD     [  0]   ***   
       POINTS               IGRDFD              0               ***   
       PRINT                IPRNT               4               ***   
       PROPS                IPROPS             OFF      [  0]   ***   
       PROP_INTEGR          IINTYP         INTERNAL     [  0]   ***   
       PSI                  IPSI           OFF          [  0]   ***   
       QUARTIC              IQUART         OFF          [  0]   ***   
       RAMAN_INT            IRAMIN         OFF          [  0]   ***   
       RAMAN_ORB            IRAMRE         UNRELAXED    [  0]   ***   
       RDO                  IRDOFM             OFF      [  0]   ***   
       REFERENCE            IREFNC             ROHF     [  2]   ***   
       RELATIVIST           IRELAT         OFF          [  0]   ***   
       RELAX_DENS           IRDENS             OFF      [  0]   ***   
       RESET_FLAGS          IRESET             OFF      [  0]   ***   
       RESTART_CC           ICCRES         OFF          [  0]   ***   
       ROT_EVEC             ROTVEC              0               ***   
       SAVE_INTS            ISVINT              ON      [  1]   ***   
       SCALE_ON             ISTCRT              0               ***   
       SCF_CONV             ISCFCV          10D- 12             ***   
       SCF_DAMPING          IDAMP               0             x 10-3  
       SCF_EXPORDE          IRPPOR              6               ***   
       SCF_EXPSTAR          IRPPLS              5               ***   
       SCF_EXTRAPO          IRPP                ON      [  1]   ***   
       SCF_MAXCYC           ISCFCY            ***              cycles 
       SCF_NOSTOP           ISCFST         OFF          [  0]   ***   
       SCF_PRINT            ISCFPR              0               ***   
       SD_FIELD             IFINSD              0             x 10-6  
       SEQUENCE             ISEQUE         OFF          [  0]   ***   
       SOPERT               IPERSO         OFF          [  0]   ***   
       SPHERICAL            IDFGHI             ON       [  1]   ***   
       SPINORBIT            ISOCAL         OFF          [  0]   ***   
       SPINROTATIO          ISRCON         OFF          [  0]   ***   
       SPIN_FLIP            ISPFLP         OFF          [  0]   ***   
       SPIN_ORBIT           ISPORB         OFF          [  0]   ***   
       SPIN_SCAL            ISCSMP         OFF          [  0]   ***   
       SUBGROUP             ISUBGP         DEFAULT      [  0]   ***   
       SUBGRPAXIS           ISBXYZ         X            [  0]   ***   
       SYMMETRY             ISYM             ON         [  0]   ***   
       SYM_CHECK            ISYMCK         OVERRIDE     [  1]   ***   
       T3_EXTRAPOL          IT3EXT         ON           [  1]   ***   
       TAMP_SUM             IEVERY              5               ***   
       TESTSUITE            ITESTS         OFF          [  0]   ***   
       THERMOCH             ITHERM         OFF          [  0]   ***   
       TOL_CHOLESK          ITOLCH          10D-  4             ***   
       TRANGRAD             IRESRM         OFF          [  0]   ***   
       TRANS_INV            ITRAIN         USE          [  0]   ***   
       TREAT_PERT           ITREAT         SIMULTANEOUS [  0]   ***   
       UIJ_THRESHO          IUIJTH              1               ***   
       UNITS                IUNITS         BOHR         [  1]   ***   
       UNOS                 IUNOS          OFF          [  0]   ***   
       UPDATE_HESS          IHUPDT         ON           [  1]   ***   
       VIBPHASE             ISETPH         STANDARD     [  0]   ***   
       VIBRATION            IVIB              NO        [  0]   ***   
       VIB_ALGORIT          IGEALG         STANDARD     [  0]   ***   
       VNATORB              IVNORB         OFF          [  0]   ***   
       VTRAN                IVTRAN         FULL/PARTIAL [  0]   ***   
       XFIELD               IXEFLD              0             x 10-6  
       XFORM_TOL            IXFTOL          10D- 18             ***   
       YFIELD               IYEFLD              0             x 10-6  
       ZFIELD               IZEFLD              0             x 10-6  
    -------------------------------------------------------------------
   5 entries found in Z-matrix 
   Job Title : TITLE                                                                           
 Variable names read by FETCHZ
  1           
  2           
  3           
  4 R         
  5           
  6           
  7 R         
  8 A         
  9           
 10 R         
 11 A         
 12 D         
 13 R         
 14 A         
 15 E         
 Atomic symbols read by FETCHZ
  1 Si   
  2 H    
  3 H    
  4 H    
  5 H    
 Connectivity matrix read by FETCHZ
  1   0
  2   0
  3   0
  4   1
  5   0
  6   0
  7   1
  8   2
  9   0
 10   1
 11   2
 12   3
 13   1
 14   2
 15   3
   There are  4 unique internal coordinates.
   Of these,  0 will be optimized.
   User supplied Z-matrix: 
--------------------------------------------------------------------------------
       SYMBOL    BOND      LENGTH    ANGLE     ANGLE     DIHED     ANGLE
                  TO      (ANGST)    WRT      (DEG)      WRT      (DEG)
--------------------------------------------------------------------------------
        Si   
        H          1         R    
        H          1         R          2        A    
        H          1         R          2        A          3        D    
        H          1         R          2        A          3        E    
                  *Initial values for internal coordinates* 
                      Name             Value
                        R               2.7964167192
                        A             109.4712206000
                        D             240.0000000000
                        E             120.0000000000
--------------------------------------------------------------------------------
  1  SI        14    27.97693
  2  H          1     1.00783
  3  H          1     1.00783
  4  H          1     1.00783
  5  H          1     1.00783
@GMETRY-W, Internal coordinate # 12 not within bounds:
   Value was:    4.18879 and has been changed to   -2.09440.
   27.9769271000
    1.0078250350
    1.0078250350
    1.0078250350
    1.0078250350
 After translation to center of mass coordinates 
        0.000000000000    0.000000000000   -0.000000000150
        0.000000000000    0.000000000000    2.796416719070
        2.636486967473    0.000000000000   -0.932138904969
       -1.318243483736    2.283264690578   -0.932138904969
       -1.318243483736   -2.283264690578   -0.932138904969
  Inertia tensor (amu*bohr**2)
   21.01637    0.00000    0.00000
    0.00000   21.01637    0.00000
    0.00000    0.00000   21.01637
    Inertia tensor:
       21.016367521766    0.000000000000    0.000000000000
        0.000000000000   21.016367521766    0.000000000000
        0.000000000000    0.000000000000   21.016367535185
    Principal axis orientation for molecular system: 
        0.000000000000    0.000000000000   -0.000000000150
        0.000000000000    0.000000000000    2.796416719070
        2.636486967473    0.000000000000   -0.932138904969
       -1.318243483736    2.283264690578   -0.932138904969
       -1.318243483736   -2.283264690578   -0.932138904969
    Diagonalized inertia tensor:
       21.016367521766    0.000000000000    0.000000000000
        0.000000000000   21.016367521766    0.000000000000
        0.000000000000    0.000000000000   21.016367535185
    Eigenvectors of inertia tensor: 
        1.000000000000    0.000000000000    0.000000000000
        0.000000000000    1.000000000000    0.000000000000
        0.000000000000    0.000000000000    1.000000000000
 factor:   60.1997200000000     
   Rotational constants (in cm-1): 
          2.8644207853             2.8644207872             2.8644207872
   Rotational constants (in MHz): 
      85873.1868287202         85873.1868835495         85873.1868835495
  @SYMMETRY-I, Handedness of inertial frame: 1.00000
  @SYMMETRY-I, The symmetry group is 2-fold degenerate.
  @SYMMETRY-I, The molecule belongs to a point group with doubly degenerate representations.
  @SYMMETRY-I, Z is a C[ 3] axis.
  @SYMMETRY-I, The highest order rotational axis is C[ 3] about Z.
   Principal axis orientation for molecule:
        0.000000000000    0.000000000000   -0.000000000150
        0.000000000000    0.000000000000    2.796416719070
       -1.318243483736   -2.283264690578   -0.932138904969
        2.636486967473    0.000000000000   -0.932138904969
       -1.318243483736    2.283264690578   -0.932138904969
   Reflection in plane  2 is a valid symmetry operation.
  Symmetry bits:    2   0   0
********************************************************************************
   The full molecular point group is C3v .
   The largest Abelian subgroup of the full molecular point group is C s .
   The computational point group is C s .
********************************************************************************
--------------------------------------------------------------------------------
   Analysis of internal coordinates specified by Z-matrix 
--------------------------------------------------------------------------------
   *The nuclear repulsion energy is   21.339535772343556 a.u.
   *There are   3 degrees of freedom within the tot. symm. molecular subspace.
   *Z-matrix requests optimization of   0 coordinates.
   *The optimization is constrained.
   *The following   1 parameters can have non-zero 
    derivatives within the totally symmetric subspace:
             R    [ 1]
   *The following   0 parameters are to be optimized:

   *The following coordinates must be varied in an  unconstrained optimization.
             R    [ 1]
--------------------------------------------------------------------------------
 ----------------------------------------------------------------
 Z-matrix   Atomic            Coordinates (in bohr)
  Symbol    Number           X              Y              Z
 ----------------------------------------------------------------
     SI       14         0.00000000     0.00000000     0.00000000
     H         1         2.79641672     0.00000000     0.00000000
     H         1        -0.93213890    -1.31824348    -2.28326469
     H         1        -0.93213890     2.63648697     0.00000000
     H         1        -0.93213890    -1.31824348     2.28326469
 ----------------------------------------------------------------
   Interatomic distance matrix (Angstroms) 
 
                 SI            H             H             H             H    
                [ 1]        [ 2]        [ 3]        [ 4]        [ 5]
  SI   [ 1]     0.00000
  H    [ 2]     1.47980     0.00000
  H    [ 3]     1.47980     2.41650     0.00000
  H    [ 4]     1.47980     2.41650     2.41650     0.00000
  H    [ 5]     1.47980     2.41650     2.41650     2.41650     0.00000
  Inertia tensor (amu*bohr**2)
   21.01637    0.00000    0.00000
    0.00000   21.01637    0.00000
    0.00000    0.00000   21.01637
   Rotational constants (in cm-1): 
          2.8644207853             2.8644207872             2.8644207872
   Rotational constants (in MHz): 
      85873.1868287202         85873.1868835495         85873.1868835495
  @GTFLGS-W, Keyword #GEOM not known and is ignored.
  @GTFLGS-W, Keyword #COORD not known and is ignored.
  @GTFLGS-W, Keyword #CC_PROG not known and is ignored.
  @GTFLGS-W, Keyword #FROZEN_CORE not known and is ignored.
  @GTFLGS-W, Keyword #CONTRACTION not known and is ignored.
  @GTFLGS-W, Keyword #EXCITE not known and is ignored.
  @GTFLGS-W, Keyword #ESTATE_CONV not known and is ignored.
  @GTFLGS-W, Keyword #ESTATE_SYM not known and is ignored.
  @GTFLGS-W, Keyword #SCF_DAMPING not known and is ignored.
  @GTFLGS-W, Keyword #OCCUPATION not known and is ignored.
  There are   98 basis functions.
 @GEOPT-W, Archive file not created for single-point calculation.
  @CHECKOUT-I, Total execution time (CPU/WALL):        0.54/       2.75 seconds.
--executable xjoda finished with status     0 in        3.35 seconds (walltime).
 --invoking executable--
/project1/nike/cfour_v2.00beta_May2019xnmol_noLABBASIS/bin/xvmol
Running with 1 threads/proc

********************************************************************************
                   INPUT FROM MOL FILE                                          
********************************************************************************
INTGRL        1    0    1    0    0    0    0    0    0
         *** CFOUR Program System (Release V0.1) *** 
TITLE
    4    1 Z          0.10E-08              0    0
   9999.00      3.00
         14.00000000    1    4    1    1    1    1
SI#1  -0.000000000149917   0.000000000000000   0.000000000000000
   14    5
   44773.3580780000       5.591476586800000E-004  0.000000000000000E+000
  0.000000000000000E+000  0.000000000000000E+000  0.000000000000000E+000
   6717.19921040000       4.320604018900000E-003  0.000000000000000E+000
  0.000000000000000E+000  0.000000000000000E+000  0.000000000000000E+000
   1528.89603250000       2.218709646000000E-002  0.000000000000000E+000
  0.000000000000000E+000  0.000000000000000E+000  0.000000000000000E+000
   432.547465850000       8.648924911600001E-002  0.000000000000000E+000
  0.000000000000000E+000  0.000000000000000E+000  0.000000000000000E+000
   140.615052260000       0.249398897160000       0.000000000000000E+000
  0.000000000000000E+000  0.000000000000000E+000  0.000000000000000E+000
   49.8576367240000       0.460171973660000       0.000000000000000E+000
  0.000000000000000E+000  0.000000000000000E+000  0.000000000000000E+000
   18.4349748850000       0.342502365750000       0.000000000000000E+000
  0.000000000000000E+000  0.000000000000000E+000  0.000000000000000E+000
   86.5338861110000       0.000000000000000E+000  2.130006300700000E-002
  0.000000000000000E+000  0.000000000000000E+000  0.000000000000000E+000
   26.6246068460000       0.000000000000000E+000  9.467613931799999E-002
  0.000000000000000E+000  0.000000000000000E+000  0.000000000000000E+000
   4.49530571590000       0.000000000000000E+000 -0.326162648590000     
  0.000000000000000E+000  0.000000000000000E+000  0.000000000000000E+000
   2.10350457100000       0.000000000000000E+000  0.000000000000000E+000
   1.39808038500000       0.000000000000000E+000  0.000000000000000E+000
   1.01060949220000       0.000000000000000E+000  0.000000000000000E+000
  0.638657866990000       0.000000000000000E+000  0.000000000000000E+000
  0.237017514890000       0.000000000000000E+000  0.000000000000000E+000
  0.000000000000000E+000   1.00000000000000       0.000000000000000E+000
  8.570340536200000E-002  0.000000000000000E+000  0.000000000000000E+000
  0.000000000000000E+000  0.000000000000000E+000   1.00000000000000     
    9    5
   394.475036280000       2.628569395900000E-003  0.000000000000000E+000
  0.000000000000000E+000  0.000000000000000E+000  0.000000000000000E+000
   93.1376831040000       2.055625774900000E-002  0.000000000000000E+000
  0.000000000000000E+000  0.000000000000000E+000  0.000000000000000E+000
   29.5196087420000       9.207026280100000E-002  0.000000000000000E+000
  0.000000000000000E+000  0.000000000000000E+000  0.000000000000000E+000
   10.7816637910000       0.255658897390000       0.000000000000000E+000
  0.000000000000000E+000  0.000000000000000E+000  0.000000000000000E+000
   4.16265747780000       0.421117071850000       0.000000000000000E+000
  0.000000000000000E+000  0.000000000000000E+000  0.000000000000000E+000
   1.62479729890000       0.000000000000000E+000  0.344017463180000     
  0.000000000000000E+000  0.000000000000000E+000  0.000000000000000E+000
  0.543066604930000       0.000000000000000E+000  0.000000000000000E+000
   1.00000000000000       0.000000000000000E+000  0.000000000000000E+000
  0.205820739560000       0.000000000000000E+000  0.000000000000000E+000
  0.000000000000000E+000   1.00000000000000       0.000000000000000E+000
  7.005348730600000E-002  0.000000000000000E+000  0.000000000000000E+000
  0.000000000000000E+000  0.000000000000000E+000   1.00000000000000     
    3    3
  0.160000000000000        1.00000000000000       0.000000000000000E+000
  0.000000000000000E+000
   2.30300000000000       0.000000000000000E+000   1.00000000000000     
  0.000000000000000E+000
  0.476000000000000       0.000000000000000E+000  0.000000000000000E+000
   1.00000000000000     
    1    1
  0.336000000000000        1.00000000000000     
          1.00000000    1    3    1    1    1
H #2   2.796416719070083   0.000000000000000   0.000000000000000
    5    3
   34.0613410000000       6.025197800000000E-003  0.000000000000000E+000
  0.000000000000000E+000
   5.12357460000000       4.502109400000000E-002  0.000000000000000E+000
  0.000000000000000E+000
   1.16466260000000       0.201897260000000       0.000000000000000E+000
  0.000000000000000E+000
  0.327230410000000       0.000000000000000E+000   1.00000000000000     
  0.000000000000000E+000
  0.103072410000000       0.000000000000000E+000  0.000000000000000E+000
   1.00000000000000     
    2    2
   1.40700000000000        1.00000000000000       0.000000000000000E+000
  0.388000000000000       0.000000000000000E+000   1.00000000000000     
    1    1
   1.05700000000000        1.00000000000000     
          1.00000000    1    3    1    1    1
H #3  -0.932138904969481  -1.318243483736496  -2.283264690578207
    5    3
   34.0613410000000       6.025197800000000E-003  0.000000000000000E+000
  0.000000000000000E+000
   5.12357460000000       4.502109400000000E-002  0.000000000000000E+000
  0.000000000000000E+000
   1.16466260000000       0.201897260000000       0.000000000000000E+000
  0.000000000000000E+000
  0.327230410000000       0.000000000000000E+000   1.00000000000000     
  0.000000000000000E+000
  0.103072410000000       0.000000000000000E+000  0.000000000000000E+000
   1.00000000000000     
    2    2
   1.40700000000000        1.00000000000000       0.000000000000000E+000
  0.388000000000000       0.000000000000000E+000   1.00000000000000     
    1    1
   1.05700000000000        1.00000000000000     
          1.00000000    1    3    1    1    1
H #4  -0.932138904969481   2.636486967472991   0.000000000000001
    5    3
   34.0613410000000       6.025197800000000E-003  0.000000000000000E+000
  0.000000000000000E+000
   5.12357460000000       4.502109400000000E-002  0.000000000000000E+000
  0.000000000000000E+000
   1.16466260000000       0.201897260000000       0.000000000000000E+000
  0.000000000000000E+000
  0.327230410000000       0.000000000000000E+000   1.00000000000000     
  0.000000000000000E+000
  0.103072410000000       0.000000000000000E+000  0.000000000000000E+000
   1.00000000000000     
    2    2
   1.40700000000000        1.00000000000000       0.000000000000000E+000
  0.388000000000000       0.000000000000000E+000   1.00000000000000     
    1    1
   1.05700000000000        1.00000000000000     
FINISH
                                                                                
********************************************************************************

ONE- AND TWO-ELECTRON INTEGRALS OVER SYMMETRY-ADAPTED AOS ARE CALCULATED.


    BASIS FUNCTION NOT NORMALIZED:
    CENTER (AS ORDERED IN MOL FILE): ?
    ANGULAR MOMENTUM TYPE:           S
    OFFSET WITHIN ANGULAR MOMENTUM:  1
    <CHI|CHI>:                       1.0410848989

    BASIS FUNCTION NOT NORMALIZED:
    CENTER (AS ORDERED IN MOL FILE): ?
    ANGULAR MOMENTUM TYPE:           S
    OFFSET WITHIN ANGULAR MOMENTUM:  2
    <CHI|CHI>:                       0.0785770661

    BASIS FUNCTION NOT NORMALIZED:
    CENTER (AS ORDERED IN MOL FILE): ?
    ANGULAR MOMENTUM TYPE:           S
    OFFSET WITHIN ANGULAR MOMENTUM:  3
    <CHI|CHI>:                       3.9806625281

    BASIS FUNCTION NOT NORMALIZED:
    CENTER (AS ORDERED IN MOL FILE): ?
    ANGULAR MOMENTUM TYPE:           P
    OFFSET WITHIN ANGULAR MOMENTUM:  1
    <CHI|CHI>:                       0.4851579318

    BASIS FUNCTION NOT NORMALIZED:
    CENTER (AS ORDERED IN MOL FILE): ?
    ANGULAR MOMENTUM TYPE:           P
    OFFSET WITHIN ANGULAR MOMENTUM:  2
    <CHI|CHI>:                       0.1183480150

    BASIS FUNCTION NOT NORMALIZED:
    CENTER (AS ORDERED IN MOL FILE): ?
    ANGULAR MOMENTUM TYPE:           S
    OFFSET WITHIN ANGULAR MOMENTUM:  1
    <CHI|CHI>:                       0.0560960211

    BASIS FUNCTION NOT NORMALIZED:
    CENTER (AS ORDERED IN MOL FILE): ?
    ANGULAR MOMENTUM TYPE:           S
    OFFSET WITHIN ANGULAR MOMENTUM:  1
    <CHI|CHI>:                       0.0560960211

    BASIS FUNCTION NOT NORMALIZED:
    CENTER (AS ORDERED IN MOL FILE): ?
    ANGULAR MOMENTUM TYPE:           S
    OFFSET WITHIN ANGULAR MOMENTUM:  1
    <CHI|CHI>:                       0.0560960211
CARTESIAN GAUSSIANS ARE USED.

4 TYPES OF ATOMS
1 SYMMETRY OPERATIONS

REFLECTION IN THE XY-PLANE

INTEGRALS LESS THAN 1e-14 ARE NEGLECTED.

ATOMIC TYPE NUMBER 1:
---------------------

    NUCLEAR CHARGE:                       14
    NUMBER OF SYMMETRY INDEPENDENT ATOMS: 1
    HIGHEST ORBITAL TYPE:                 F

    1 GROUPS OF CGTOS OF S TYPE
    1 GROUPS OF CGTOS OF P TYPE
    1 GROUPS OF CGTOS OF D TYPE
    1 GROUPS OF CGTOS OF F TYPE

    NUCLEAR COORDINATES (IN A.U.) ARE:

    SI#1  -0.000000000149917   0.000000000000000   0.000000000000000

ATOMIC TYPE NUMBER 2:
---------------------

    NUCLEAR CHARGE:                       1
    NUMBER OF SYMMETRY INDEPENDENT ATOMS: 1
    HIGHEST ORBITAL TYPE:                 D

    1 GROUPS OF CGTOS OF S TYPE
    1 GROUPS OF CGTOS OF P TYPE
    1 GROUPS OF CGTOS OF D TYPE

    NUCLEAR COORDINATES (IN A.U.) ARE:

    H #2   2.796416719070083   0.000000000000000   0.000000000000000

ATOMIC TYPE NUMBER 3:
---------------------

    NUCLEAR CHARGE:                       1
    NUMBER OF SYMMETRY INDEPENDENT ATOMS: 1
    HIGHEST ORBITAL TYPE:                 D

    1 GROUPS OF CGTOS OF S TYPE
    1 GROUPS OF CGTOS OF P TYPE
    1 GROUPS OF CGTOS OF D TYPE

    NUCLEAR COORDINATES (IN A.U.) ARE:

    H #3  -0.932138904969481  -1.318243483736496  -2.283264690578207

ATOMIC TYPE NUMBER 4:
---------------------

    NUCLEAR CHARGE:                       1
    NUMBER OF SYMMETRY INDEPENDENT ATOMS: 1
    HIGHEST ORBITAL TYPE:                 D

    1 GROUPS OF CGTOS OF S TYPE
    1 GROUPS OF CGTOS OF P TYPE
    1 GROUPS OF CGTOS OF D TYPE

    NUCLEAR COORDINATES (IN A.U.) ARE:

    H #4  -0.932138904969481   2.636486967472991   0.000000000000001

INTERNUCLEAR DISTANCES (A):

    FOR ATOM SI#1 (COORDINATES:  -0.00000   0.00000   0.00000)

    H #2 1 DISTANCE IS   1.47980
    H #3 1 DISTANCE IS   1.47980
    H #4 1 DISTANCE IS   1.47980

    FOR ATOM H #2 (COORDINATES:   2.79642   0.00000   0.00000)

    H #3 1 DISTANCE IS   2.41650
    H #4 1 DISTANCE IS   2.41650

    FOR ATOM H #3 (COORDINATES:  -0.93214  -1.31824  -2.28326)

    H #3 2 DISTANCE IS   2.41650
    H #4 1 DISTANCE IS   2.41650

    FOR ATOM H #4 (COORDINATES:  -0.93214   2.63649   0.00000)


GROUP MULTIPLICATION TABLE:

    1 2
    2 1

GAUSSIAN BASIS INFORMATION:

ATOM                EXPONENT       COEFFICIENTS

SI#1  1  S   
                  1   44773.358078   1.2021489   0.0000000   0.0000000   0.0000000   0.0000000
                  2    6717.199210   2.2392504   0.0000000   0.0000000   0.0000000   0.0000000
                  3    1528.896033   3.7892299   0.0000000   0.0000000   0.0000000   0.0000000
                  4     432.547466   5.7299981   0.0000000   0.0000000   0.0000000   0.0000000
                  5     140.615052   7.1135339   0.0000000   0.0000000   0.0000000   0.0000000
                  6      49.857637   6.0309531   0.0000000   0.0000000   0.0000000   0.0000000
                  7      18.434975   2.1284454   0.0000000   0.0000000   0.0000000   0.0000000
                  8      86.533886   0.0000000   1.5365006   0.0000000   0.0000000   0.0000000
                  9      26.624607   0.0000000   2.8214030   0.0000000   0.0000000   0.0000000
                 10       4.495306   0.0000000  -2.5601525   0.0000000   0.0000000   0.0000000
                 11       2.103505   0.0000000   0.0000000   0.8723126   0.0000000   0.0000000
                 12       1.010609   0.0000000   0.0000000   0.2299525   0.0000000   0.0000000
                 13       0.237018   0.0000000   0.0000000   0.0000000   0.2421004   0.0000000
                 14       0.085703   0.0000000   0.0000000   0.0000000   0.0000000   0.1128908

SI#1  1  X   
                 15     394.475036   9.4567601   0.0000000   0.0000000   0.0000000   0.0000000
                 16      93.137683  12.1716474   0.0000000   0.0000000   0.0000000   0.0000000
                 17      29.519609  12.9645112   0.0000000   0.0000000   0.0000000   0.0000000
                 18      10.781664  10.2215478   0.0000000   0.0000000   0.0000000   0.0000000
                 19       4.162657   5.1240660   0.0000000   0.0000000   0.0000000   0.0000000
                 20       1.624797   0.0000000   2.6148036   0.0000000   0.0000000   0.0000000
                 21       0.543067   0.0000000   0.0000000   0.6645176   0.0000000   0.0000000
                 22       0.205821   0.0000000   0.0000000   0.0000000   0.1976066   0.0000000
                 23       0.070053   0.0000000   0.0000000   0.0000000   0.0000000   0.0513721

SI#1  1  Y   
                 24     394.475036   9.4567601   0.0000000   0.0000000   0.0000000   0.0000000
                 25      93.137683  12.1716474   0.0000000   0.0000000   0.0000000   0.0000000
                 26      29.519609  12.9645112   0.0000000   0.0000000   0.0000000   0.0000000
                 27      10.781664  10.2215478   0.0000000   0.0000000   0.0000000   0.0000000
                 28       4.162657   5.1240660   0.0000000   0.0000000   0.0000000   0.0000000
                 29       1.624797   0.0000000   2.6148036   0.0000000   0.0000000   0.0000000
                 30       0.543067   0.0000000   0.0000000   0.6645176   0.0000000   0.0000000
                 31       0.205821   0.0000000   0.0000000   0.0000000   0.1976066   0.0000000
                 32       0.070053   0.0000000   0.0000000   0.0000000   0.0000000   0.0513721

SI#1  1  Z   
                 33     394.475036   9.4567601   0.0000000   0.0000000   0.0000000   0.0000000
                 34      93.137683  12.1716474   0.0000000   0.0000000   0.0000000   0.0000000
                 35      29.519609  12.9645112   0.0000000   0.0000000   0.0000000   0.0000000
                 36      10.781664  10.2215478   0.0000000   0.0000000   0.0000000   0.0000000
                 37       4.162657   5.1240660   0.0000000   0.0000000   0.0000000   0.0000000
                 38       1.624797   0.0000000   2.6148036   0.0000000   0.0000000   0.0000000
                 39       0.543067   0.0000000   0.0000000   0.6645176   0.0000000   0.0000000
                 40       0.205821   0.0000000   0.0000000   0.0000000   0.1976066   0.0000000
                 41       0.070053   0.0000000   0.0000000   0.0000000   0.0000000   0.0513721

SI#1  1  XX  
                 42       0.160000   0.1153932   0.0000000   0.0000000
                 43       2.303000   0.0000000  12.2739535   0.0000000
                 44       0.476000   0.0000000   0.0000000   0.7776466

SI#1  1  XY  
                 45       0.160000   0.1153932   0.0000000   0.0000000
                 46       2.303000   0.0000000  12.2739535   0.0000000
                 47       0.476000   0.0000000   0.0000000   0.7776466

SI#1  1  XZ  
                 48       0.160000   0.1153932   0.0000000   0.0000000
                 49       2.303000   0.0000000  12.2739535   0.0000000
                 50       0.476000   0.0000000   0.0000000   0.7776466

SI#1  1  YY  
                 51       0.160000   0.1153932   0.0000000   0.0000000
                 52       2.303000   0.0000000  12.2739535   0.0000000
                 53       0.476000   0.0000000   0.0000000   0.7776466

SI#1  1  YZ  
                 54       0.160000   0.1153932   0.0000000   0.0000000
                 55       2.303000   0.0000000  12.2739535   0.0000000
                 56       0.476000   0.0000000   0.0000000   0.7776466

SI#1  1  ZZ  
                 57       0.160000   0.1153932   0.0000000   0.0000000
                 58       2.303000   0.0000000  12.2739535   0.0000000
                 59       0.476000   0.0000000   0.0000000   0.7776466

SI#1  1  F300
                 60       0.336000   0.4900760

SI#1  1  F210
                 61       0.336000   0.4900760

SI#1  1  F201
                 62       0.336000   0.4900760

SI#1  1  F120
                 63       0.336000   0.4900760

SI#1  1  F111
                 64       0.336000   0.4900760

SI#1  1  F102
                 65       0.336000   0.4900760

SI#1  1  F030
                 66       0.336000   0.4900760

SI#1  1  F021
                 67       0.336000   0.4900760

SI#1  1  F012
                 68       0.336000   0.4900760

SI#1  1  F003
                 69       0.336000   0.4900760

H #2  1  S   
                 70      34.061341   0.2556299   0.0000000   0.0000000
                 71       5.123575   0.4613600   0.0000000   0.0000000
                 72       1.164663   0.6811215   0.0000000   0.0000000
                 73       0.327230   0.0000000   0.3083545   0.0000000
                 74       0.103072   0.0000000   0.0000000   0.1296483

H #2  1  X   
                 75       1.407000   2.1842770   0.0000000
                 76       0.388000   0.0000000   0.4364955

H #2  1  Y   
                 77       1.407000   2.1842770   0.0000000
                 78       0.388000   0.0000000   0.4364955

H #2  1  Z   
                 79       1.407000   2.1842770   0.0000000
                 80       0.388000   0.0000000   0.4364955

H #2  1  XX  
                 81       1.057000   3.1412414

H #2  1  XY  
                 82       1.057000   3.1412414

H #2  1  XZ  
                 83       1.057000   3.1412414

H #2  1  YY  
                 84       1.057000   3.1412414

H #2  1  YZ  
                 85       1.057000   3.1412414

H #2  1  ZZ  
                 86       1.057000   3.1412414

H #3  1  S   
                 87      34.061341   0.2556299   0.0000000   0.0000000
                 88       5.123575   0.4613600   0.0000000   0.0000000
                 89       1.164663   0.6811215   0.0000000   0.0000000
                 90       0.327230   0.0000000   0.3083545   0.0000000
                 91       0.103072   0.0000000   0.0000000   0.1296483

H #3  2  S   
                 92      34.061341   0.2556299   0.0000000   0.0000000
                 93       5.123575   0.4613600   0.0000000   0.0000000
                 94       1.164663   0.6811215   0.0000000   0.0000000
                 95       0.327230   0.0000000   0.3083545   0.0000000
                 96       0.103072   0.0000000   0.0000000   0.1296483

H #3  1  X   
                 97       1.407000   2.1842770   0.0000000
                 98       0.388000   0.0000000   0.4364955

H #3  2  X   
                 99       1.407000   2.1842770   0.0000000
                100       0.388000   0.0000000   0.4364955

H #3  1  Y   
                101       1.407000   2.1842770   0.0000000
                102       0.388000   0.0000000   0.4364955

H #3  2  Y   
                103       1.407000   2.1842770   0.0000000
                104       0.388000   0.0000000   0.4364955

H #3  1  Z   
                105       1.407000   2.1842770   0.0000000
                106       0.388000   0.0000000   0.4364955

H #3  2  Z   
                107       1.407000   2.1842770   0.0000000
                108       0.388000   0.0000000   0.4364955

H #3  1  XX  
                109       1.057000   3.1412414

H #3  2  XX  
                110       1.057000   3.1412414

H #3  1  XY  
                111       1.057000   3.1412414

H #3  2  XY  
                112       1.057000   3.1412414

H #3  1  XZ  
                113       1.057000   3.1412414

H #3  2  XZ  
                114       1.057000   3.1412414

H #3  1  YY  
                115       1.057000   3.1412414

H #3  2  YY  
                116       1.057000   3.1412414

H #3  1  YZ  
                117       1.057000   3.1412414

H #3  2  YZ  
                118       1.057000   3.1412414

H #3  1  ZZ  
                119       1.057000   3.1412414

H #3  2  ZZ  
                120       1.057000   3.1412414

H #4  1  S   
                121      34.061341   0.2556299   0.0000000   0.0000000
                122       5.123575   0.4613600   0.0000000   0.0000000
                123       1.164663   0.6811215   0.0000000   0.0000000
                124       0.327230   0.0000000   0.3083545   0.0000000
                125       0.103072   0.0000000   0.0000000   0.1296483

H #4  1  X   
                126       1.407000   2.1842770   0.0000000
                127       0.388000   0.0000000   0.4364955

H #4  1  Y   
                128       1.407000   2.1842770   0.0000000
                129       0.388000   0.0000000   0.4364955

H #4  1  Z   
                130       1.407000   2.1842770   0.0000000
                131       0.388000   0.0000000   0.4364955

H #4  1  XX  
                132       1.057000   3.1412414

H #4  1  XY  
                133       1.057000   3.1412414

H #4  1  XZ  
                134       1.057000   3.1412414

H #4  1  YY  
                135       1.057000   3.1412414

H #4  1  YZ  
                136       1.057000   3.1412414

H #4  1  ZZ  
                137       1.057000   3.1412414

SYMMETRY TRANSFORMATION INTO 98 SYMMETRY-ADAPTED BASIS FUNCTIONS

    IRREDUCIBLE REPRESENTATION NUMBER 1

    1    1 SI#1 S      1   1.0
    2    2 SI#1 S      2   1.0
    3    3 SI#1 S      3   1.0
    4    4 SI#1 S      4   1.0
    5    5 SI#1 S      5   1.0
    6    6 SI#1 X      6   1.0
    7    7 SI#1 X      7   1.0
    8    8 SI#1 X      8   1.0
    9    9 SI#1 X      9   1.0
   10   10 SI#1 X     10   1.0
   11   11 SI#1 Y     11   1.0
   12   12 SI#1 Y     12   1.0
   13   13 SI#1 Y     13   1.0
   14   14 SI#1 Y     14   1.0
   15   15 SI#1 Y     15   1.0
   16   16 SI#1 XX    21  -1.0  30  -1.0  36   2.0
   17   17 SI#1 XX    22  -1.0  31  -1.0  37   2.0
   18   18 SI#1 XX    23  -1.0  32  -1.0  38   2.0
   19   19 SI#1 XY    24   1.0
   20   20 SI#1 XY    25   1.0
   21   21 SI#1 XY    26   1.0
   22   22 SI#1 YY    21   1.0  30  -1.0
   23   23 SI#1 YY    22   1.0  31  -1.0
   24   24 SI#1 YY    23   1.0  32  -1.0
   25   25 SI#1 ZZ    39  -1.0  42  -1.0  44   4.0
   26   26 SI#1 ZZ    40  -1.0  45  -1.0  47   4.0
   27   27 SI#1 ZZ    39   1.0  42  -3.0
   28   28 SI#1 F300  40   3.0  45  -1.0
   29   29 SI#1 F210  49   1.0
   30   30 SI#1 F120  50   1.0
   31   31 SI#1 F102  51   1.0
   32   32 SI#1 F030  52   1.0
   33   33 SI#1 F012  53   1.0
   34   34 H #2 S     54   1.0
   35   35 H #2 S     55   1.0
   36   36 H #2 S     58  -1.0  61  -1.0  63   2.0
   37   37 H #2 X     59   1.0
   38   38 H #2 X     58   1.0  61  -1.0
   39   39 H #2 Y     64   1.0  65   1.0
   40   40 H #2 Y     66   1.0  67   1.0
   41   41 H #2 XX    68   1.0  69   1.0
   42   42 H #2 XY    70   1.0  71   1.0
   43   43 H #2 YY    72   1.0  73   1.0
   44   44 H #2 ZZ    74   1.0  75   1.0
   45   45 H #3 S     76   1.0  77   1.0
   46   46 H #3 S     78   1.0  79  -1.0
   47   47 H #3 S     80   1.0  81  -1.0
   48   48 H #3 X     82  -1.0  83  -1.0  88  -1.0  89  -1.0  92   2.0  93   2.0
   49   49 H #3 X     84   1.0  85   1.0
   50   50 H #3 Y     86   1.0  87  -1.0
   51   51 H #3 Y     82   1.0  83   1.0  88  -1.0  89  -1.0
   52   52 H #3 Z     90   1.0  91  -1.0
   53   53 H #3 Z     94   1.0
   54   54 H #3 XX    95   1.0
   55   55 H #3 XY    96   1.0
   56   56 H #3 XZ    97   1.0
   57   57 H #3 YY    98   1.0
   58   58 H #3 YZ    99   1.0
   59   59 H #3 ZZ   100   1.0
   60   60 H #4 S    103  -1.0 106  -1.0 108   2.0
   61   61 H #4 S    104   1.0
   62   62 H #4 S    103   1.0 106  -1.0
   63   63 H #4 X     16   1.0
   64   64 H #4 X     17   1.0
   65   65 H #4 Y     18   1.0
   66   66 H #4 Y     19   1.0
   67   67 H #4 XX    20   1.0
   68   68 H #4 XY    27   1.0
   69   69 H #4 YY    28   1.0
   70   70 H #4 ZZ    29   1.0

    IRREDUCIBLE REPRESENTATION NUMBER 2

   71    1 SI#1 Z     33   1.0
   72    2 SI#1 Z     34   1.0
   73    3 SI#1 Z     35   1.0
   74    4 SI#1 Z     41  -3.0  46  -3.0  48   2.0
   75    5 SI#1 Z     43   1.0
   76    6 SI#1 XZ    41   1.0  46  -1.0
   77    7 SI#1 XZ    56   1.0
   78    8 SI#1 XZ    57   1.0
   79    9 SI#1 YZ    60   1.0
   80   10 SI#1 YZ    62   1.0
   81   11 SI#1 YZ    64   1.0  65  -1.0
   82   12 SI#1 F201  66   1.0  67  -1.0
   83   13 SI#1 F111  68   1.0  69  -1.0
   84   14 SI#1 F021  70   1.0  71  -1.0
   85   15 SI#1 F003  72   1.0  73  -1.0
   86   16 H #2 Z     74   1.0  75  -1.0
   87   17 H #2 Z     76   1.0  77  -1.0
   88   18 H #2 XZ    78   1.0  79   1.0
   89   19 H #2 YZ    80   1.0  81   1.0
   90   20 H #3 S     82  -1.0  83   1.0  88  -1.0  89   1.0  92   2.0  93  -2.0
   91   21 H #3 S     84   1.0  85  -1.0
   92   22 H #3 S     86   1.0  87   1.0
   93   23 H #3 X     82   1.0  83  -1.0  88  -1.0  89   1.0
   94   24 H #3 X     90   1.0  91   1.0
   95   25 H #3 Y    101   1.0
   96   26 H #3 Y    102   1.0
   97   27 H #3 Z    105   1.0
   98   28 H #3 Z    107   1.0
   99   29 H #3 XX  
  100   30 H #3 XY  
  101   31 H #3 XZ  
  102   32 H #3 YY  
  103   33 H #3 YZ  
  104   34 H #3 ZZ  
  105   35 H #4 Z   
  106   36 H #4 Z   
  107   37 H #4 XZ  
  108   38 H #4 YZ  

NUCLEAR REPULSION ENERGY:   21.3395357723 A.U.

One-electron integrals took 0.047178 seconds

  @TWOEL-I,    1929855 INTEGRALS OF SYMMETRY TYPE  I I I I
  @TWOEL-I,    2304123 INTEGRALS OF SYMMETRY TYPE  I J I J
  @TWOEL-I,    1199165 INTEGRALS OF SYMMETRY TYPE  I I J J
  @TWOEL-I, TOTAL NUMBER OF 2-E INTEGRALS    5433143

Two-electron integrals took 7.750654 seconds

Nuclear repulsion energy: 21.339535772344
--executable xvmol finished with status     0 in       13.88 seconds (walltime).
 --invoking executable--
/project1/nike/cfour_v2.00beta_May2019xnmol_noLABBASIS/bin/xvmol2ja
--executable xvmol2ja finished with status     0 in        0.06 seconds (walltime).
 --invoking executable--
/project1/nike/cfour_v2.00beta_May2019xnmol_noLABBASIS/bin/xvscf
  There are   98 functions in the AO basis.

  There are 2 irreducible representations.

       Irrep        # of functions
         1                 62
         2                 36


  Parameters for SCF calculation: 
        SCF reference function: ROHF  
  Maximum number of iterations: ****
     Full symmetry point group: C3v 
     Computational point group: C s 
        Initial density matrix: CORE                   
     SCF convergence tolerance: 10**(-12)
  DIIS convergence acceleration:  ON
          Latest start for DIIS:   5
                     DIIS order:   6

  Memory information:     483873 words required.
  Fock matrices are constructed from AO integral file.
 @GETMEM-I,  Allocated       3 MB of main memory.
  Initialization and symmetry analysis required      0.002 seconds.

  @INITGES-I, Occupancies from core Hamiltonian:

          Alpha population by irrep:   7    2
           Beta population by irrep:   6    2


 total no. of electrons in initial guess :  0.000000000000000E+000
 total no. of electrons in initial guess :  0.000000000000000E+000
  --------------------------------------------------------------------
  Iteration         Total Energy            Largest Density Difference
  --------------------------------------------------------------------
       0            21.339535772343556              0.0000000000D+00
   current occupation vector 
     7  2
     6  2
  processed                1929855  ao basis integrals from 
                  3217  buffers.
  processed                1199165  ao basis integrals from 
                  1999  buffers.
  processed                2304123  ao basis integrals from 
                  3841  buffers.
       1          -248.590481327920855              0.1642495784D+01
   current occupation vector 
     7  2
     6  2
  processed                1929855  ao basis integrals from 
                  3217  buffers.
  processed                1199165  ao basis integrals from 
                  1999  buffers.
  processed                2304123  ao basis integrals from 
                  3841  buffers.
       2          -232.760865381054998              0.6963573581D+01
   current occupation vector 
     7  2
     6  2
  processed                1929855  ao basis integrals from 
                  3217  buffers.
  processed                1199165  ao basis integrals from 
                  1999  buffers.
  processed                2304123  ao basis integrals from 
                  3841  buffers.
       3          -270.642157998451694              0.6963227935D+01
   current occupation vector 
     7  2
     6  2
  processed                1929855  ao basis integrals from 
                  3217  buffers.
  processed                1199165  ao basis integrals from 
                  1999  buffers.
  processed                2304123  ao basis integrals from 
                  3841  buffers.
       4          -279.736804719142981              0.4864080070D+01
   current occupation vector 
     7  2
     7  1
 
 sum over diagonal and offdiagdiagonal of C(T)*S*C for irrep
                     1
 -3.090860900556436E-013 -1.120041124653646E-012
 reorthoganalization of MOs is carried out
 sum over diagonal and offdiagdiagonal of C(T)*S*C for irrep
                     1
 -1.998401444325282E-014  3.194990092304635E-015
 
 sum over diagonal and offdiagdiagonal of C(T)*S*C for irrep
                     2
  4.396483177515620E-014 -1.524278330813889E-014
 reorthoganalization of MOs is carried out
 sum over diagonal and offdiagdiagonal of C(T)*S*C for irrep
                     2
  7.882583474838611E-015 -4.935206285776810E-015
  processed                1929855  ao basis integrals from 
                  3217  buffers.
  processed                1199165  ao basis integrals from 
                  1999  buffers.
  processed                2304123  ao basis integrals from 
                  3841  buffers.
       5          -287.680085525389870              0.1984222040D+01
   current occupation vector 
     7  2
     6  2
  processed                1929855  ao basis integrals from 
                  3217  buffers.
  processed                1199165  ao basis integrals from 
                  1999  buffers.
  processed                2304123  ao basis integrals from 
                  3841  buffers.
       6          -290.418616752616344              0.1377073858D+01
   current occupation vector 
     7  2
     6  2
  processed                1929855  ao basis integrals from 
                  3217  buffers.
  processed                1199165  ao basis integrals from 
                  1999  buffers.
  processed                2304123  ao basis integrals from 
                  3841  buffers.
       7          -290.810908570070069              0.5023534592D+00
   current occupation vector 
     7  2
     6  2
  processed                1929855  ao basis integrals from 
                  3217  buffers.
  processed                1199165  ao basis integrals from 
                  1999  buffers.
  processed                2304123  ao basis integrals from 
                  3841  buffers.
       8          -290.815057407122254              0.3576128710D-01
   current occupation vector 
     7  2
     6  2
  processed                1929855  ao basis integrals from 
                  3217  buffers.
  processed                1199165  ao basis integrals from 
                  1999  buffers.
  processed                2304123  ao basis integrals from 
                  3841  buffers.
       9          -290.815917761762421              0.1041804421D-01
   current occupation vector 
     7  2
     6  2
 
 sum over diagonal and offdiagdiagonal of C(T)*S*C for irrep
                     1
  4.376499163072367E-013 -1.003649071856846E-013
 reorthoganalization of MOs is carried out
 sum over diagonal and offdiagdiagonal of C(T)*S*C for irrep
                     1
  7.216449660063518E-015  9.728925223012644E-014
 
 sum over diagonal and offdiagdiagonal of C(T)*S*C for irrep
                     2
  1.245670233629426E-013  5.410424517597796E-014
 reorthoganalization of MOs is carried out
 sum over diagonal and offdiagdiagonal of C(T)*S*C for irrep
                     2
 -1.110223024625157E-014 -1.606649582369873E-014
  processed                1929855  ao basis integrals from 
                  3217  buffers.
  processed                1199165  ao basis integrals from 
                  1999  buffers.
  processed                2304123  ao basis integrals from 
                  3841  buffers.
      10          -290.816154181278250              0.9941216554D-02
   current occupation vector 
     7  2
     6  2
  processed                1929855  ao basis integrals from 
                  3217  buffers.
  processed                1199165  ao basis integrals from 
                  1999  buffers.
  processed                2304123  ao basis integrals from 
                  3841  buffers.
      11          -290.816168115661185              0.9786121467D-03
   current occupation vector 
     7  2
     6  2
  processed                1929855  ao basis integrals from 
                  3217  buffers.
  processed                1199165  ao basis integrals from 
                  1999  buffers.
  processed                2304123  ao basis integrals from 
                  3841  buffers.
      12          -290.816170848827596              0.7131008017D-03
   current occupation vector 
     7  2
     6  2
  processed                1929855  ao basis integrals from 
                  3217  buffers.
  processed                1199165  ao basis integrals from 
                  1999  buffers.
  processed                2304123  ao basis integrals from 
                  3841  buffers.
      13          -290.816171486698124              0.2244121525D-03
   current occupation vector 
     7  2
     6  2
  processed                1929855  ao basis integrals from 
                  3217  buffers.
  processed                1199165  ao basis integrals from 
                  1999  buffers.
  processed                2304123  ao basis integrals from 
                  3841  buffers.
      14          -290.816171536043214              0.1111817683D-03
   current occupation vector 
     7  2
     6  2
 
 sum over diagonal and offdiagdiagonal of C(T)*S*C for irrep
                     1
  4.826139488045555E-013 -1.906554783001269E-013
 reorthoganalization of MOs is carried out
 sum over diagonal and offdiagdiagonal of C(T)*S*C for irrep
                     1
  1.543210004228968E-014 -1.218829672501909E-014
 
 sum over diagonal and offdiagdiagonal of C(T)*S*C for irrep
                     2
  7.016609515630989E-014  4.902634511263340E-014
 reorthoganalization of MOs is carried out
 sum over diagonal and offdiagdiagonal of C(T)*S*C for irrep
                     2
 -8.437694987151190E-015 -1.397594158869559E-015
  processed                1929855  ao basis integrals from 
                  3217  buffers.
  processed                1199165  ao basis integrals from 
                  1999  buffers.
  processed                2304123  ao basis integrals from 
                  3841  buffers.
      15          -290.816171539141351              0.1635725031D-04
   current occupation vector 
     7  2
     6  2
  processed                1929855  ao basis integrals from 
                  3217  buffers.
  processed                1199165  ao basis integrals from 
                  1999  buffers.
  processed                2304123  ao basis integrals from 
                  3841  buffers.
      16          -290.816171539226787              0.2268225555D-05
   current occupation vector 
     7  2
     6  2
  processed                1929855  ao basis integrals from 
                  3217  buffers.
  processed                1199165  ao basis integrals from 
                  1999  buffers.
  processed                2304123  ao basis integrals from 
                  3841  buffers.
      17          -290.816171539227696              0.6364605148D-06
   current occupation vector 
     7  2
     6  2
  processed                1929855  ao basis integrals from 
                  3217  buffers.
  processed                1199165  ao basis integrals from 
                  1999  buffers.
  processed                2304123  ao basis integrals from 
                  3841  buffers.
      18          -290.816171539227582              0.1345564890D-06
   current occupation vector 
     7  2
     6  2
  processed                1929855  ao basis integrals from 
                  3217  buffers.
  processed                1199165  ao basis integrals from 
                  1999  buffers.
  processed                2304123  ao basis integrals from 
                  3841  buffers.
      19          -290.816171539229231              0.2347140349D-07
   current occupation vector 
     7  2
     6  2
 
 sum over diagonal and offdiagdiagonal of C(T)*S*C for irrep
                     1
  4.390932062392494E-013 -1.468344139565037E-014
 reorthoganalization of MOs is carried out
 sum over diagonal and offdiagdiagonal of C(T)*S*C for irrep
                     1
  3.252953462151709E-014  4.118366423497430E-014
 
 sum over diagonal and offdiagdiagonal of C(T)*S*C for irrep
                     2
  2.597921877622866E-014  3.715679462807664E-014
 reorthoganalization of MOs is carried out
 sum over diagonal and offdiagdiagonal of C(T)*S*C for irrep
                     2
  8.437694987151190E-015  1.227395048335556E-014
  processed                1929855  ao basis integrals from 
                  3217  buffers.
  processed                1199165  ao basis integrals from 
                  1999  buffers.
  processed                2304123  ao basis integrals from 
                  3841  buffers.
      20          -290.816171539226616              0.3629968829D-08
   current occupation vector 
     7  2
     6  2
  processed                1929855  ao basis integrals from 
                  3217  buffers.
  processed                1199165  ao basis integrals from 
                  1999  buffers.
  processed                2304123  ao basis integrals from 
                  3841  buffers.
      21          -290.816171539228208              0.3754625499D-09
   current occupation vector 
     7  2
     6  2
  processed                1929855  ao basis integrals from 
                  3217  buffers.
  processed                1199165  ao basis integrals from 
                  1999  buffers.
  processed                2304123  ao basis integrals from 
                  3841  buffers.
      22          -290.816171539229231              0.1508003714D-09
   current occupation vector 
     7  2
     6  2
  processed                1929855  ao basis integrals from 
                  3217  buffers.
  processed                1199165  ao basis integrals from 
                  1999  buffers.
  processed                2304123  ao basis integrals from 
                  3841  buffers.
      23          -290.816171539229060              0.4465161574D-10
   current occupation vector 
     7  2
     6  2
  processed                1929855  ao basis integrals from 
                  3217  buffers.
  processed                1199165  ao basis integrals from 
                  1999  buffers.
  processed                2304123  ao basis integrals from 
                  3841  buffers.
      24          -290.816171539230311              0.1542249661D-10
   current occupation vector 
     7  2
     6  2
 
 sum over diagonal and offdiagdiagonal of C(T)*S*C for irrep
                     1
  3.196332087895826E-013  9.369567050864012E-014
 reorthoganalization of MOs is carried out
 sum over diagonal and offdiagdiagonal of C(T)*S*C for irrep
                     1
  2.398081733190338E-014 -2.267609381089958E-014
 
 sum over diagonal and offdiagdiagonal of C(T)*S*C for irrep
                     2
  1.203481758693670E-013  3.291188970112598E-014
 reorthoganalization of MOs is carried out
 sum over diagonal and offdiagdiagonal of C(T)*S*C for irrep
                     2
  4.662936703425657E-015  8.692798573323507E-016
  processed                1929855  ao basis integrals from 
                  3217  buffers.
  processed                1199165  ao basis integrals from 
                  1999  buffers.
  processed                2304123  ao basis integrals from 
                  3841  buffers.
      25          -290.816171539229913              0.2493115957D-11
   current occupation vector 
     7  2
     6  2

  SCF has converged.

 Density matrix saved to file den.dat
 total alpha spin electron number:   9.00000000000003     
 total  beta spin electron number:   8.00000000000000     
  processed                1929855  ao basis integrals from 
                  3217  buffers.
  processed                1199165  ao basis integrals from 
                  1999  buffers.
  processed                2304123  ao basis integrals from 
                  3841  buffers.
     E(ROHF)=      -290.816171539230311              0.7096406796D-12


       The average multiplicity is    2.0000000
  The expectation value of S**2 is    0.7500000

 @PUTMOS-I, Writing converged MOs to NEWMOS. 
 @PUTMOS-I, Symmetry   1 Full Blocks 15 Partial Blocksize   2
 @PUTMOS-I, Symmetry   2 Full Blocks  9 Partial Blocksize   0
  @DMPJOB-I, Rotating orbitals to semicanonical basis.
             *** Eigenvalues correspond to new basis. ***

--------------------------------------------------------------------------------
Eigenvalue    -69.083228     -6.434862     -4.546405     -4.537561     -4.537561
 Symmetry          A1            A1            A1             E             E    
--------------------------------------------------------------------------------
   1 S         0.9971348     0.2763876     0.0026496     0.0000000     0.0000000
   1 S        -0.0259589     0.3062430     0.0041275     0.0000000     0.0000000
   1 S        -0.0076358    -0.7517188    -0.0074857     0.0000000     0.0000000
   1 S         0.0050766    -0.0117408     0.0043075     0.0000000     0.0000000
   1 S         0.0018468     0.0037193     0.0014528     0.0000000     0.0000000
   1 PX        0.0000781    -0.0052272     0.7123665     0.0000000     0.0000000
   1 PY        0.0000000     0.0000000     0.0000000     0.0000000     0.7149004
   1 PZ        0.0000000     0.0000000     0.0000000     0.7149004     0.0000000
   1 PX       -0.0000505    -0.0044168     0.3532045     0.0000000     0.0000000
   1 PY        0.0000000     0.0000000     0.0000000     0.0000000     0.3517646
   1 PZ        0.0000000     0.0000000     0.0000000     0.3517646     0.0000000
   1 PX        0.0000395    -0.0011149     0.0648867     0.0000000     0.0000000
   1 PY        0.0000000     0.0000000     0.0000000     0.0000000     0.0627788
   1 PZ        0.0000000     0.0000000     0.0000000     0.0627788     0.0000000
   1 PX        0.0000052    -0.0008963    -0.0062071     0.0000000     0.0000000
   1 PY        0.0000000     0.0000000     0.0000000     0.0000000    -0.0090629
   1 PZ        0.0000000     0.0000000     0.0000000    -0.0090629     0.0000000
   1 PX        0.0000064    -0.0000705     0.0020507     0.0000000     0.0000000
   1 PY        0.0000000     0.0000000     0.0000000     0.0000000     0.0017098
   1 PZ        0.0000000     0.0000000     0.0000000     0.0017098     0.0000000
   1 DX2       0.0000047    -0.0001735     0.0002223     0.0000000     0.0000000
   1 DXY       0.0000000     0.0000000     0.0000000     0.0000000     0.0004455
   1 DXZ       0.0000000     0.0000000     0.0000000     0.0004455     0.0000000
   1 DY2      -0.0000023     0.0000868    -0.0001111     0.0000000    -0.0004459
   1 DYZ       0.0000000     0.0000000     0.0000000     0.0008919     0.0000000
   1 DZZ      -0.0000023     0.0000868    -0.0001111     0.0000000     0.0004459
   1 DX2      -0.0000022    -0.0006789     0.0010498     0.0000000     0.0000000
   1 DXY       0.0000000     0.0000000     0.0000000     0.0000000     0.0021428
   1 DXZ       0.0000000     0.0000000     0.0000000     0.0021428     0.0000000
   1 DY2       0.0000011     0.0003394    -0.0005249     0.0000000    -0.0002668
   1 DYZ       0.0000000     0.0000000     0.0000000     0.0005336     0.0000000
   1 DZZ       0.0000011     0.0003394    -0.0005249     0.0000000     0.0002668
   1 DX2       0.0000117    -0.0004827     0.0015996     0.0000000     0.0000000
   1 DXY       0.0000000     0.0000000     0.0000000     0.0000000     0.0008669
   1 DXZ       0.0000000     0.0000000     0.0000000     0.0008669     0.0000000
   1 DY2      -0.0000059     0.0002414    -0.0007998     0.0000000     0.0001425
   1 DYZ       0.0000000     0.0000000     0.0000000    -0.0002850     0.0000000
   1 DZZ      -0.0000059     0.0002414    -0.0007998     0.0000000    -0.0001425
   1 FX3       0.0002439    -0.0001936     0.0004245     0.0000000     0.0000000
   1 FX2Y      0.0000000     0.0000000     0.0000000     0.0000000     0.0003217
   1 FX2Z      0.0000000     0.0000000     0.0000000     0.0003217     0.0000000
   1 FXY2     -0.0003658     0.0002904    -0.0006367     0.0000000     0.0000785
   1 FXYZ      0.0000000     0.0000000     0.0000000    -0.0001570     0.0000000
   1 FXZ2     -0.0003658     0.0002904    -0.0006367     0.0000000    -0.0000785
   1 FY3       0.0001705    -0.0000558     0.0000197     0.0000000    -0.0000804
   1 FY2Z      0.0000000     0.0000000     0.0000000    -0.0000804     0.0000000
   1 FYZ2     -0.0005114     0.0001673    -0.0000590     0.0000000    -0.0000804
   1 FZ3       0.0000000     0.0000000     0.0000000    -0.0000804     0.0000000
   2 S         0.0001566    -0.0004385     0.0010752     0.0000000     0.0000000
   2 S        -0.0017491     0.0012977    -0.0011036     0.0000000     0.0000000
   2 S        -0.0004034    -0.0006287    -0.0008278     0.0000000     0.0000000
   2 PX        0.0000041     0.0001305     0.0001201     0.0000000     0.0000000
   2 PY        0.0000000     0.0000000     0.0000000     0.0000000    -0.0000253
   2 PZ        0.0000000     0.0000000     0.0000000    -0.0000253     0.0000000
   2 PX        0.0011040    -0.0006852     0.0015813     0.0000000     0.0000000
   2 PY        0.0000000     0.0000000     0.0000000     0.0000000    -0.0000017
   2 PZ        0.0000000     0.0000000     0.0000000    -0.0000017     0.0000000
   2 DX2      -0.0001260    -0.0000795    -0.0000140     0.0000000     0.0000000
   2 DXY       0.0000000     0.0000000     0.0000000     0.0000000     0.0001478
   2 DXZ       0.0000000     0.0000000     0.0000000     0.0001478     0.0000000
   2 DY2       0.0000630     0.0000397     0.0000070     0.0000000     0.0000091
   2 DYZ       0.0000000     0.0000000     0.0000000    -0.0000183     0.0000000
   2 DZZ       0.0000630     0.0000397     0.0000070     0.0000000    -0.0000091
   3 S         0.0001530    -0.0002798    -0.0002497    -0.0005750    -0.0003320
   3 S        -0.0017150     0.0001014    -0.0011562    -0.0025365    -0.0014644
   3 S        -0.0003952    -0.0007710    -0.0000568     0.0000276     0.0000159
   3 PX       -0.0000007    -0.0000703    -0.0000063    -0.0000097    -0.0000056
   3 PY       -0.0000010    -0.0000909     0.0000042    -0.0000117    -0.0000071
   3 PZ       -0.0000017    -0.0001574     0.0000072    -0.0000206    -0.0000117
   3 PX       -0.0003594    -0.0000925     0.0003941    -0.0003265    -0.0001885
   3 PY       -0.0005104     0.0000055    -0.0002436    -0.0003025     0.0001046
   3 PZ       -0.0008840     0.0000096    -0.0004219    -0.0002447    -0.0003025
   3 DX2       0.0000406     0.0000267     0.0000432     0.0000310     0.0000179
   3 DXY      -0.0000571    -0.0000784     0.0000053    -0.0000108    -0.0000177
   3 DXZ      -0.0000990    -0.0001359     0.0000092    -0.0000302    -0.0000108
   3 DY2       0.0000201     0.0000282    -0.0000194     0.0000076    -0.0000138
   3 DYZ      -0.0001401    -0.0001440    -0.0000078    -0.0000439    -0.0000463
   3 DZZ      -0.0000607    -0.0000549    -0.0000239    -0.0000387    -0.0000042
   4 S         0.0001530    -0.0002798    -0.0002497     0.0000000     0.0006640
   4 S        -0.0017150     0.0001014    -0.0011562     0.0000000     0.0029289
   4 S        -0.0003952    -0.0007710    -0.0000568     0.0000000    -0.0000318
   4 PX       -0.0000007    -0.0000703    -0.0000063     0.0000000     0.0000113
   4 PY        0.0000019     0.0001817    -0.0000083     0.0000000    -0.0000273
   4 PZ        0.0000000     0.0000000     0.0000000    -0.0000003     0.0000000
   4 PX       -0.0003594    -0.0000925     0.0003941     0.0000000     0.0003770
   4 PY        0.0010207    -0.0000111     0.0004872     0.0000000    -0.0004194
   4 PZ        0.0000000     0.0000000     0.0000000     0.0002792     0.0000000
   4 DX2       0.0000406     0.0000267     0.0000432     0.0000000    -0.0000359
   4 DXY       0.0001143     0.0001569    -0.0000107     0.0000000    -0.0000364
   4 DXZ       0.0000000     0.0000000     0.0000000    -0.0000114     0.0000000
   4 DY2      -0.0001012    -0.0000965    -0.0000261     0.0000000     0.0000533
   4 DYZ       0.0000000     0.0000000     0.0000000     0.0000363     0.0000000
   4 DZZ       0.0000606     0.0000697    -0.0000171     0.0000000    -0.0000174
   5 S         0.0001530    -0.0002798    -0.0002497     0.0005750    -0.0003320
   5 S        -0.0017150     0.0001014    -0.0011562     0.0025365    -0.0014644
   5 S        -0.0003952    -0.0007710    -0.0000568    -0.0000276     0.0000159
   5 PX       -0.0000007    -0.0000703    -0.0000063     0.0000097    -0.0000056
   5 PY       -0.0000010    -0.0000909     0.0000042     0.0000117    -0.0000071
   5 PZ        0.0000017     0.0001574    -0.0000072    -0.0000206     0.0000117
   5 PX       -0.0003594    -0.0000925     0.0003941     0.0003265    -0.0001885
   5 PY       -0.0005104     0.0000055    -0.0002436     0.0003025     0.0001046
   5 PZ        0.0008840    -0.0000096     0.0004219    -0.0002447     0.0003025
   5 DX2       0.0000406     0.0000267     0.0000432    -0.0000310     0.0000179
   5 DXY      -0.0000571    -0.0000784     0.0000053     0.0000108    -0.0000177
   5 DXZ       0.0000990     0.0001359    -0.0000092    -0.0000302     0.0000108
   5 DY2       0.0000201     0.0000282    -0.0000194    -0.0000076    -0.0000138
   5 DYZ       0.0001401     0.0001440     0.0000078    -0.0000439     0.0000463
   5 DZZ      -0.0000607    -0.0000549    -0.0000239     0.0000387    -0.0000042
--------------------------------------------------------------------------------
Eigenvalue     -1.106044     -0.880499     -0.750001     -0.750001     -0.104253
 Symmetry          A1            A1             E             E            A1    
--------------------------------------------------------------------------------
   1 S         0.0501704    -0.0346705     0.0000000     0.0000000     0.0194478
   1 S         0.0611655    -0.0421708     0.0000000     0.0000000     0.0226132
   1 S        -0.2795040     0.2000957     0.0000000     0.0000000    -0.1218819
   1 S         0.4449949    -0.3423187     0.0000000     0.0000000     0.1915522
   1 S         0.1313752    -0.1839540     0.0000000     0.0000000     1.0810702
   1 PX       -0.0552718    -0.0920329     0.0000000     0.0000000    -0.0954043
   1 PY        0.0000000     0.0000000     0.0000000     0.1301918     0.0000000
   1 PZ        0.0000000     0.0000000     0.1301918     0.0000000     0.0000000
   1 PX       -0.0337679    -0.0538250     0.0000000     0.0000000    -0.0518640
   1 PY        0.0000000     0.0000000     0.0000000     0.0737337     0.0000000
   1 PZ        0.0000000     0.0000000     0.0737337     0.0000000     0.0000000
   1 PX        0.0574821     0.0951000     0.0000000     0.0000000     0.0814515
   1 PY        0.0000000     0.0000000     0.0000000    -0.1308245     0.0000000
   1 PZ        0.0000000     0.0000000    -0.1308245     0.0000000     0.0000000
[...]
        T2        BB    0.0000000000 0.0000000001    3    1   60    4
        T2        AB    0.0000000000-0.0000000004    1    3   60    4
    -------------------------------------------------------------------
   The AA contribution to the correlation energy is:   -0.0087496 a.u.
   The BB contribution to the correlation energy is:   -0.0060581 a.u.
   The AB contribution to the correlation energy is:   -0.1306747 a.u.
   The total correlation energy is -0.145482454241 a.u.
   The total correlation energy is -0.145482454241 a.u.
  Current DIIS expansion coefficients : 
 [   1]-0.0046104887 [   2] 0.0506852011 [   3]-0.1840201435 [   4]-0.1755993101
 [   5] 1.3135447412
  Convergence information after    20 iterations: 
  Largest element of residual vector : -0.10096889E-08.
  Largest element of DIIS residual   : -0.35267366E-09.
   Largest T1 amplitudes for spin case AA:
   i       a                 i       a                 i       a    
-----------------------------------------------------------------------------
[  2       5    ] 0.03578 [  2      11    ] 0.01766 [  2       7    ]-0.01693
[  2      12    ] 0.01141 [  4      62    ] 0.00942 [  3      10    ] 0.00942
[  2      18    ] 0.00786 [  4      65    ]-0.00736 [  3      17    ]-0.00736
[  3       6    ] 0.00706 [  4      60    ] 0.00706 [  1       7    ] 0.00683
[  1      11    ]-0.00440 [  1       5    ]-0.00403 [  3      16    ]-0.00371
-----------------------------------------------------------------------------
   Norm of T1AA vector (      199 symmetry allowed elements):  0.0522350752.
-----------------------------------------------------------------------------
   Largest T2 amplitudes for spin case AA:
   i   j   a   b             i   j   a   b             i   j   a   b
-----------------------------------------------------------------------------
[  4   3  61   6]-0.01361 [  4   3  60   9]-0.01361 [  3   2   6   5] 0.00997
[  4   2  60   5] 0.00997 [  4   2  61   5] 0.00885 [  3   2   9   5] 0.00885
[  4   3  60   6] 0.00814 [  4   2  62   8] 0.00716 [  3   2  10   8] 0.00716
[  4   3  60  10] 0.00709 [  4   3  62   6] 0.00709 [  4   3  61  13]-0.00683
[  4   3  63   9]-0.00683 [  4   3  60  13] 0.00589 [  4   3  63   6] 0.00589
-----------------------------------------------------------------------------
   Norm of T2AA vector (    11748 symmetry allowed elements):  0.0652609900.
-----------------------------------------------------------------------------
   Largest T1 amplitudes for spin case BB:
   i       a                 i       a                 i       a    
-----------------------------------------------------------------------------
[  1       4    ] 0.10815 [  2       5    ] 0.01565 [  3      60    ] 0.01565
[  1       7    ] 0.00947 [  1      13    ] 0.00820 [  1      14    ] 0.00783
[  1       6    ] 0.00753 [  2      12    ] 0.00635 [  3      63    ] 0.00635
[  1      11    ] 0.00605 [  2       9    ] 0.00595 [  3      61    ] 0.00595
[  1       8    ]-0.00526 [  1      24    ] 0.00512 [  1      15    ]-0.00423
-----------------------------------------------------------------------------
   Norm of T1BB vector (      146 symmetry allowed elements):  0.1131558352.
-----------------------------------------------------------------------------
   Largest T2 amplitudes for spin case BB:
   i   j   a   b             i   j   a   b             i   j   a   b
-----------------------------------------------------------------------------
[  3   2  60  10] 0.01633 [  3   2  62   5] 0.01633 [  3   1  60   4]-0.01389
[  2   1   5   4]-0.01389 [  2   1  10   4] 0.01363 [  3   1  62   4] 0.01363
[  3   2  60   5] 0.01088 [  3   2  62  12] 0.00929 [  3   2  63  10] 0.00929
[  3   2  61   9]-0.00888 [  3   1  61   7]-0.00783 [  2   1   9   7]-0.00783
[  2   1   9   4]-0.00770 [  3   1  61   4]-0.00770 [  3   2  60  12] 0.00611
-----------------------------------------------------------------------------
   Norm of T2BB vector (     5909 symmetry allowed elements):  0.0572185931.
-----------------------------------------------------------------------------
   Largest T2 amplitudes for spin case AB:
       _       _                 _       _                 _       _
   i   j   a   b             i   j   a   b             i   j   a   b
-----------------------------------------------------------------------------
[  2   1   5   4] 0.04822 [  4   3  60  60]-0.03390 [  3   2   6   5]-0.03390
[  2   1  11   4] 0.02970 [  4   1  60   4]-0.02645 [  3   1   6   4]-0.02645
[  4   2  60   4]-0.02488 [  3   3  60   4]-0.02488 [  4   3   6   4]-0.02488
[  3   2   6   4] 0.02488 [  3   1   9   4]-0.02272 [  4   1  61   4]-0.02272
[  4   3  11   4]-0.02231 [  3   2  11   4]-0.02231 [  4   3  61  62] 0.01855
-----------------------------------------------------------------------------
   Norm of T2AB vector (    48522 symmetry allowed elements):  0.2816186783.
-----------------------------------------------------------------------------
  W(mnij) AA contribution =  0.0011531656 a.u.
  W(mnij) BB contribution =  0.0008565761 a.u.
  W(mnij) AB contribution =  0.0383340984 a.u.
  W(abef) AA contribution =  0.0017206661 a.u.
  W(abef) BB contribution =  0.0012597629 a.u.
  W(abef) AB contribution =  0.0546102314 a.u.
  W(mbej) AA contribution =  -0.0043406504 a.u.
  W(mbej) BB contribution =  -0.0031793629 a.u.
  W(mbej) AB contribution = -0.1405439313 a.u.
   After  21 iterations, amplitude changes are:
    -------------------------------------------------------------------
                 Spin      RMS          Max.      Max. change for
     Amplitude   Case     Change       Change       i    j    a    b
    -------------------------------------------------------------------
        T1        AA    0.0000000000-0.0000000001    1         8
        T1        BB    0.0000000000-0.0000000002    1         4
        T2        AA    0.0000000000 0.0000000000    4    3   61    6
        T2        BB    0.0000000000 0.0000000000    2    1   10    4
        T2        AB    0.0000000000-0.0000000002    1    3   60    4
    -------------------------------------------------------------------
   The AA contribution to the correlation energy is:   -0.0087496 a.u.
   The BB contribution to the correlation energy is:   -0.0060581 a.u.
   The AB contribution to the correlation energy is:   -0.1306747 a.u.
   The total correlation energy is -0.145482454182 a.u.
   The total correlation energy is -0.145482454182 a.u.
  Current DIIS expansion coefficients : 
 [   1] 1.4160504184 [   2]-0.0048649003 [   3] 0.0599957889 [   4]-0.0642916721
 [   5]-0.4068896349
  Convergence information after    21 iterations: 
  Largest element of residual vector : -0.21282373E-09.
  Largest element of DIIS residual   : -0.92069920E-10.
  Amplitude equations converged in    21iterations.
   The AA contribution to the correlation energy is:   -0.0087496 a.u.
   The BB contribution to the correlation energy is:   -0.0060581 a.u.
   The AB contribution to the correlation energy is:   -0.1306747 a.u.
   The total correlation energy is -0.145482454171 a.u.
   The total correlation energy is -0.145482454171 a.u.
   The CC iterations have converged.

            ----------------------------------------------
                     Projected spin multiplicities: 
            ----------------------------------------------
             <0|S^2|0>                  =    0.7500000000.
             <0|S^2 (T2+T1**2) |0>      =    0.0000000000.
             <0|S^2 T1|0>               =    0.0000003109.
             Projected <0|S^2 exp(T)|0> =    0.7500003109.
             Approximate spin mult.     =    2.0000003109.
            ----------------------------------------------
   Largest T1 amplitudes for spin case AA:
   i       a                 i       a                 i       a    
-----------------------------------------------------------------------------
[  2       5    ] 0.03578 [  2      11    ] 0.01766 [  2       7    ]-0.01693
[  2      12    ] 0.01141 [  4      62    ] 0.00942 [  3      10    ] 0.00942
[  2      18    ] 0.00786 [  4      65    ]-0.00736 [  3      17    ]-0.00736
[  3       6    ] 0.00706 [  4      60    ] 0.00706 [  1       7    ] 0.00683
[  1      11    ]-0.00440 [  1       5    ]-0.00403 [  3      16    ]-0.00371
-----------------------------------------------------------------------------
   Norm of T1AA vector (      199 symmetry allowed elements):  0.0522350752.
-----------------------------------------------------------------------------
   Largest T2 amplitudes for spin case AA:
   i   j   a   b             i   j   a   b             i   j   a   b
-----------------------------------------------------------------------------
[  4   3  61   6]-0.01361 [  4   3  60   9]-0.01361 [  3   2   6   5] 0.00997
[  4   2  60   5] 0.00997 [  4   2  61   5] 0.00885 [  3   2   9   5] 0.00885
[  4   3  60   6] 0.00814 [  4   2  62   8] 0.00716 [  3   2  10   8] 0.00716
[  4   3  60  10] 0.00709 [  4   3  62   6] 0.00709 [  4   3  61  13]-0.00683
[  4   3  63   9]-0.00683 [  4   3  60  13] 0.00589 [  4   3  63   6] 0.00589
-----------------------------------------------------------------------------
   Norm of T2AA vector (    11748 symmetry allowed elements):  0.0652609900.
-----------------------------------------------------------------------------
   Largest T1 amplitudes for spin case BB:
   i       a                 i       a                 i       a    
-----------------------------------------------------------------------------
[  1       4    ] 0.10815 [  2       5    ] 0.01565 [  3      60    ] 0.01565
[  1       7    ] 0.00947 [  1      13    ] 0.00820 [  1      14    ] 0.00783
[  1       6    ] 0.00753 [  2      12    ] 0.00635 [  3      63    ] 0.00635
[  1      11    ] 0.00605 [  2       9    ] 0.00595 [  3      61    ] 0.00595
[  1       8    ]-0.00526 [  1      24    ] 0.00512 [  1      15    ]-0.00423
-----------------------------------------------------------------------------
   Norm of T1BB vector (      146 symmetry allowed elements):  0.1131558345.
-----------------------------------------------------------------------------
   Largest T2 amplitudes for spin case BB:
   i   j   a   b             i   j   a   b             i   j   a   b
-----------------------------------------------------------------------------
[  3   2  60  10] 0.01633 [  3   2  62   5] 0.01633 [  3   1  60   4]-0.01389
[  2   1   5   4]-0.01389 [  2   1  10   4] 0.01363 [  3   1  62   4] 0.01363
[  3   2  60   5] 0.01088 [  3   2  62  12] 0.00929 [  3   2  63  10] 0.00929
[  3   2  61   9]-0.00888 [  3   1  61   7]-0.00783 [  2   1   9   7]-0.00783
[  2   1   9   4]-0.00770 [  3   1  61   4]-0.00770 [  3   2  60  12] 0.00611
-----------------------------------------------------------------------------
   Norm of T2BB vector (     5909 symmetry allowed elements):  0.0572185930.
-----------------------------------------------------------------------------
   Largest T2 amplitudes for spin case AB:
       _       _                 _       _                 _       _
   i   j   a   b             i   j   a   b             i   j   a   b
-----------------------------------------------------------------------------
[  2   1   5   4] 0.04822 [  4   3  60  60]-0.03390 [  3   2   6   5]-0.03390
[  2   1  11   4] 0.02970 [  4   1  60   4]-0.02645 [  3   1   6   4]-0.02645
[  4   2  60   4]-0.02488 [  3   3  60   4]-0.02488 [  4   3   6   4]-0.02488
[  3   2   6   4] 0.02488 [  3   1   9   4]-0.02272 [  4   1  61   4]-0.02272
[  4   3  11   4]-0.02231 [  3   2  11   4]-0.02231 [  4   3  61  62] 0.01855
-----------------------------------------------------------------------------
   Norm of T2AB vector (    48522 symmetry allowed elements):  0.2816186782.
-----------------------------------------------------------------------------
       Summary of iterative solution of CC equations 
      -----------------------------------------------------------
                       Correlation           Total
       Iteration         Energy              Energy
      -----------------------------------------------------------
            0        -0.116393312035    -290.932564851266  DIIS 
            1        -0.135311741094    -290.951483280324  DIIS 
            2        -0.141033917576    -290.957205456806  DIIS 
            3        -0.144302800600    -290.960474339831  DIIS 
            4        -0.145154431829    -290.961325971059  DIIS 
            5        -0.145374676925    -290.961546216155  DIIS 
            6        -0.145458877228    -290.961630416458  DIIS 
            7        -0.145472905090    -290.961644444320  DIIS 
            8        -0.145481127180    -290.961652666410  DIIS 
            9        -0.145483467508    -290.961655006739  DIIS 
           10        -0.145483512066    -290.961655051296  DIIS 
           11        -0.145483039667    -290.961654578897  DIIS 
           12        -0.145482746277    -290.961654285507  DIIS 
           13        -0.145482575976    -290.961654115207  DIIS 
           14        -0.145482489716    -290.961654028946  DIIS 
           15        -0.145482464433    -290.961654003663  DIIS 
           16        -0.145482459350    -290.961653998580  DIIS 
           17        -0.145482455502    -290.961653994732  DIIS 
           18        -0.145482454671    -290.961653993901  DIIS 
           19        -0.145482454343    -290.961653993574  DIIS 
           20        -0.145482454241    -290.961653993471  DIIS 
           21        -0.145482454171    -290.961653993401  DIIS 
      -----------------------------------------------------------
      A miracle has come to pass. The CC iterations have converged.
 @DIMT3-I, Dimensions of T3 amplitudes : 
               # abc          # ijk       Symmetry    Spin 
                    57090              1     1          1
                    56474              3     2          1
                   178156              9     1          2
                   174284              9     2          2
                   180291              5     1          3
                   176154              7     2          3
                    59136              0     1          4
                    58344              1     2          4
 @DIMT3-I, Dimensions of T3 amplitudes : 
               # abc          # ijk       Symmetry    Spin 
                    57090              1     1          1
                    56474              3     2          1
                   178156              9     1          2
                   174284              9     2          2
                   180291              5     1          3
                   176154              7     2          3
                    59136              0     1          4
                    58344              1     2          4
 @TRPS-I, Welcome to TRPS. Watch your RUs ! 
 @TRPS-I, Method is CCSD(T) 
 @TRPS-I, Calculation type is energy 
 @TRPS-I, Reference function information : 
          Reference function is general non-HF 
 @TRPS-I, Reference function is ROHF 
 @TRPS-I, INT1 is true 
 @TRPS-I, INT2 is false 
 @TRPS-I, Lengths of ijka integrals. #1       1068
                                     #2        394
                                     #3       1623
                                     #4       2204
                                    Max       2204
 @INITRP-I, Initializing W intermediate lists. 
 @TSPABCI-I, AbIc/AbcI record transposition. 
 @TSPABCI-I, (O,v) ---> (v,O) transposition. 
 @TSPABCI-I, In-core algorithm is being used. 
 @TSPABCI-I, In-core algorithm is being used. 
 @TRPS-I, Available memory in integer words    499959040
          Number of pre-allocated words for TRPS14         6775
          Number of free words for TRPS14    499952265
 @TRPS14-I, Spin case AAA 
 @TRPS14-I, Number of free integer words  499952265
            Number of free double words   499952265
            Ratio                                 1
 @TRPS14-I, E4TAAA      -0.000042596116
 @TRPS14-I, E5ST A    0.000000781679566
 @TRPS14-I, E4ST A    0.000000308712622
 @TRPS-I, Available memory in integer words    499959040
          Number of pre-allocated words for TRPS14         6772
          Number of free words for TRPS14    499952268
 @TRPS14-I, Spin case BBB 
 @TRPS14-I, Number of free integer words  499952268
            Number of free double words   499952268
            Ratio                                 1
 @TRPS14-I, E4TBBB      -0.000022839842
 @TRPS14-I, E5ST B    0.000004620683279
 @TRPS14-I, E4ST B    0.000000060564796
 @SETOOOV-I, Some OOOV lists are being transposed. 
 @TRPS-I, Available memory in integer words    499959040
          Number of pre-allocated words for TRPS2        81597
          Number of free words for TRPS2    499877443
 @TRPS2-I, Spin case AAB 
 @TRPS2-I, Number of free integer words  499877443
           Number of free double  words  499877443
           Ratio                                 1
 @TRPS2-I, E4TBAA      -0.002281493752
 @TRPS2-I, E5ST A   -0.000014643843309
 @TRPS2-I, E5ST B    0.000073668208008
 @TRPS2-I, E4ST A   -0.000009691033130
 @TRPS2-I, E4ST B    0.000003269686355
 @SETOOOV-I, Some OOOV lists are being transposed. 
 @TSPABCI2-I, (Alpha,Beta) ---> (Beta,Alpha). 
 @TSPABCI2-I, In-core algorithm is being used. 
 @TSPABCI2-I, In-core algorithm is being used. 
 @TSPABCI2-I, In-core algorithm is being used. 
 @TSPABCI2-I, In-core algorithm is being used. 
 @AT2IAB-I, Some AbIj lists are being altered. 
 @TRPS-I, Available memory in integer words    499959040
          Number of pre-allocated words for TRPS3       108481
          Number of free words for TRPS3    499850559
 @TRPS3-I, Spin case BBA 
 @TRPS3-I, Number of free integer words  499850559
           Number of free double  words  499850559
           Ratio                                 1
 @TRPS3-I, E4TBBA      -0.001574191587
 @TRPS3-I, E5ST A   -0.000012311186203
 @TRPS3-I, E5ST B    0.000185971475905
 @TRPS3-I, E4ST A   -0.000013495819854
 @TRPS3-I, E4ST B    0.000012245703580
 @TSPABCI2-I, (Beta,Alpha) ---> (Alpha,Beta). 
 @TSPABCI2-I, In-core algorithm is being used. 
 @TSPABCI2-I, In-core algorithm is being used. 
 @TSPABCI2-I, In-core algorithm is being used. 
 @TSPABCI2-I, In-core algorithm is being used. 
 @AT2IAB-I, Some AbIj lists are being altered. 
 @TSPABCI-I, AbIc/AbcI record transposition. 
 @TSPABCI-I, (v,O) ---> (O,v) transposition. 
 @TSPABCI-I, In-core algorithm is being used. 
 @TSPABCI-I, In-core algorithm is being used. 
 @CCENRG-I, CCSD/QCISD energy will now be evaluated. 
 @CCENRG-I, Correlation energies. ECCAA       -0.008749571492
                                  ECCBB       -0.006058139835
                                  ECCAB       -0.130674742844
                                  Total       -0.145482454171
 @CCENRG-I, Reference   energy    -290.816171539230
            CCSD/QCISD energy     -290.961653993401
          E4T (T(CCSD)) = -0.003921121297
          E5ST          =  0.000173660290
          E4ST          = -0.000001250116
          In other words  
          <T3[2](Dagger) D3  T3[2]> = -0.003921121297
          <T1   (Dagger) Q1 WT3[2]> =  0.000173660290
          <T2   (Dagger) Q2 FT3[2]> = -0.000001250116
        E(CCSD)           =    -290.961653993401
        E(CCSD(T))        =    -290.965402704525
  @CHECKOUT-I, Total execution time (CPU/WALL):       51.23/      58.67 seconds.
--executable xvcc finished with status     0 in       59.45 seconds (walltime).
  The final electronic energy is      -290.965402704524877 a.u. 
  This computation required                          175.42 seconds (walltime).
--- SharcNET Job Epilogue ---
Job completed successfully.
               jobid: 1968171
               resid: 3436350
         exit status: 0
      allocated time: 177.47
           user time: 89.82
         system time: 13.04
peak rss=970862592; peak vsz=970862592 (bytes)
atime=177.47; utime=89.82; stime=13.04; exit=0
