 --invoking executable--
/project1/nike/cfour_v2.00beta_May2019xnmol_noLABBASIS/bin/xjoda


   *************************************************************************
         <<<     CCCCCC     CCCCCC   |||     CCCCCC     CCCCCC   >>>
       <<<      CCC        CCC       |||    CCC        CCC         >>>
      <<<      CCC        CCC        |||   CCC        CCC            >>>
    <<<        CCC        CCC        |||   CCC        CCC              >>>
      <<<      CCC        CCC        |||   CCC        CCC            >>>
       <<<      CCC        CCC       |||    CCC        CCC         >>>
         <<<     CCCCCC     CCCCCC   |||     CCCCCC     CCCCCC   >>>
   *************************************************************************

     ****************************************************************
     * CFOUR Coupled-Cluster techniques for Computational Chemistry *
     ****************************************************************
 

   Department of Chemistry                Institut fuer Physikalische Chemie
   University of Texas at Austin          Universitaet Mainz
   Austin, TX  78712, USA                 D-55099 Mainz, Germany
 
                       Version 2.00beta
 
                     wob144                                            
                     Tue Mar 10 00:31:01 EDT 2020                      
                     integer*8 version is running
 
********************************************************************************
*                          Input from ZMAT file                                *
********************************************************************************
TITLE                                                                           
Mg                                                                              
F 1 R1                                                                          
X 1 D 2 A90                                                                     
F 1 R2 3 A90 2 D180                                                             
                                                                                
R1=3.34481524059                                                                
R2=3.34481524059                                                                
D=1                                                                             
A90=90                                                                          
D180=180                                                                        
A=180.0                                                                         
                                                                                
*ACES2(CALC=CCSD(T)                                                             
UNITS=BOHR                                                                      
#GEOM=1.770*10/5.29177210903                                                    
#COORD=CARTESIAN                                                                
COORD=INTERNAL                                                                  
PRINT=4                                                                         
JODA_PRINT=4                                                                    
INPUT_MRCC=OFF                                                                  
#CC_PROG=MRCC                                                                   
#FROZEN_CORE=ON                                                                 
DROPMO=1>4                                                                      
CONTRACTION=GENERAL                                                             
#CONTRACTION=SEGMENTED                                                          
RELATIVISTIC=OFF                                                                
#EXCITE=EOMEE                                                                   
#ESTATE_CONV=5                                                                  
#ESTATE_SYM=2/2/2/2/2/2/2/2                                                     
XFORM_TOL=18                                                                    
SAVE_INTS=ON                                                                    
SCF_EXPORDER=6                                                                  
SCF_EXPSTART=5                                                                  
#SCF_DAMPING=1000                                                               
SCF_EXTRAPOLATION=ON                                                            
SCF_CONV=12                                                                     
SCF_MAXCYC=99999                                                                
CC_CONV=9                                                                       
CC_MAXCYC=999                                                                   
T3_EXTRAPOL=ON                                                                  
REFERENCE=ROHF                                                                  
CHARGE=+1                                                                       
MULT=2                                                                          
ABCDTYPE=STANDARD                                                               
#OCCUPATION=5-2-2-0-4-1-1-0                                                     
#OCCUPATION=3-2-2-0-1-0-0-0/3-1-1-0-1-0-0-0                                     
MEM=4                                                                           
MEM_UNIT=GB                                                                     
BASIS=SPECIAL)                                                                  
                                                                                
MG:def2-TZVPP                                                                   
F:def2-TZVPP                                                                    
F:def2-TZVPP                                                                    
                                                                                
********************************************************************************
  @GTFLGS-W, Keyword #GEOM not known and is ignored.
  @GTFLGS-W, Keyword #COORD not known and is ignored.
  @GTFLGS-W, Keyword #CC_PROG not known and is ignored.
  @GTFLGS-W, Keyword #FROZEN_CORE not known and is ignored.
  @GTFLGS-W, Keyword #CONTRACTION not known and is ignored.
  @GTFLGS-W, Keyword #EXCITE not known and is ignored.
  @GTFLGS-W, Keyword #ESTATE_CONV not known and is ignored.
  @GTFLGS-W, Keyword #ESTATE_SYM not known and is ignored.
  @GTFLGS-W, Keyword #SCF_DAMPING not known and is ignored.
  @GTFLGS-W, Keyword #OCCUPATION not known and is ignored.
  @GTFLGS-W, Keyword #OCCUPATION not known and is ignored.
    -------------------------------------------------------------------
                    CFOUR Control Parameters 
    -------------------------------------------------------------------
        External           Internal           Value            Units
          Name               Name
    -------------------------------------------------------------------
       ABCDTYPE             IABCDT         STANDARD     [  0]   ***   
       ANHARMONIC           IANHAR         OFF          [  0]   ***   
       ANH_ALGORIT          IANALG         STANDARD     [  0]   ***   
       ANH_DERIVAT          IANDER         SECOND       [  1]   ***   
       ANH_STEPSIZ          ICUBST             50000          x 10-6  
       ANH_SYMMETR          IANHSM         ABELIAN      [  0]   ***   
       AO_LADDERS           IAOLAD         SINGLEPASS   [  1]   ***   
       BASIS                IBASIS         SPECIAL      [  0]   ***   
       BREIT                IBREIT         OFF          [  0]   ***   
       BRUCK_CONV           IBRTOL          10D-  4             ***   
       BRUECKNER            IBRKNR             OFF      [  0]   ***   
       BUFFERSIZE           IBUFFS            600               ***   
       CACHE_RECS           ICHREC             10               ***   
       CALCLEVEL            ICLLVL           CCSD(T)    [ 22]   ***   
       CCORBOPT             ICCORB             OFF      [  0] x 0.01  
       CC_CONV              ICCCNV          10D-  9             ***   
       CC_EXPORDER          ICCEOR              5               ***   
       CC_EXTRAPOL          ICCEXT             DIIS     [  1]   ***   
       CC_MAXCYC            ICCCYC            999              cycles 
       CC_PROGRAM           ICCPRO         VCC          [  0]   ***   
       CHARGE               ICHRGE              1               ***   
       CHOLESKY             ICHOLE         OFF          [  0]   ***   
       CIS_CONV             ICISTL              5               ***   
       COMM_SIZE            IPSIZE            ***               ***   
       CONSTANT             ICONST         OLD          [  1]   ***   
       CONTINUUM            ICONTU         NONE         [  0]   ***   
       CONTRACTION          ICNTYP          GENERAL     [  1]   ***   
       COORDINATES          ICOORD         INTERNAL     [  0]   ***   
       CPHF_CONVER          ICPHFT          10D- 16             ***   
       CPHF_MAXCYC          ICPHFC             64              cycles 
       CUBIC                ICUBIC         OFF          [  0]   ***   
       CURVILINEAR          ICURVY            OFF       [  0]   ***   
       DBOC                 IDBOC          OFF          [  0]   ***   
       DCT                  IDCT           OFF          [  0]   ***   
       DERIV_LEV            IDRLVL            ZERO      [  0]   ***   
       DIAG_MRCC            IEOMST          10D-  0             ***   
       DIFF_TYPE            IDIFTY         RELAXED      [  0]   ***   
       DIRECT               IDIRCT         OFF          [  0]   ***   
       DROPMO               IDRPMO A   1,  2,  3,  4,
                                   B   1,  2,  3,  4,
       ECP                  IECP           OFF          [  0]   ***   
       EIGENVECTOR          IVEC                1               ***   
       EL_ANHARM            IELANH         OFF          [  0]   ***   
       EOMFOLLOW            IEOMSR         ENERGY       [  0]   ***   
       EOM_MRCC             IMRCCE         NEW          [  1]   ***   
       EOM_NONIT            EOMNON         OFF          [  0]   ***   
       EOM_NSING            IEOMSI          10D-  0             ***   
       EOM_NSTATES          IMRCCD         DAVIDSON     [  0]   ***   
       EOM_NTRIP            IEOMTR          10D-  0             ***   
       EOM_ORDER            IEXORD         ENERGY       [  0]   ***   
       ESTATE_CONV          IEXTOL          10D-  5             ***   
       ESTATE_DIAG          IEXDIG         ITERATIVE    [  0]   ***   
       ESTATE_LOCK          IESLOC         ON           [  1]   ***   
       ESTATE_MAXC          IEXMXC             20               ***   
       ESTATE_PROP          IEXPRP         OFF          [  0]   ***   
       EVAL_HESS            IRECAL              0            # of cyc.
       EXCITATION           IEXCIT              0               ***   
       EXCITE               IEXCIT         NONE         [  0]   ***   
       FCGRADNEW            IFCGNW         OFF          [  0]   ***   
       FC_FIELD             IFINFC              0             x 10-6  
       FD_CALTYPE           IFDCAL         GRADONLY     [  0]   ***   
       FD_PROJECT           IFDPRJ         OFF          [  1]   ***   
       FD_STEPSIZE          IDISFD              0            10-4 bohr
       FD_USEGROUP          IFDGRP         FULL         [  0]   ***   
       FILE_RECSIZ          IFLREC              4096           words  
       FINITE_PERT          IFIPER              0             x 10-6  
       FIXGEOM              IFIXGM         OFF          [  0]   ***   
       FOCK                 IFOCK          AO           [  1]   ***   
       FREQ_ALGORI          IVIALG         STANDARD     [  0]   ***   
       FROZEN_CORE          IFROCO         OFF          [  0]   ***   
       FROZEN_VIRT          IFROVI         OFF          [  0]   ***   
       GAMMA_ABCD           IGABCD         STORE        [  0]   ***   
       GAMMA_ABCI           IGABCI         STORE        [  0]   ***   
       GENBAS_1             IGNBS1              0               ***   
       GENBAS_2             IGNBS2              0               ***   
       GENBAS_3             IGNBS3              0               ***   
       GENBAS_4             IGNBS4              0               ***   
       GEO_CONV             ICONTL              5              H/bohr 
       GEO_MAXCYC           IOPTCY             50               ***   
       GEO_MAXSTEP          IMXSTP            300            millibohr
       GEO_METHOD           INR            SINGLE_POINT [  5]   ***   
       GIAO                 IGIAO          OFF          [  1]   ***   
       GIMIC                IGIMIC         OFF          [  0]   ***   
       GRID                 IGRID          OFF          [  0]   ***   
       GRID_ALGO            IGALGO         SERIAL       [  0]   ***   
       GUESS                IGUESS            MOREAD    [  0]   ***   
       HBAR                 IHBAR              OFF      [  0]   ***   
       HESS_TYPE            IHESTP         SCF          [  0]   ***   
       HF2_FILE             IHF2Fl         USE          [  1]   ***   
       HFSTABILITY          ISTABL         OFF          [  0]   ***   
       INCORE               INCORE             OFF      [  0]   ***   
       INPUT_MRCC           IMRCC          OFF          [  0]   ***   
       INTEGRALS            INTTYP             VMOL     [  1]   ***   
       JODA_PRINT           IJPRNT              4               ***   
       LINDEP_TOL           ILINDP              8               ***   
       LINEQ_CONV           IZTACN          10D-  7           cycles  
       LINEQ_EXPOR          ILMAXD              5               ***   
       LINEQ_MAXCY          ILMAXC             50               ***   
       LINEQ_TYPE           ILTYPE         DIIS         [  1]   ***   
       LOCK_ORBOCC          ILOCOC             OFF      [  0]   ***   
       MEMORY_SIZE          IMEMSZ         500000000           words  
       MEM_UNIT             IMEMU          GB           [  3]   ***   
       MRCC                 IMRCCC         OFF          [  0]   ***   
       MULTIPLICTY          IMULTP              2               ***   
       NEGEVAL              IDIE             ABORT      [  0]   ***   
       NEWNORM              INEWNO         OFF          [  0]   ***   
       NON-HF               INONHF              ON      [  1]   ***   
       NTOP_TAMP            ITOPT2             15               ***   
       NUC_MODEL            INUCMO         POINT        [  0]   ***   
       OCCUPATION           IOCCU   ESTIMATED BY SCF 
       OPEN-SHELL           IOPEN          SPIN-ORBITAL [  0]   ***   
       ORBITALS             IORBTP         SEMICANONICAL[  1]   ***   
       PARALLEL             IPARAL         ON           [  1]   ***   
       PARA_INT             IPINTS         ON           [  1]   ***   
       PARA_PRINT           IPPRIN              0               ***   
       PERT_ORB             IPTORB         STANDARD     [  0]   ***   
       POINTS               IGRDFD              0               ***   
       PRINT                IPRNT               4               ***   
       PROPS                IPROPS             OFF      [  0]   ***   
       PROP_INTEGR          IINTYP         INTERNAL     [  0]   ***   
       PSI                  IPSI           OFF          [  0]   ***   
       QUARTIC              IQUART         OFF          [  0]   ***   
       RAMAN_INT            IRAMIN         OFF          [  0]   ***   
       RAMAN_ORB            IRAMRE         UNRELAXED    [  0]   ***   
       RDO                  IRDOFM             OFF      [  0]   ***   
       REFERENCE            IREFNC             ROHF     [  2]   ***   
       RELATIVIST           IRELAT         OFF          [  0]   ***   
       RELAX_DENS           IRDENS             OFF      [  0]   ***   
       RESET_FLAGS          IRESET             OFF      [  0]   ***   
       RESTART_CC           ICCRES         OFF          [  0]   ***   
       ROT_EVEC             ROTVEC              0               ***   
       SAVE_INTS            ISVINT              ON      [  1]   ***   
       SCALE_ON             ISTCRT              0               ***   
       SCF_CONV             ISCFCV          10D- 12             ***   
       SCF_DAMPING          IDAMP               0             x 10-3  
       SCF_EXPORDE          IRPPOR              6               ***   
       SCF_EXPSTAR          IRPPLS              5               ***   
       SCF_EXTRAPO          IRPP                ON      [  1]   ***   
       SCF_MAXCYC           ISCFCY            ***              cycles 
       SCF_NOSTOP           ISCFST         OFF          [  0]   ***   
       SCF_PRINT            ISCFPR              0               ***   
       SD_FIELD             IFINSD              0             x 10-6  
       SEQUENCE             ISEQUE         OFF          [  0]   ***   
       SOPERT               IPERSO         OFF          [  0]   ***   
       SPHERICAL            IDFGHI             ON       [  1]   ***   
       SPINORBIT            ISOCAL         OFF          [  0]   ***   
       SPINROTATIO          ISRCON         OFF          [  0]   ***   
       SPIN_FLIP            ISPFLP         OFF          [  0]   ***   
       SPIN_ORBIT           ISPORB         OFF          [  0]   ***   
       SPIN_SCAL            ISCSMP         OFF          [  0]   ***   
       SUBGROUP             ISUBGP         DEFAULT      [  0]   ***   
       SUBGRPAXIS           ISBXYZ         X            [  0]   ***   
       SYMMETRY             ISYM             ON         [  0]   ***   
       SYM_CHECK            ISYMCK         OVERRIDE     [  1]   ***   
       T3_EXTRAPOL          IT3EXT         ON           [  1]   ***   
       TAMP_SUM             IEVERY              5               ***   
       TESTSUITE            ITESTS         OFF          [  0]   ***   
       THERMOCH             ITHERM         OFF          [  0]   ***   
       TOL_CHOLESK          ITOLCH          10D-  4             ***   
       TRANGRAD             IRESRM         OFF          [  0]   ***   
       TRANS_INV            ITRAIN         USE          [  0]   ***   
       TREAT_PERT           ITREAT         SIMULTANEOUS [  0]   ***   
       UIJ_THRESHO          IUIJTH              1               ***   
       UNITS                IUNITS         BOHR         [  1]   ***   
       UNOS                 IUNOS          OFF          [  0]   ***   
       UPDATE_HESS          IHUPDT         ON           [  1]   ***   
       VIBPHASE             ISETPH         STANDARD     [  0]   ***   
       VIBRATION            IVIB              NO        [  0]   ***   
       VIB_ALGORIT          IGEALG         STANDARD     [  0]   ***   
       VNATORB              IVNORB         OFF          [  0]   ***   
       VTRAN                IVTRAN         FULL/PARTIAL [  0]   ***   
       XFIELD               IXEFLD              0             x 10-6  
       XFORM_TOL            IXFTOL          10D- 18             ***   
       YFIELD               IYEFLD              0             x 10-6  
       ZFIELD               IZEFLD              0             x 10-6  
    -------------------------------------------------------------------
   4 entries found in Z-matrix 
   Job Title : TITLE                                                                           
 Variable names read by FETCHZ
  1           
  2           
  3           
  4 R1        
  5           
  6           
  7 D         
  8 A90       
  9           
 10 R2        
 11 A90       
 12 D180      
 Atomic symbols read by FETCHZ
  1 Mg   
  2 F    
  3 X    
  4 F    
 Connectivity matrix read by FETCHZ
  1   0
  2   0
  3   0
  4   1
  5   0
  6   0
  7   1
  8   2
  9   0
 10   1
 11   3
 12   2
   Symbol A     not found in Z-matrix.
   There are  5 unique internal coordinates.
   Of these,  0 will be optimized.
   User supplied Z-matrix: 
--------------------------------------------------------------------------------
       SYMBOL    BOND      LENGTH    ANGLE     ANGLE     DIHED     ANGLE
                  TO      (ANGST)    WRT      (DEG)      WRT      (DEG)
--------------------------------------------------------------------------------
        Mg   
        F          1         R1   
        X          1         D          2        A90  
        F          1         R2         3        A90        2        D180 
                  *Initial values for internal coordinates* 
                      Name             Value
                        R1              3.3448152406
                        D               1.0000000000
                        A90            90.0000000000
                        R2              3.3448152406
                        D180          180.0000000000
--------------------------------------------------------------------------------
  1  MG        12    23.98504
  2  F          9    18.99840
  3  X          0     0.00000
  4  F          9    18.99840
   23.9850423000
   18.9984032200
    0.0000000000
   18.9984032200
 After translation to center of mass coordinates 
        0.000000000000    0.000000000000    0.000000000000
        0.000000000000    0.000000000000    3.344815240590
        1.000000000000    0.000000000000    0.000000000000
        0.000000000000    0.000000000000   -3.344815240590
  Inertia tensor (amu*bohr**2)
  425.10025    0.00000    0.00000
    0.00000  425.10025    0.00000
    0.00000    0.00000    0.00000
    Inertia tensor:
      425.100252884541    0.000000000000    0.000000000000
        0.000000000000  425.100252884541    0.000000000000
        0.000000000000    0.000000000000    0.000000000000
    Principal axis orientation for molecular system: 
        0.000000000000    0.000000000000    0.000000000000
        0.000000000000    0.000000000000   -3.344815240590
        0.000000000000    1.000000000000    0.000000000000
        0.000000000000    0.000000000000    3.344815240590
    Diagonalized inertia tensor:
      425.100252884541    0.000000000000    0.000000000000
        0.000000000000  425.100252884541    0.000000000000
        0.000000000000    0.000000000000    0.000000000000
    Eigenvectors of inertia tensor: 
        0.000000000000    1.000000000000    0.000000000000
        1.000000000000    0.000000000000    0.000000000000
        0.000000000000    0.000000000000   -1.000000000000
 factor:   60.1997200000000     
   Rotational constants (in cm-1): 
          0.1416129950             0.1416129950
   Rotational constants (in MHz): 
       4245.4513813243          4245.4513813243
  @SYMMETRY-I, Handedness of inertial frame: 1.00000
  @SYMMETRY-I, The symmetry group is 2-fold degenerate.
  @SYMMETRY-I, The molecule belongs to a point group with doubly degenerate representations.
  @SYMMETRY-I, The molecule is linear.
   Principal axis orientation for molecule:
        0.000000000000    0.000000000000    0.000000000000
        0.000000000000    0.000000000000   -3.344815240590
        0.000000000000    1.000000000000    0.000000000000
        0.000000000000    0.000000000000    3.344815240590
   Reflection in plane  3 is a valid symmetry operation.
   Rotation about  3 is a valid symmetry operation 
   Reflection in plane  2 is a valid symmetry operation.
   Rotation about  2 is a valid symmetry operation 
   Reflection in plane  1 is a valid symmetry operation.
   Rotation about  1 is a valid symmetry operation 
   The molecule possesses an inversion center. 
  Symmetry bits:    7   7   1
********************************************************************************
   The full molecular point group is DXh .
   The largest Abelian subgroup of the full molecular point group is D2h .
   The computational point group is D2h .
********************************************************************************
--------------------------------------------------------------------------------
   Analysis of internal coordinates specified by Z-matrix 
--------------------------------------------------------------------------------
   *The nuclear repulsion energy is   76.685850054532565 a.u.
  *WARNING* Parameters R2    and R1    appear to be equivalent.
   *There are   2 degrees of freedom within the tot. symm. molecular subspace.
   *Z-matrix requests optimization of   0 coordinates.
   *The optimization is constrained.
   *The following   1 parameters can have non-zero 
    derivatives within the totally symmetric subspace:
             R2   [ 4]
   *The following   0 parameters are to be optimized:

   *The following coordinates must be varied in an  unconstrained optimization.
             R2   [ 4]
--------------------------------------------------------------------------------
 ----------------------------------------------------------------
 Z-matrix   Atomic            Coordinates (in bohr)
  Symbol    Number           X              Y              Z
 ----------------------------------------------------------------
     MG       12         0.00000000     0.00000000     0.00000000
     F         9         0.00000000     0.00000000    -3.34481524
     X         0         0.00000000     1.00000000     0.00000000
     F         9         0.00000000     0.00000000     3.34481524
 ----------------------------------------------------------------
   Interatomic distance matrix (Angstroms) 
 
                 MG            F             X             F    
                [ 1]        [ 2]        [ 3]        [ 4]
  MG   [ 1]     0.00000
  F    [ 2]     1.77000     0.00000
  X    [ 3]     0.52918     1.84741     0.00000
  F    [ 4]     1.77000     3.54000     1.84741     0.00000
  Inertia tensor (amu*bohr**2)
  425.10025    0.00000    0.00000
    0.00000  425.10025    0.00000
    0.00000    0.00000    0.00000
   Rotational constants (in cm-1): 
          0.1416129950             0.0000000000
   Rotational constants (in MHz): 
       4245.4513813243             0.0000000000
  @GTFLGS-W, Keyword #GEOM not known and is ignored.
  @GTFLGS-W, Keyword #COORD not known and is ignored.
  @GTFLGS-W, Keyword #CC_PROG not known and is ignored.
  @GTFLGS-W, Keyword #FROZEN_CORE not known and is ignored.
  @GTFLGS-W, Keyword #CONTRACTION not known and is ignored.
  @GTFLGS-W, Keyword #EXCITE not known and is ignored.
  @GTFLGS-W, Keyword #ESTATE_CONV not known and is ignored.
  @GTFLGS-W, Keyword #ESTATE_SYM not known and is ignored.
  @GTFLGS-W, Keyword #SCF_DAMPING not known and is ignored.
  @GTFLGS-W, Keyword #OCCUPATION not known and is ignored.
  @GTFLGS-W, Keyword #OCCUPATION not known and is ignored.
  There are   94 basis functions.
 @GEOPT-W, Archive file not created for single-point calculation.
  @CHECKOUT-I, Total execution time (CPU/WALL):        0.20/       0.25 seconds.
--executable xjoda finished with status     0 in        0.27 seconds (walltime).
 --invoking executable--
/project1/nike/cfour_v2.00beta_May2019xnmol_noLABBASIS/bin/xvmol
Running with 1 threads/proc

********************************************************************************
                   INPUT FROM MOL FILE                                          
********************************************************************************
INTGRL        1    0    1    0    0    0    0    0    0
         *** CFOUR Program System (Release V0.1) *** 
TITLE
    2    3 X  Y   Z   0.10E-08              0    0
   9999.00      3.00
         12.00000000    1    3    1    1    1
MG#1   0.000000000000000   0.000000000000000   0.000000000000000
   14    5
   31438.3495550000       6.091231132599999E-004  0.000000000000000E+000
  0.000000000000000E+000  0.000000000000000E+000  0.000000000000000E+000
   4715.51533540000       4.706619646500000E-003  0.000000000000000E+000
  0.000000000000000E+000  0.000000000000000E+000  0.000000000000000E+000
   1073.16292470000       2.413582065700000E-002  0.000000000000000E+000
  0.000000000000000E+000  0.000000000000000E+000  0.000000000000000E+000
   303.572387680000       9.362895983400001E-002  0.000000000000000E+000
  0.000000000000000E+000  0.000000000000000E+000  0.000000000000000E+000
   98.6262510420000       0.266467420930000       0.000000000000000E+000
  0.000000000000000E+000  0.000000000000000E+000  0.000000000000000E+000
   34.9438084170000       0.478909299170000       0.000000000000000E+000
  0.000000000000000E+000  0.000000000000000E+000  0.000000000000000E+000
   12.8597851990000       0.336984902860000       0.000000000000000E+000
  0.000000000000000E+000  0.000000000000000E+000  0.000000000000000E+000
   64.8769130040000       0.000000000000000E+000  1.918088930700000E-002
  0.000000000000000E+000  0.000000000000000E+000  0.000000000000000E+000
   19.7255207770000       0.000000000000000E+000  9.091370439200000E-002
  0.000000000000000E+000  0.000000000000000E+000  0.000000000000000E+000
   2.89518043390000       0.000000000000000E+000 -0.395637561250000     
  0.000000000000000E+000  0.000000000000000E+000  0.000000000000000E+000
   1.19604547100000       0.000000000000000E+000  0.000000000000000E+000
   1.68276033730000       0.000000000000000E+000  0.000000000000000E+000
  0.543294511560000       0.000000000000000E+000  0.000000000000000E+000
  0.521410919540000       0.000000000000000E+000  0.000000000000000E+000
  0.100991040920000       0.000000000000000E+000  0.000000000000000E+000
  0.000000000000000E+000   1.00000000000000       0.000000000000000E+000
  3.686572808500000E-002  0.000000000000000E+000  0.000000000000000E+000
  0.000000000000000E+000  0.000000000000000E+000   1.00000000000000     
    8    4
   179.871896120000       5.379954901800000E-003  0.000000000000000E+000
  0.000000000000000E+000  0.000000000000000E+000
   42.1200693760000       3.931801409800000E-002  0.000000000000000E+000
  0.000000000000000E+000  0.000000000000000E+000
   13.1205030320000       0.157401294760000       0.000000000000000E+000
  0.000000000000000E+000  0.000000000000000E+000
   4.62575036090000       0.359190941280000       0.000000000000000E+000
  0.000000000000000E+000  0.000000000000000E+000
   1.66952110160000       0.455333793100000       0.000000000000000E+000
  0.000000000000000E+000  0.000000000000000E+000
  0.585510121050000       0.000000000000000E+000  0.219864329100000     
  0.000000000000000E+000  0.000000000000000E+000
  0.189147961950000       0.000000000000000E+000  0.000000000000000E+000
   1.00000000000000       0.000000000000000E+000
  5.376875518700000E-002  0.000000000000000E+000  0.000000000000000E+000
  0.000000000000000E+000   1.00000000000000     
    3    3
   3.44400000000000        1.00000000000000       0.000000000000000E+000
  0.000000000000000E+000
  0.290000000000000       0.000000000000000E+000   1.00000000000000     
  0.000000000000000E+000
  7.000000000000001E-002  0.000000000000000E+000  0.000000000000000E+000
   1.00000000000000     
          9.00000000    1    4    1    1    1    1
F #2   0.000000000000000   0.000000000000000  -3.344815240590000
   11    5
   35479.1004410000       2.154501488800000E-004  0.000000000000000E+000
  0.000000000000000E+000  0.000000000000000E+000  0.000000000000000E+000
   5318.47289830000       1.670068652700000E-003  0.000000000000000E+000
  0.000000000000000E+000  0.000000000000000E+000  0.000000000000000E+000
   1210.48109750000       8.673321147599999E-003  0.000000000000000E+000
  0.000000000000000E+000  0.000000000000000E+000  0.000000000000000E+000
   342.855181400000       3.504993317500000E-002  0.000000000000000E+000
  0.000000000000000E+000  0.000000000000000E+000  0.000000000000000E+000
   112.019431810000       0.111653201330000       0.000000000000000E+000
  0.000000000000000E+000  0.000000000000000E+000  0.000000000000000E+000
   40.7147402480000       0.259885066470000       0.000000000000000E+000
  0.000000000000000E+000  0.000000000000000E+000  0.000000000000000E+000
   16.0396781110000       0.000000000000000E+000  0.394229668800000     
  0.000000000000000E+000  0.000000000000000E+000  0.000000000000000E+000
   6.50381867400000       0.000000000000000E+000  0.249982385510000     
  0.000000000000000E+000  0.000000000000000E+000  0.000000000000000E+000
   1.54404775090000       0.000000000000000E+000  0.000000000000000E+000
   1.00000000000000       0.000000000000000E+000  0.000000000000000E+000
  0.612234528620000       0.000000000000000E+000  0.000000000000000E+000
  0.000000000000000E+000   1.00000000000000       0.000000000000000E+000
  0.240279796980000       0.000000000000000E+000  0.000000000000000E+000
  0.000000000000000E+000  0.000000000000000E+000   1.00000000000000     
    6    3
   80.2339004830000       6.368599913400000E-003  0.000000000000000E+000
  0.000000000000000E+000
   18.5940107430000       4.430314353000000E-002  0.000000000000000E+000
  0.000000000000000E+000
   5.68679026530000       0.168672487080000       0.000000000000000E+000
  0.000000000000000E+000
   1.95110062940000       0.361663462550000       0.000000000000000E+000
  0.000000000000000E+000
  0.669702112980000       0.000000000000000E+000  0.442029014910000     
  0.000000000000000E+000
  0.216513004100000       0.000000000000000E+000  0.000000000000000E+000
  0.243198757300000     
    2    2
   3.10700000000000        1.00000000000000       0.000000000000000E+000
  0.855000000000000       0.000000000000000E+000   1.00000000000000     
    1    1
   1.91700000000000        1.00000000000000     
FINISH
                                                                                
********************************************************************************

ONE- AND TWO-ELECTRON INTEGRALS OVER SYMMETRY-ADAPTED AOS ARE CALCULATED.


    BASIS FUNCTION NOT NORMALIZED:
    CENTER (AS ORDERED IN MOL FILE): ?
    ANGULAR MOMENTUM TYPE:           S
    OFFSET WITHIN ANGULAR MOMENTUM:  1
    <CHI|CHI>:                       1.1094291478

    BASIS FUNCTION NOT NORMALIZED:
    CENTER (AS ORDERED IN MOL FILE): ?
    ANGULAR MOMENTUM TYPE:           S
    OFFSET WITHIN ANGULAR MOMENTUM:  2
    <CHI|CHI>:                       0.1246817846

    BASIS FUNCTION NOT NORMALIZED:
    CENTER (AS ORDERED IN MOL FILE): ?
    ANGULAR MOMENTUM TYPE:           S
    OFFSET WITHIN ANGULAR MOMENTUM:  3
    <CHI|CHI>:                       4.6695378414

    BASIS FUNCTION NOT NORMALIZED:
    CENTER (AS ORDERED IN MOL FILE): ?
    ANGULAR MOMENTUM TYPE:           P
    OFFSET WITHIN ANGULAR MOMENTUM:  1
    <CHI|CHI>:                       0.7497556981

    BASIS FUNCTION NOT NORMALIZED:
    CENTER (AS ORDERED IN MOL FILE): ?
    ANGULAR MOMENTUM TYPE:           P
    OFFSET WITHIN ANGULAR MOMENTUM:  2
    <CHI|CHI>:                       0.0483403232

    BASIS FUNCTION NOT NORMALIZED:
    CENTER (AS ORDERED IN MOL FILE): ?
    ANGULAR MOMENTUM TYPE:           S
    OFFSET WITHIN ANGULAR MOMENTUM:  1
    <CHI|CHI>:                       0.1470459150

    BASIS FUNCTION NOT NORMALIZED:
    CENTER (AS ORDERED IN MOL FILE): ?
    ANGULAR MOMENTUM TYPE:           S
    OFFSET WITHIN ANGULAR MOMENTUM:  2
    <CHI|CHI>:                       0.3879183687

    BASIS FUNCTION NOT NORMALIZED:
    CENTER (AS ORDERED IN MOL FILE): ?
    ANGULAR MOMENTUM TYPE:           P
    OFFSET WITHIN ANGULAR MOMENTUM:  1
    <CHI|CHI>:                       0.2671601553

    BASIS FUNCTION NOT NORMALIZED:
    CENTER (AS ORDERED IN MOL FILE): ?
    ANGULAR MOMENTUM TYPE:           P
    OFFSET WITHIN ANGULAR MOMENTUM:  2
    <CHI|CHI>:                       0.1953896500

    BASIS FUNCTION NOT NORMALIZED:
    CENTER (AS ORDERED IN MOL FILE): ?
    ANGULAR MOMENTUM TYPE:           P
    OFFSET WITHIN ANGULAR MOMENTUM:  3
    <CHI|CHI>:                       0.0591456356
CARTESIAN GAUSSIANS ARE USED.

2 TYPES OF ATOMS
3 SYMMETRY OPERATIONS

REFLECTION IN THE YZ-PLANE
REFLECTION IN THE XZ-PLANE
REFLECTION IN THE XY-PLANE

INTEGRALS LESS THAN 1e-14 ARE NEGLECTED.

ATOMIC TYPE NUMBER 1:
---------------------

    NUCLEAR CHARGE:                       12
    NUMBER OF SYMMETRY INDEPENDENT ATOMS: 1
    HIGHEST ORBITAL TYPE:                 D

    1 GROUPS OF CGTOS OF S TYPE
    1 GROUPS OF CGTOS OF P TYPE
    1 GROUPS OF CGTOS OF D TYPE

    NUCLEAR COORDINATES (IN A.U.) ARE:

    MG#1   0.000000000000000   0.000000000000000   0.000000000000000

ATOMIC TYPE NUMBER 2:
---------------------

    NUCLEAR CHARGE:                       9
    NUMBER OF SYMMETRY INDEPENDENT ATOMS: 1
    HIGHEST ORBITAL TYPE:                 F

    1 GROUPS OF CGTOS OF S TYPE
    1 GROUPS OF CGTOS OF P TYPE
    1 GROUPS OF CGTOS OF D TYPE
    1 GROUPS OF CGTOS OF F TYPE

    NUCLEAR COORDINATES (IN A.U.) ARE:

    F #2   0.000000000000000   0.000000000000000  -3.344815240590000

INTERNUCLEAR DISTANCES (A):

    FOR ATOM MG#1 (COORDINATES:   0.00000   0.00000   0.00000)

    F #2 1 DISTANCE IS   1.77000

    FOR ATOM F #2 (COORDINATES:   0.00000   0.00000  -3.34482)

    F #2 5 DISTANCE IS   3.54000

GROUP MULTIPLICATION TABLE:

    1 2 3 4 5 6 7 8
    2 1 4 3 6 5 8 7
    3 4 1 2 7 8 5 6
    4 3 2 1 8 7 6 5
    5 6 7 8 1 2 3 4
    6 5 8 7 2 1 4 3
    7 8 5 6 3 4 1 2
    8 7 6 5 4 3 2 1

GAUSSIAN BASIS INFORMATION:

ATOM                EXPONENT       COEFFICIENTS

MG#1  1  S   
                  1   31438.349555   0.9731061   0.0000000   0.0000000   0.0000000   0.0000000
                  2    4715.515335   1.8122424   0.0000000   0.0000000   0.0000000   0.0000000
                  3    1073.162925   3.0621159   0.0000000   0.0000000   0.0000000   0.0000000
                  4     303.572388   4.6075197   0.0000000   0.0000000   0.0000000   0.0000000
                  5      98.626251   5.6428541   0.0000000   0.0000000   0.0000000   0.0000000
                  6      34.943808   4.6573755   0.0000000   0.0000000   0.0000000   0.0000000
                  7      12.859785   1.5484459   0.0000000   0.0000000   0.0000000   0.0000000
                  8      64.876913   0.0000000   0.8850034   0.0000000   0.0000000   0.0000000
                  9      19.725521   0.0000000   1.7175496   0.0000000   0.0000000   0.0000000
                 10       2.895180   0.0000000  -1.7724044   0.0000000   0.0000000   0.0000000
                 11       1.196045   0.0000000   0.0000000   0.6347551   0.0000000   0.0000000
                 12       0.543295   0.0000000   0.0000000   0.1088253   0.0000000   0.0000000
                 13       0.100991   0.0000000   0.0000000   0.0000000   0.1276798   0.0000000
                 14       0.036866   0.0000000   0.0000000   0.0000000   0.0000000   0.0599622

MG#1  1  X   
                 15     179.871896   5.8339537   0.0000000   0.0000000   0.0000000
                 16      42.120069   6.9451739   0.0000000   0.0000000   0.0000000
                 17      13.120503   6.4703326   0.0000000   0.0000000   0.0000000
                 18       4.625750   4.0112831   0.0000000   0.0000000   0.0000000
                 19       1.669521   1.4224925   0.0000000   0.0000000   0.0000000
                 20       0.585510   0.0000000   0.7300592   0.0000000   0.0000000
                 21       0.189148   0.0000000   0.0000000   0.1778043   0.0000000
                 22       0.053769   0.0000000   0.0000000   0.0000000   0.0369065

MG#1  1  Y   
                 23     179.871896   5.8339537   0.0000000   0.0000000   0.0000000
                 24      42.120069   6.9451739   0.0000000   0.0000000   0.0000000
                 25      13.120503   6.4703326   0.0000000   0.0000000   0.0000000
                 26       4.625750   4.0112831   0.0000000   0.0000000   0.0000000
                 27       1.669521   1.4224925   0.0000000   0.0000000   0.0000000
                 28       0.585510   0.0000000   0.7300592   0.0000000   0.0000000
                 29       0.189148   0.0000000   0.0000000   0.1778043   0.0000000
                 30       0.053769   0.0000000   0.0000000   0.0000000   0.0369065

MG#1  1  Z   
                 31     179.871896   5.8339537   0.0000000   0.0000000   0.0000000
                 32      42.120069   6.9451739   0.0000000   0.0000000   0.0000000
                 33      13.120503   6.4703326   0.0000000   0.0000000   0.0000000
                 34       4.625750   4.0112831   0.0000000   0.0000000   0.0000000
                 35       1.669521   1.4224925   0.0000000   0.0000000   0.0000000
                 36       0.585510   0.0000000   0.7300592   0.0000000   0.0000000
                 37       0.189148   0.0000000   0.0000000   0.1778043   0.0000000
                 38       0.053769   0.0000000   0.0000000   0.0000000   0.0369065

MG#1  1  XX  
                 39       3.444000  24.8216463   0.0000000   0.0000000
                 40       0.290000   0.0000000   0.3267131   0.0000000
                 41       0.070000   0.0000000   0.0000000   0.0271576

MG#1  1  XY  
                 42       3.444000  24.8216463   0.0000000   0.0000000
                 43       0.290000   0.0000000   0.3267131   0.0000000
                 44       0.070000   0.0000000   0.0000000   0.0271576

MG#1  1  XZ  
                 45       3.444000  24.8216463   0.0000000   0.0000000
                 46       0.290000   0.0000000   0.3267131   0.0000000
                 47       0.070000   0.0000000   0.0000000   0.0271576

MG#1  1  YY  
                 48       3.444000  24.8216463   0.0000000   0.0000000
                 49       0.290000   0.0000000   0.3267131   0.0000000
                 50       0.070000   0.0000000   0.0000000   0.0271576

MG#1  1  YZ  
                 51       3.444000  24.8216463   0.0000000   0.0000000
                 52       0.290000   0.0000000   0.3267131   0.0000000
                 53       0.070000   0.0000000   0.0000000   0.0271576

MG#1  1  ZZ  
                 54       3.444000  24.8216463   0.0000000   0.0000000
                 55       0.290000   0.0000000   0.3267131   0.0000000
                 56       0.070000   0.0000000   0.0000000   0.0271576

F #2  1  S   
                 57   35479.100441   1.0351657   0.0000000   0.0000000   0.0000000   0.0000000
                 58    5318.472898   1.9331170   0.0000000   0.0000000   0.0000000   0.0000000
                 59    1210.481098   3.3081679   0.0000000   0.0000000   0.0000000   0.0000000
                 60     342.855181   5.1904360   0.0000000   0.0000000   0.0000000   0.0000000
                 61     112.019432   7.1453715   0.0000000   0.0000000   0.0000000   0.0000000
                 62      40.714740   7.7853598   0.0000000   0.0000000   0.0000000   0.0000000
                 63      16.039678   0.0000000   3.6156465   0.0000000   0.0000000   0.0000000
                 64       6.503819   0.0000000   1.1649993   0.0000000   0.0000000   0.0000000
                 65       1.544048   0.0000000   0.0000000   0.9872011   0.0000000   0.0000000
                 66       0.612235   0.0000000   0.0000000   0.0000000   0.4932856   0.0000000
                 67       0.240280   0.0000000   0.0000000   0.0000000   0.0000000   0.2445953

F #2  5  S   
                 68   35479.100441   1.0351657   0.0000000   0.0000000   0.0000000   0.0000000
                 69    5318.472898   1.9331170   0.0000000   0.0000000   0.0000000   0.0000000
                 70    1210.481098   3.3081679   0.0000000   0.0000000   0.0000000   0.0000000
                 71     342.855181   5.1904360   0.0000000   0.0000000   0.0000000   0.0000000
                 72     112.019432   7.1453715   0.0000000   0.0000000   0.0000000   0.0000000
                 73      40.714740   7.7853598   0.0000000   0.0000000   0.0000000   0.0000000
                 74      16.039678   0.0000000   3.6156465   0.0000000   0.0000000   0.0000000
                 75       6.503819   0.0000000   1.1649993   0.0000000   0.0000000   0.0000000
                 76       1.544048   0.0000000   0.0000000   0.9872011   0.0000000   0.0000000
                 77       0.612235   0.0000000   0.0000000   0.0000000   0.4932856   0.0000000
                 78       0.240280   0.0000000   0.0000000   0.0000000   0.0000000   0.2445953

F #2  1  X   
                 79      80.233900   4.2174078   0.0000000   0.0000000
                 80      18.594011   4.7174264   0.0000000   0.0000000
                 81       5.686790   4.0849101   0.0000000   0.0000000
                 82       1.951101   2.2998974   0.0000000   0.0000000
                 83       0.669702   0.0000000   0.8635593   0.0000000
                 84       0.216513   0.0000000   0.0000000   0.2105208

F #2  5  X   
                 85      80.233900   4.2174078   0.0000000   0.0000000
                 86      18.594011   4.7174264   0.0000000   0.0000000
                 87       5.686790   4.0849101   0.0000000   0.0000000
                 88       1.951101   2.2998974   0.0000000   0.0000000
                 89       0.669702   0.0000000   0.8635593   0.0000000
                 90       0.216513   0.0000000   0.0000000   0.2105208

F #2  1  Y   
                 91      80.233900   4.2174078   0.0000000   0.0000000
                 92      18.594011   4.7174264   0.0000000   0.0000000
                 93       5.686790   4.0849101   0.0000000   0.0000000
                 94       1.951101   2.2998974   0.0000000   0.0000000
                 95       0.669702   0.0000000   0.8635593   0.0000000
                 96       0.216513   0.0000000   0.0000000   0.2105208

F #2  5  Y   
                 97      80.233900   4.2174078   0.0000000   0.0000000
                 98      18.594011   4.7174264   0.0000000   0.0000000
                 99       5.686790   4.0849101   0.0000000   0.0000000
                100       1.951101   2.2998974   0.0000000   0.0000000
                101       0.669702   0.0000000   0.8635593   0.0000000
                102       0.216513   0.0000000   0.0000000   0.2105208

F #2  1  Z   
                103      80.233900   4.2174078   0.0000000   0.0000000
                104      18.594011   4.7174264   0.0000000   0.0000000
                105       5.686790   4.0849101   0.0000000   0.0000000
                106       1.951101   2.2998974   0.0000000   0.0000000
                107       0.669702   0.0000000   0.8635593   0.0000000
                108       0.216513   0.0000000   0.0000000   0.2105208

F #2  5  Z   
                109      80.233900   4.2174078   0.0000000   0.0000000
                110      18.594011   4.7174264   0.0000000   0.0000000
                111       5.686790   4.0849101   0.0000000   0.0000000
                112       1.951101   2.2998974   0.0000000   0.0000000
                113       0.669702   0.0000000   0.8635593   0.0000000
                114       0.216513   0.0000000   0.0000000   0.2105208

F #2  1  XX  
                115       3.107000  20.7284714   0.0000000
                116       0.855000   0.0000000   2.1672588

F #2  5  XX  
                117       3.107000  20.7284714   0.0000000
                118       0.855000   0.0000000   2.1672588

F #2  1  XY  
                119       3.107000  20.7284714   0.0000000
                120       0.855000   0.0000000   2.1672588

F #2  5  XY  
                121       3.107000  20.7284714   0.0000000
                122       0.855000   0.0000000   2.1672588

F #2  1  XZ  
                123       3.107000  20.7284714   0.0000000
                124       0.855000   0.0000000   2.1672588

F #2  5  XZ  
                125       3.107000  20.7284714   0.0000000
                126       0.855000   0.0000000   2.1672588

F #2  1  YY  
                127       3.107000  20.7284714   0.0000000
                128       0.855000   0.0000000   2.1672588

F #2  5  YY  
                129       3.107000  20.7284714   0.0000000
                130       0.855000   0.0000000   2.1672588

F #2  1  YZ  
                131       3.107000  20.7284714   0.0000000
                132       0.855000   0.0000000   2.1672588

F #2  5  YZ  
                133       3.107000  20.7284714   0.0000000
                134       0.855000   0.0000000   2.1672588

F #2  1  ZZ  
                135       3.107000  20.7284714   0.0000000
                136       0.855000   0.0000000   2.1672588

F #2  5  ZZ  
                137       3.107000  20.7284714   0.0000000
                138       0.855000   0.0000000   2.1672588

F #2  1  F300
                139       1.917000  24.6547063

F #2  5  F300
                140       1.917000  24.6547063

F #2  1  F210
                141       1.917000  24.6547063

F #2  5  F210
                142       1.917000  24.6547063

F #2  1  F201
                143       1.917000  24.6547063

F #2  5  F201
                144       1.917000  24.6547063

F #2  1  F120
                145       1.917000  24.6547063

F #2  5  F120
                146       1.917000  24.6547063

F #2  1  F111
                147       1.917000  24.6547063

F #2  5  F111
                148       1.917000  24.6547063

F #2  1  F102
                149       1.917000  24.6547063

F #2  5  F102
                150       1.917000  24.6547063

F #2  1  F030
                151       1.917000  24.6547063

F #2  5  F030
                152       1.917000  24.6547063

F #2  1  F021
                153       1.917000  24.6547063

F #2  5  F021
                154       1.917000  24.6547063

F #2  1  F012
                155       1.917000  24.6547063

F #2  5  F012
                156       1.917000  24.6547063

F #2  1  F003
                157       1.917000  24.6547063

F #2  5  F003
                158       1.917000  24.6547063

SYMMETRY TRANSFORMATION INTO 94 SYMMETRY-ADAPTED BASIS FUNCTIONS

    IRREDUCIBLE REPRESENTATION NUMBER 1

    1    1 MG#1 S      1   1.0
    2    2 MG#1 S      2   1.0
    3    3 MG#1 S      3   1.0
    4    4 MG#1 S      4   1.0
    5    5 MG#1 S      5   1.0
    6    6 MG#1 XX    18  -1.0  27  -1.0  33   2.0
    7    7 MG#1 XX    19  -1.0  28  -1.0  34   2.0
    8    8 MG#1 XX    20  -1.0  29  -1.0  35   2.0
    9    9 MG#1 YY    18   1.0  27  -1.0
   10   10 MG#1 YY    19   1.0  28  -1.0
   11   11 MG#1 YY    20   1.0  29  -1.0
   12   12 MG#1 ZZ    36   1.0  37   1.0
   13   13 MG#1 ZZ    38   1.0  39   1.0
   14   14 MG#1 ZZ    40   1.0  41   1.0
   15   15 F #2 S     42   1.0  43   1.0
   16   16 F #2 S     44   1.0  45   1.0
   17   17 F #2 S     58   1.0  59  -1.0
   18   18 F #2 S     60   1.0  61  -1.0
   19   19 F #2 S     62   1.0  63  -1.0
   20   20 F #2 Z     64  -1.0  65  -1.0  76  -1.0  77  -1.0  84   2.0  85   2.0
   21   21 F #2 Z     66  -1.0  67  -1.0  78  -1.0  79  -1.0  86   2.0  87   2.0
   22   22 F #2 Z     64   1.0  65   1.0  76  -1.0  77  -1.0
   23   23 F #2 XX    66   1.0  67   1.0  78  -1.0  79  -1.0
   24   24 F #2 XX    92  -3.0  93   3.0 102  -3.0 103   3.0 106   2.0 107  -2.0
   25   25 F #2 YY    92   1.0  93  -1.0 102  -1.0 103   1.0
   26   26 F #2 YY     6   1.0
   27   27 F #2 ZZ     7   1.0
   28   28 F #2 ZZ     8   1.0
   29   29 F #2 F201   9   1.0
   30   30 F #2 F021  46   1.0  47   1.0
   31   31 F #2 F003  48   1.0  49   1.0

    IRREDUCIBLE REPRESENTATION NUMBER 2

   32    1 MG#1 X     50   1.0  51   1.0
   33    2 MG#1 X     72   1.0  73  -1.0
   34    3 MG#1 X     74   1.0  75  -1.0
   35    4 MG#1 X     88  -1.0  89  -1.0  94  -1.0  95  -1.0  98   4.0  99   4.0
   36    5 F #2 X     88   1.0  89   1.0  94  -3.0  95  -3.0
   37    6 F #2 X     10   1.0
   38    7 F #2 X     11   1.0
   39    8 F #2 XZ    12   1.0
   40    9 F #2 XZ    13   1.0
   41   10 F #2 F300  52   1.0  53   1.0
   42   11 F #2 F120  54   1.0  55   1.0
   43   12 F #2 F102  56   1.0  57   1.0

    IRREDUCIBLE REPRESENTATION NUMBER 3

   44    1 MG#1 Y     80   1.0  81  -1.0
   45    2 MG#1 Y     82   1.0  83  -1.0
   46    3 MG#1 Y     90  -1.0  91  -1.0 100  -1.0 101  -1.0 104   4.0 105   4.0
   47    4 MG#1 Y     90   3.0  91   3.0 100  -1.0 101  -1.0
   48    5 F #2 Y     21   1.0
   49    6 F #2 Y     22   1.0
   50    7 F #2 Y     23   1.0
   51    8 F #2 YZ    68   1.0  69   1.0
   52    9 F #2 YZ    70   1.0  71   1.0
   53   10 F #2 F210  96   1.0  97  -1.0
   54   11 F #2 F030  14   1.0
   55   12 F #2 F012  15   1.0

    IRREDUCIBLE REPRESENTATION NUMBER 4

   56    1 MG#1 XY    16   1.0
   57    2 MG#1 XY    17   1.0
   58    3 MG#1 XY    36   1.0  37  -1.0
   59    4 F #2 XY    38   1.0  39  -1.0
   60    5 F #2 XY    40   1.0  41  -1.0
   61    6 F #2 F111  42   1.0  43  -1.0

    IRREDUCIBLE REPRESENTATION NUMBER 5

   62    1 MG#1 Z     44   1.0  45  -1.0
   63    2 MG#1 Z     58   1.0  59   1.0
   64    3 MG#1 Z     60   1.0  61   1.0
   65    4 MG#1 Z     62   1.0  63   1.0
   66    5 F #2 S     64  -1.0  65   1.0  76  -1.0  77   1.0  84   2.0  85  -2.0
   67    6 F #2 S     66  -1.0  67   1.0  78  -1.0  79   1.0  86   2.0  87  -2.0
   68    7 F #2 S     64   1.0  65  -1.0  76  -1.0  77   1.0
   69    8 F #2 S     66   1.0  67  -1.0  78  -1.0  79   1.0
   70    9 F #2 S     92  -3.0  93  -3.0 102  -3.0 103  -3.0 106   2.0 107   2.0
   71   10 F #2 Z     92   1.0  93   1.0 102  -1.0 103  -1.0
   72   11 F #2 Z     24   1.0
   73   12 F #2 Z     25   1.0
   74   13 F #2 XX    26   1.0
   75   14 F #2 XX    46   1.0  47  -1.0
   76   15 F #2 YY    48   1.0  49  -1.0
   77   16 F #2 YY    50   1.0  51  -1.0
   78   17 F #2 ZZ    72   1.0  73   1.0
   79   18 F #2 ZZ    74   1.0  75   1.0
   80   19 F #2 F201  88  -1.0  89   1.0  94  -1.0  95   1.0  98   4.0  99  -4.0
   81   20 F #2 F021  88   1.0  89  -1.0  94  -3.0  95   3.0
   82   21 F #2 F003  30   1.0

    IRREDUCIBLE REPRESENTATION NUMBER 6

   83    1 MG#1 XZ    31   1.0
   84    2 MG#1 XZ    32   1.0
   85    3 MG#1 XZ    52   1.0  53  -1.0
   86    4 F #2 X     54   1.0  55  -1.0
   87    5 F #2 X     56   1.0  57  -1.0
   88    6 F #2 X     80   1.0  81   1.0
   89    7 F #2 XZ    82   1.0  83   1.0
   90    8 F #2 XZ    90  -1.0  91   1.0 100  -1.0 101   1.0 104   4.0 105  -4.0
   91    9 F #2 F300  90   3.0  91  -3.0 100  -1.0 101   1.0
   92   10 F #2 F120  68   1.0  69  -1.0
   93   11 F #2 F102  70   1.0  71  -1.0

    IRREDUCIBLE REPRESENTATION NUMBER 7

   94    1 MG#1 YZ    96   1.0  97   1.0
   95    2 MG#1 YZ  
   96    3 MG#1 YZ  
   97    4 F #2 Y   
   98    5 F #2 Y   
   99    6 F #2 Y   
  100    7 F #2 YZ  
  101    8 F #2 YZ  
  102    9 F #2 F210
  103   10 F #2 F030
  104   11 F #2 F012

    IRREDUCIBLE REPRESENTATION NUMBER 8

  105    1 F #2 XY  
  106    2 F #2 XY  
  107    3 F #2 F111

NUCLEAR REPULSION ENERGY:   76.6858500545 A.U.

One-electron integrals took 0.009152 seconds

  @TWOEL-I,      44310 INTEGRALS OF SYMMETRY TYPE  I I I I
  @TWOEL-I,     301620 INTEGRALS OF SYMMETRY TYPE  I J I J
  @TWOEL-I,     175018 INTEGRALS OF SYMMETRY TYPE  I I J J
  @TWOEL-I,     561564 INTEGRALS OF SYMMETRY TYPE  I J K L
  @TWOEL-I, TOTAL NUMBER OF 2-E INTEGRALS    1082512

Two-electron integrals took 2.813655 seconds

Nuclear repulsion energy: 76.685850054533
--executable xvmol finished with status     0 in        3.12 seconds (walltime).
 --invoking executable--
/project1/nike/cfour_v2.00beta_May2019xnmol_noLABBASIS/bin/xvmol2ja
--executable xvmol2ja finished with status     0 in        0.01 seconds (walltime).
 --invoking executable--
/project1/nike/cfour_v2.00beta_May2019xnmol_noLABBASIS/bin/xvscf
  There are   94 functions in the AO basis.

  There are 8 irreducible representations.

       Irrep        # of functions
         1                 25
         2                 11
         3                 11
         4                  6
         5                 18
         6                 10
         7                 10
         8                  3


  Parameters for SCF calculation: 
        SCF reference function: ROHF  
  Maximum number of iterations: ****
     Full symmetry point group: DXh 
     Computational point group: D2h 
        Initial density matrix: CORE                   
     SCF convergence tolerance: 10**(-12)
  DIIS convergence acceleration:  ON
          Latest start for DIIS:   5
                     DIIS order:   6

  Memory information:     411069 words required.
  Fock matrices are constructed from AO integral file.
 @GETMEM-I,  Allocated       3 MB of main memory.
  Initialization and symmetry analysis required      0.002 seconds.

  @INITGES-I, Occupancies from core Hamiltonian:

          Alpha population by irrep:   5    2    2    0    4    1    1    0
           Beta population by irrep:   5    2    2    0    3    1    1    0


 total no. of electrons in initial guess :  0.000000000000000E+000
 total no. of electrons in initial guess :  0.000000000000000E+000
  --------------------------------------------------------------------
  Iteration         Total Energy            Largest Density Difference
  --------------------------------------------------------------------
       0            76.685850054532565              0.0000000000D+00
   current occupation vector 
     5  2  2  0  4  1  1  0
     5  2  2  0  3  1  1  0
  processed                  44310  ao basis integrals from 
                    74  buffers.
  processed                 175018  ao basis integrals from 
                   292  buffers.
  processed                 301620  ao basis integrals from 
                   503  buffers.
       1          -372.029923031662122              0.1285035645D+01
   current occupation vector 
     5  2  2  0  4  1  1  0
     5  2  2  0  3  1  1  0
  processed                  44310  ao basis integrals from 
                    74  buffers.
  processed                 175018  ao basis integrals from 
                   292  buffers.
  processed                 301620  ao basis integrals from 
                   503  buffers.
       2          -374.479744862308678              0.3847848823D+01
   current occupation vector 
     7  2  2  1  3  0  0  0
     6  2  2  1  3  0  0  0
  processed                  44310  ao basis integrals from 
                    74  buffers.
  processed                 175018  ao basis integrals from 
                   292  buffers.
  processed                 301620  ao basis integrals from 
                   503  buffers.
       3          -387.224214862438714              0.3847760343D+01
   current occupation vector 
     5  2  2  0  4  1  1  0
     5  1  2  0  4  1  1  0
  processed                  44310  ao basis integrals from 
                    74  buffers.
  processed                 175018  ao basis integrals from 
                   292  buffers.
  processed                 301620  ao basis integrals from 
                   503  buffers.
       4          -376.675750210137267              0.4478159382D+01
   current occupation vector 
     7  2  2  1  3  0  0  0
     6  2  2  1  3  0  0  0
 
 sum over diagonal and offdiagdiagonal of C(T)*S*C for irrep
                     1
  1.058042542467774E-013 -1.158477074498897E-013
 reorthoganalization of MOs is carried out
 sum over diagonal and offdiagdiagonal of C(T)*S*C for irrep
                     1
 -1.798561299892754E-014 -2.648205151158193E-014
 
 sum over diagonal and offdiagdiagonal of C(T)*S*C for irrep
                     2
 -1.365574320288943E-014  1.538581377104662E-014
 reorthoganalization of MOs is carried out
 sum over diagonal and offdiagdiagonal of C(T)*S*C for irrep
                     2
  5.551115123125783E-016 -1.493984189393883E-016
 
 sum over diagonal and offdiagdiagonal of C(T)*S*C for irrep
                     3
  2.220446049250313E-014 -2.966431307325895E-014
 reorthoganalization of MOs is carried out
 sum over diagonal and offdiagdiagonal of C(T)*S*C for irrep
                     3
  8.881784197001252E-016  5.243173116322237E-017
 
 sum over diagonal and offdiagdiagonal of C(T)*S*C for irrep
                     4
  8.437694987151190E-015  1.911556850309193E-015
 reorthoganalization of MOs is carried out
 sum over diagonal and offdiagdiagonal of C(T)*S*C for irrep
                     4
  0.000000000000000E+000 -4.357408531219242E-016
 
 sum over diagonal and offdiagdiagonal of C(T)*S*C for irrep
                     5
  1.582067810090848E-013 -4.107060513072054E-014
 reorthoganalization of MOs is carried out
 sum over diagonal and offdiagdiagonal of C(T)*S*C for irrep
                     5
 -6.772360450213455E-015  8.083202690467141E-015
 
 sum over diagonal and offdiagdiagonal of C(T)*S*C for irrep
                     6
  1.276756478318930E-014 -8.308300706588968E-015
 reorthoganalization of MOs is carried out
 sum over diagonal and offdiagdiagonal of C(T)*S*C for irrep
                     6
  1.443289932012704E-015 -1.049524447336731E-015
 
 sum over diagonal and offdiagdiagonal of C(T)*S*C for irrep
                     7
 -5.884182030513330E-015 -2.030523199929257E-014
 reorthoganalization of MOs is carried out
 sum over diagonal and offdiagdiagonal of C(T)*S*C for irrep
                     7
 -1.110223024625157E-016  7.623598203954994E-017
 
 sum over diagonal and offdiagdiagonal of C(T)*S*C for irrep
                     8
 -9.658940314238862E-015 -5.986964396464955E-016
 reorthoganalization of MOs is carried out
 sum over diagonal and offdiagdiagonal of C(T)*S*C for irrep
                     8
 -2.220446049250313E-016  1.016981637791403E-016
  processed                  44310  ao basis integrals from 
                    74  buffers.
  processed                 175018  ao basis integrals from 
                   292  buffers.
  processed                 301620  ao basis integrals from 
                   503  buffers.
       5          -387.480254147993946              0.4473770741D+01
   current occupation vector 
     5  2  2  0  4  1  1  0
     5  2  1  0  4  1  1  0
  processed                  44310  ao basis integrals from 
                    74  buffers.
  processed                 175018  ao basis integrals from 
                   292  buffers.
  processed                 301620  ao basis integrals from 
                   503  buffers.
       6          -396.242375212129730              0.7931301027D+00
   current occupation vector 
     5  2  2  0  4  1  1  0
     5  2  2  0  4  0  1  0
  processed                  44310  ao basis integrals from 
                    74  buffers.
  processed                 175018  ao basis integrals from 
                   292  buffers.
  processed                 301620  ao basis integrals from 
                   503  buffers.
       7          -397.877664907619931              0.9121608640D-01
   current occupation vector 
     5  2  2  0  4  1  1  0
     5  2  2  0  4  0  1  0
  processed                  44310  ao basis integrals from 
                    74  buffers.
  processed                 175018  ao basis integrals from 
                   292  buffers.
  processed                 301620  ao basis integrals from 
                   503  buffers.
       8          -398.168016973079887              0.5901779368D-01
   current occupation vector 
     5  2  2  0  4  1  1  0
     5  2  2  0  4  0  1  0
  processed                  44310  ao basis integrals from 
                    74  buffers.
  processed                 175018  ao basis integrals from 
                   292  buffers.
  processed                 301620  ao basis integrals from 
                   503  buffers.
       9          -398.195055094775228              0.2566098515D-01
   current occupation vector 
     5  2  2  0  4  1  1  0
     5  2  2  0  4  0  1  0
 
 sum over diagonal and offdiagdiagonal of C(T)*S*C for irrep
                     1
  4.873879078104437E-014 -2.145225101386081E-014
 reorthoganalization of MOs is carried out
 sum over diagonal and offdiagdiagonal of C(T)*S*C for irrep
                     1
 -1.110223024625157E-016  3.506466156867991E-015
 
 sum over diagonal and offdiagdiagonal of C(T)*S*C for irrep
                     2
  2.786659791809143E-014  1.360356118591444E-014
 reorthoganalization of MOs is carried out
 sum over diagonal and offdiagdiagonal of C(T)*S*C for irrep
                     2
 -7.771561172376096E-016  1.947159172379204E-015
 
 sum over diagonal and offdiagdiagonal of C(T)*S*C for irrep
                     3
 -8.881784197001252E-015 -2.142265552143305E-016
 reorthoganalization of MOs is carried out
 sum over diagonal and offdiagdiagonal of C(T)*S*C for irrep
                     3
 -8.881784197001252E-016  5.929238438524980E-016
 
 sum over diagonal and offdiagdiagonal of C(T)*S*C for irrep
                     4
 -2.775557561562891E-015  6.547535036122588E-016
 reorthoganalization of MOs is carried out
 sum over diagonal and offdiagdiagonal of C(T)*S*C for irrep
                     4
 -4.440892098500626E-016 -2.869603629696536E-016
 
 sum over diagonal and offdiagdiagonal of C(T)*S*C for irrep
                     5
 -1.865174681370263E-014  1.092671963808720E-014
 reorthoganalization of MOs is carried out
 sum over diagonal and offdiagdiagonal of C(T)*S*C for irrep
                     5
  3.774758283725532E-015  3.553535704877053E-015
 
 sum over diagonal and offdiagdiagonal of C(T)*S*C for irrep
                     6
  2.753353101070388E-014 -1.910946228269343E-014
 reorthoganalization of MOs is carried out
 sum over diagonal and offdiagdiagonal of C(T)*S*C for irrep
                     6
 -8.881784197001252E-016  1.182257576776388E-016
 
 sum over diagonal and offdiagdiagonal of C(T)*S*C for irrep
                     7
  7.882583474838611E-015 -9.098283110957307E-015
 reorthoganalization of MOs is carried out
 sum over diagonal and offdiagdiagonal of C(T)*S*C for irrep
                     7
 -6.661338147750939E-016 -6.985096259001113E-016
 
 sum over diagonal and offdiagdiagonal of C(T)*S*C for irrep
                     8
  3.330669073875470E-015  1.098601732588828E-015
 reorthoganalization of MOs is carried out
 sum over diagonal and offdiagdiagonal of C(T)*S*C for irrep
                     8
  2.220446049250313E-016 -3.572446158339737E-017
  processed                  44310  ao basis integrals from 
                    74  buffers.
  processed                 175018  ao basis integrals from 
                   292  buffers.
  processed                 301620  ao basis integrals from 
                   503  buffers.
      10          -398.195378980615374              0.3982183885D-02
   current occupation vector 
     5  2  2  0  4  1  1  0
     5  2  2  0  4  0  1  0
  processed                  44310  ao basis integrals from 
                    74  buffers.
  processed                 175018  ao basis integrals from 
                   292  buffers.
  processed                 301620  ao basis integrals from 
                   503  buffers.
      11          -398.195400804855353              0.8155899014D-03
   current occupation vector 
     5  2  2  0  4  1  1  0
     5  2  2  0  4  0  1  0
  processed                  44310  ao basis integrals from 
                    74  buffers.
  processed                 175018  ao basis integrals from 
                   292  buffers.
  processed                 301620  ao basis integrals from 
                   503  buffers.
      12          -398.195402093457631              0.2240389467D-03
   current occupation vector 
     5  2  2  0  4  1  1  0
     5  2  2  0  4  0  1  0
  processed                  44310  ao basis integrals from 
                    74  buffers.
  processed                 175018  ao basis integrals from 
                   292  buffers.
  processed                 301620  ao basis integrals from 
                   503  buffers.
      13          -398.195402127290606              0.3490388128D-04
   current occupation vector 
     5  2  2  0  4  1  1  0
     5  2  2  0  4  0  1  0
  processed                  44310  ao basis integrals from 
                    74  buffers.
  processed                 175018  ao basis integrals from 
                   292  buffers.
  processed                 301620  ao basis integrals from 
                   503  buffers.
      14          -398.195402129474815              0.1039514454D-04
   current occupation vector 
     5  2  2  0  4  1  1  0
     5  2  2  0  4  0  1  0
 
 sum over diagonal and offdiagdiagonal of C(T)*S*C for irrep
                     1
  3.941291737419306E-014  6.488015299607088E-014
 reorthoganalization of MOs is carried out
 sum over diagonal and offdiagdiagonal of C(T)*S*C for irrep
                     1
  9.880984919163893E-015 -3.307304434743987E-016
 
 sum over diagonal and offdiagdiagonal of C(T)*S*C for irrep
                     2
 -1.509903313490213E-014 -8.434246746749769E-015
 reorthoganalization of MOs is carried out
 sum over diagonal and offdiagdiagonal of C(T)*S*C for irrep
                     2
 -2.220446049250313E-016  7.349776631937921E-016
 
 sum over diagonal and offdiagdiagonal of C(T)*S*C for irrep
                     3
  2.664535259100376E-015  9.489944436512209E-015
 reorthoganalization of MOs is carried out
 sum over diagonal and offdiagdiagonal of C(T)*S*C for irrep
                     3
 -2.220446049250313E-016 -4.596112321388742E-016
 
 sum over diagonal and offdiagdiagonal of C(T)*S*C for irrep
                     4
  1.532107773982716E-014  1.313616387568122E-015
 reorthoganalization of MOs is carried out
 sum over diagonal and offdiagdiagonal of C(T)*S*C for irrep
                     4
 -6.661338147750939E-016  1.285342851305247E-016
 
 sum over diagonal and offdiagdiagonal of C(T)*S*C for irrep
                     5
  1.287858708565182E-014 -5.697210073184230E-015
 reorthoganalization of MOs is carried out
 sum over diagonal and offdiagdiagonal of C(T)*S*C for irrep
                     5
 -1.110223024625157E-016 -5.131100916170815E-015
 
 sum over diagonal and offdiagdiagonal of C(T)*S*C for irrep
                     6
  3.386180225106727E-014 -7.244242211686503E-015
 reorthoganalization of MOs is carried out
 sum over diagonal and offdiagdiagonal of C(T)*S*C for irrep
                     6
  6.661338147750939E-016 -1.140225293715217E-015
 
 sum over diagonal and offdiagdiagonal of C(T)*S*C for irrep
                     7
  2.353672812205332E-014  3.180549446553876E-015
 reorthoganalization of MOs is carried out
 sum over diagonal and offdiagdiagonal of C(T)*S*C for irrep
                     7
  1.221245327087672E-015  3.883050017491077E-016
 
 sum over diagonal and offdiagdiagonal of C(T)*S*C for irrep
                     8
 -3.330669073875470E-016  1.357637960386349E-015
 reorthoganalization of MOs is carried out
 sum over diagonal and offdiagdiagonal of C(T)*S*C for irrep
                     8
 -1.110223024625157E-016  7.939070408025106E-017
  processed                  44310  ao basis integrals from 
                    74  buffers.
  processed                 175018  ao basis integrals from 
                   292  buffers.
  processed                 301620  ao basis integrals from 
                   503  buffers.
      15          -398.195402129531544              0.2097747233D-05
   current occupation vector 
     5  2  2  0  4  1  1  0
     5  2  2  0  4  0  1  0
  processed                  44310  ao basis integrals from 
                    74  buffers.
  processed                 175018  ao basis integrals from 
                   292  buffers.
  processed                 301620  ao basis integrals from 
                   503  buffers.
      16          -398.195402129532283              0.1091904564D-06
   current occupation vector 
     5  2  2  0  4  1  1  0
     5  2  2  0  4  0  1  0
  processed                  44310  ao basis integrals from 
                    74  buffers.
  processed                 175018  ao basis integrals from 
                   292  buffers.
  processed                 301620  ao basis integrals from 
                   503  buffers.
      17          -398.195402129532795              0.2373643834D-07
   current occupation vector 
     5  2  2  0  4  1  1  0
     5  2  2  0  4  0  1  0
  processed                  44310  ao basis integrals from 
                    74  buffers.
  processed                 175018  ao basis integrals from 
                   292  buffers.
  processed                 301620  ao basis integrals from 
                   503  buffers.
      18          -398.195402129533022              0.9367491755D-08
   current occupation vector 
     5  2  2  0  4  1  1  0
     5  2  2  0  4  0  1  0
  processed                  44310  ao basis integrals from 
                    74  buffers.
  processed                 175018  ao basis integrals from 
                   292  buffers.
  processed                 301620  ao basis integrals from 
                   503  buffers.
      19          -398.195402129532397              0.1427480887D-08
   current occupation vector 
     5  2  2  0  4  1  1  0
     5  2  2  0  4  0  1  0
 
 sum over diagonal and offdiagdiagonal of C(T)*S*C for irrep
                     1
  7.993605777301127E-014 -3.380519980922507E-014
 reorthoganalization of MOs is carried out
 sum over diagonal and offdiagdiagonal of C(T)*S*C for irrep
                     1
  3.219646771412954E-015  1.282495405209693E-014
 
 sum over diagonal and offdiagdiagonal of C(T)*S*C for irrep
                     2
  2.275957200481571E-014  1.143723007807977E-014
 reorthoganalization of MOs is carried out
 sum over diagonal and offdiagdiagonal of C(T)*S*C for irrep
                     2
  4.440892098500626E-016  1.628210031047668E-017
 
 sum over diagonal and offdiagdiagonal of C(T)*S*C for irrep
                     3
 -2.220446049250313E-015 -1.183899741055179E-014
 reorthoganalization of MOs is carried out
 sum over diagonal and offdiagdiagonal of C(T)*S*C for irrep
                     3
  3.330669073875470E-016 -1.898873150687470E-016
 
 sum over diagonal and offdiagdiagonal of C(T)*S*C for irrep
                     4
  1.132427485117660E-014  3.668809708617070E-015
 reorthoganalization of MOs is carried out
 sum over diagonal and offdiagdiagonal of C(T)*S*C for irrep
                     4
 -6.661338147750939E-016  2.362408771210134E-016
 
 sum over diagonal and offdiagdiagonal of C(T)*S*C for irrep
                     5
  8.348877145181177E-014 -9.110644179524152E-015
 reorthoganalization of MOs is carried out
 sum over diagonal and offdiagdiagonal of C(T)*S*C for irrep
                     5
  4.107825191113079E-015 -4.661215977019975E-015
 
 sum over diagonal and offdiagdiagonal of C(T)*S*C for irrep
                     6
  1.065814103640150E-014  1.083455628789145E-014
 reorthoganalization of MOs is carried out
 sum over diagonal and offdiagdiagonal of C(T)*S*C for irrep
                     6
 -6.661338147750939E-016  8.808122055325440E-016
 
 sum over diagonal and offdiagdiagonal of C(T)*S*C for irrep
                     7
  2.686739719592879E-014 -6.187420633372237E-015
 reorthoganalization of MOs is carried out
 sum over diagonal and offdiagdiagonal of C(T)*S*C for irrep
                     7
 -2.220446049250313E-016  9.452839206166387E-016
 
 sum over diagonal and offdiagdiagonal of C(T)*S*C for irrep
                     8
  3.996802888650564E-015  1.912871445443332E-016
 reorthoganalization of MOs is carried out
 sum over diagonal and offdiagdiagonal of C(T)*S*C for irrep
                     8
  1.110223024625157E-016 -1.479055051177569E-016
  processed                  44310  ao basis integrals from 
                    74  buffers.
  processed                 175018  ao basis integrals from 
                   292  buffers.
  processed                 301620  ao basis integrals from 
                   503  buffers.
      20          -398.195402129532397              0.2909852498D-09
   current occupation vector 
     5  2  2  0  4  1  1  0
     5  2  2  0  4  0  1  0
  processed                  44310  ao basis integrals from 
                    74  buffers.
  processed                 175018  ao basis integrals from 
                   292  buffers.
  processed                 301620  ao basis integrals from 
                   503  buffers.
      21          -398.195402129533079              0.5020632521D-10
   current occupation vector 
     5  2  2  0  4  1  1  0
     5  2  2  0  4  0  1  0
  processed                  44310  ao basis integrals from 
                    74  buffers.
  processed                 175018  ao basis integrals from 
                   292  buffers.
  processed                 301620  ao basis integrals from 
                   503  buffers.
      22          -398.195402129532226              0.2267024068D-10
   current occupation vector 
     5  2  2  0  4  1  1  0
     5  2  2  0  4  0  1  0
  processed                  44310  ao basis integrals from 
                    74  buffers.
  processed                 175018  ao basis integrals from 
                   292  buffers.
  processed                 301620  ao basis integrals from 
                   503  buffers.
      23          -398.195402129533079              0.8031852960D-11
   current occupation vector 
     5  2  2  0  4  1  1  0
     5  2  2  0  4  0  1  0
  processed                  44310  ao basis integrals from 
                    74  buffers.
  processed                 175018  ao basis integrals from 
                   292  buffers.
  processed                 301620  ao basis integrals from 
                   503  buffers.
      24          -398.195402129531942              0.3430644657D-11
   current occupation vector 
     5  2  2  0  4  1  1  0
     5  2  2  0  4  0  1  0
 
 sum over diagonal and offdiagdiagonal of C(T)*S*C for irrep
                     1
  4.729550084903167E-014 -6.723154905871465E-015
 reorthoganalization of MOs is carried out
 sum over diagonal and offdiagdiagonal of C(T)*S*C for irrep
                     1
 -2.664535259100376E-015 -1.617061819659151E-014
 
 sum over diagonal and offdiagdiagonal of C(T)*S*C for irrep
                     2
 -6.217248937900877E-015 -4.322441036878411E-015
 reorthoganalization of MOs is carried out
 sum over diagonal and offdiagdiagonal of C(T)*S*C for irrep
                     2
 -6.661338147750939E-016  1.416694146644128E-015
 
 sum over diagonal and offdiagdiagonal of C(T)*S*C for irrep
                     3
  2.686739719592879E-014  1.719191828521330E-014
 reorthoganalization of MOs is carried out
 sum over diagonal and offdiagdiagonal of C(T)*S*C for irrep
                     3
 -9.992007221626409E-016 -6.122104099819710E-016
 
 sum over diagonal and offdiagdiagonal of C(T)*S*C for irrep
                     4
  5.884182030513330E-015 -8.798897787947683E-016
 reorthoganalization of MOs is carried out
 sum over diagonal and offdiagdiagonal of C(T)*S*C for irrep
                     4
  3.330669073875470E-016 -1.267965970392325E-017
 
 sum over diagonal and offdiagdiagonal of C(T)*S*C for irrep
                     5
  1.754152378907747E-014 -2.825782602847437E-014
 reorthoganalization of MOs is carried out
 sum over diagonal and offdiagdiagonal of C(T)*S*C for irrep
                     5
 -1.332267629550188E-015  1.474727242581449E-015
 
 sum over diagonal and offdiagdiagonal of C(T)*S*C for irrep
                     6
  3.985700658404312E-014 -1.422469079532256E-014
 reorthoganalization of MOs is carried out
 sum over diagonal and offdiagdiagonal of C(T)*S*C for irrep
                     6
 -5.551115123125783E-016 -1.038945011448576E-015
 
 sum over diagonal and offdiagdiagonal of C(T)*S*C for irrep
                     7
 -1.487698852997710E-014 -1.598111423301279E-014
 reorthoganalization of MOs is carried out
 sum over diagonal and offdiagdiagonal of C(T)*S*C for irrep
                     7
 -9.992007221626409E-016  2.246824826576920E-016
 
 sum over diagonal and offdiagdiagonal of C(T)*S*C for irrep
[...]
[  6   4  79  69] 0.03824 [ 11   4  43  69]-0.03606 [  2   4  57  69] 0.03341
[  4   4  72  69]-0.03337 [  4   4  71  69] 0.03059 [  2   4  58  69]-0.02616
[  6   4  81  69]-0.02613 [  9   4  17  69] 0.02433 [  6   4  80  69] 0.02424
-----------------------------------------------------------------------------
   Norm of T2AB vector (    90931 symmetry allowed elements):  0.3237354704.
-----------------------------------------------------------------------------
  W(mnij) AA contribution =  0.0082768865 a.u.
  W(mnij) BB contribution =  0.0120120918 a.u.
  W(mnij) AB contribution =  0.0817350250 a.u.
  W(abef) AA contribution =  0.0086796337 a.u.
  W(abef) BB contribution =  0.0123304211 a.u.
  W(abef) AB contribution =  0.0869135466 a.u.
  W(mbej) AA contribution =  -0.0129525357 a.u.
  W(mbej) BB contribution =  -0.0217229901 a.u.
  W(mbej) AB contribution = -0.2127155807 a.u.
   After  21 iterations, amplitude changes are:
    -------------------------------------------------------------------
                 Spin      RMS          Max.      Max. change for
     Amplitude   Case     Change       Change       i    j    a    b
    -------------------------------------------------------------------
        T1        AA    0.0000000000 0.0000000008   10        70
        T1        BB    0.0000000000 0.0000000006    6        40
        T2        AA    0.0000000000 0.0000000000   11    4   70   41
        T2        BB    0.0000000000-0.0000000002   10    4   69   40
        T2        AB    0.0000000000 0.0000000005    9    4   12   69
    -------------------------------------------------------------------
   The AA contribution to the correlation energy is:   -0.0835423 a.u.
   The BB contribution to the correlation energy is:   -0.0906955 a.u.
   The AB contribution to the correlation energy is:   -0.5033585 a.u.
   The total correlation energy is -0.677596335793 a.u.
   The total correlation energy is -0.677596335793 a.u.
  Current DIIS expansion coefficients : 
 [   1] 1.0110669460 [   2] 0.0242015824 [   3]-0.0009881116 [   4]-0.1560693749
 [   5] 0.1217889579
  Convergence information after    21 iterations: 
  Largest element of residual vector :  0.82978836E-09.
  Largest element of DIIS residual   :  0.65472796E-09.
  Amplitude equations converged in    21iterations.
   The AA contribution to the correlation energy is:   -0.0835423 a.u.
   The BB contribution to the correlation energy is:   -0.0906955 a.u.
   The AB contribution to the correlation energy is:   -0.5033585 a.u.
   The total correlation energy is -0.677596335819 a.u.
   The total correlation energy is -0.677596335819 a.u.
   The CC iterations have converged.

            ----------------------------------------------
                     Projected spin multiplicities: 
            ----------------------------------------------
             <0|S^2|0>                  =    0.7500000000.
             <0|S^2 (T2+T1**2) |0>      =    0.0000000000.
             <0|S^2 T1|0>               =    0.0000000000.
             Projected <0|S^2 exp(T)|0> =    0.7500000000.
             Approximate spin mult.     =    2.0000000000.
            ----------------------------------------------
   Largest T1 amplitudes for spin case AA:
   i       a                 i       a                 i       a    
-----------------------------------------------------------------------------
[  2      12    ] 0.04048 [  4      34    ] 0.03803 [  6      41    ] 0.02889
[  4      32    ]-0.02372 [  2      14    ] 0.02176 [  4      37    ] 0.01650
[ 11      79    ] 0.01516 [ 10      70    ] 0.01157 [  4      33    ]-0.00957
[  6      42    ] 0.00886 [  8      61    ] 0.00814 [  1      20    ] 0.00801
[ 10      74    ] 0.00800 [  9      63    ] 0.00636 [  6      46    ] 0.00591
-----------------------------------------------------------------------------
   Norm of T1AA vector (      136 symmetry allowed elements):  0.0801000926.
-----------------------------------------------------------------------------
   Largest T2 amplitudes for spin case AA:
   i   j   a   b             i   j   a   b             i   j   a   b
-----------------------------------------------------------------------------
[  5   3  53  25]-0.01223 [  5   3  44  35]-0.01188 [  7   3  60  35]-0.00943
[  7   5  60  44]-0.00942 [  7   5  84  26]-0.00931 [  7   3  75  26]-0.00923
[ 11  10  88  61] 0.00918 [ 11   4  61  52]-0.00896 [ 11   4  88  20] 0.00895
[ 10   6  88  20]-0.00894 [ 10   6  61  52] 0.00893 [  6   4  52  20] 0.00893
[  6   4  88  61] 0.00891 [ 11  10  52  20] 0.00878 [  6   4  43  34]-0.00791
-----------------------------------------------------------------------------
   Norm of T2AA vector (    21712 symmetry allowed elements):  0.1032880691.
-----------------------------------------------------------------------------
   Largest T1 amplitudes for spin case BB:
   i       a                 i       a                 i       a    
-----------------------------------------------------------------------------
[  4      31    ] 0.05939 [  2      11    ] 0.04621 [  6      40    ] 0.03586
[  2      13    ] 0.02728 [ 10      79    ] 0.02154 [  4      32    ] 0.02036
[  4      33    ]-0.01589 [  6      41    ] 0.01160 [  9      56    ] 0.01150
[  6      42    ]-0.01129 [ 10      80    ] 0.00960 [  1      11    ] 0.00838
[  9      57    ]-0.00833 [  2      16    ] 0.00773 [  8      55    ] 0.00711
-----------------------------------------------------------------------------
   Norm of T1BB vector (      127 symmetry allowed elements):  0.1003713100.
-----------------------------------------------------------------------------
   Largest T2 amplitudes for spin case BB:
   i   j   a   b             i   j   a   b             i   j   a   b
-----------------------------------------------------------------------------
[  9   4  69  11]-0.05447 [ 10   4  69  40]-0.04440 [  9   4  69  13]-0.03820
[  6   4  79  69] 0.03347 [ 10   4  69  42] 0.03037 [  4   2  69  56] 0.02940
[  6   4  81  69]-0.02191 [  4   2  69  57]-0.02146 [  6   4  80  69] 0.02077
[  9   4  69  16]-0.02027 [  9   4  69  18]-0.01691 [ 10   4  69  41]-0.01605
[  8   4  69  11]-0.01367 [  8   4  69  17]-0.01281 [  5   3  52  24]-0.01224
-----------------------------------------------------------------------------
   Norm of T2BB vector (    18346 symmetry allowed elements):  0.1522402508.
-----------------------------------------------------------------------------
   Largest T2 amplitudes for spin case AB:
       _       _                 _       _                 _       _
   i   j   a   b             i   j   a   b             i   j   a   b
-----------------------------------------------------------------------------
[ 10   4  32  69] 0.05939 [  9   4  12  69] 0.05879 [ 11   4  41  69] 0.04907
[  4   4  70  69] 0.04735 [ 10   4  34  69]-0.04598 [  9   4  14  69] 0.04201
[  6   4  79  69] 0.03824 [ 11   4  43  69]-0.03606 [  2   4  57  69] 0.03341
[  4   4  72  69]-0.03337 [  4   4  71  69] 0.03059 [  2   4  58  69]-0.02616
[  6   4  81  69]-0.02613 [  9   4  17  69] 0.02433 [  6   4  80  69] 0.02424
-----------------------------------------------------------------------------
   Norm of T2AB vector (    90931 symmetry allowed elements):  0.3237354708.
-----------------------------------------------------------------------------
       Summary of iterative solution of CC equations 
      -----------------------------------------------------------
                       Correlation           Total
       Iteration         Energy              Energy
      -----------------------------------------------------------
            0        -0.688443182706    -398.883845312237  DIIS 
            1        -0.655453136014    -398.850855265545  DIIS 
            2        -0.680267198181    -398.875669327712  DIIS 
            3        -0.675782255860    -398.871184385391  DIIS 
            4        -0.676981786987    -398.872383916518  DIIS 
            5        -0.677562211280    -398.872964340811  DIIS 
            6        -0.677600207408    -398.873002336939  DIIS 
            7        -0.677590828606    -398.872992958137  DIIS 
            8        -0.677597959319    -398.873000088851  DIIS 
            9        -0.677592353620    -398.872994483152  DIIS 
           10        -0.677596025015    -398.872998154547  DIIS 
           11        -0.677595830251    -398.872997959783  DIIS 
           12        -0.677596075130    -398.872998204661  DIIS 
           13        -0.677596278557    -398.872998408089  DIIS 
           14        -0.677596302025    -398.872998431556  DIIS 
           15        -0.677596336024    -398.872998465555  DIIS 
           16        -0.677596335053    -398.872998464584  DIIS 
           17        -0.677596337632    -398.872998467164  DIIS 
           18        -0.677596336323    -398.872998465854  DIIS 
           19        -0.677596335844    -398.872998465375  DIIS 
           20        -0.677596335706    -398.872998465237  DIIS 
           21        -0.677596335819    -398.872998465350  DIIS 
      -----------------------------------------------------------
      A miracle has come to pass. The CC iterations have converged.
 @DIMT3-I, Dimensions of T3 amplitudes : 
               # abc          # ijk       Symmetry    Spin 
                    10178             22     1          1
                     9912             18     2          1
                     9912             18     3          1
                     9422             22     4          1
                    10350             18     5          1
                     9912             22     6          1
                     9912             22     7          1
                     9481             23     8          1
                    32481             78     1          2
                    30898             64     2          2
                    30744             70     3          2
                    29121             58     4          2
                    32529             77     5          2
                    30881             70     6          2
                    30762             71     7          2
                    29064             62     8          2
                    32868             72     1          3
                    31358             56     2          3
                    31050             68     3          3
                    29508             50     4          3
                    32916             73     5          3
                    31403             54     6          3
                    31086             67     7          3
                    29451             55     8          3
                    10565             16     1          4
                    10372             10     2          4
                    10218             16     3          4
                     9809             14     4          4
                    10737             14     5          4
                    10355             16     6          4
                    10236             18     7          4
                     9868             16     8          4
 @DIMT3-I, Dimensions of T3 amplitudes : 
               # abc          # ijk       Symmetry    Spin 
                    10178             22     1          1
                     9912             18     2          1
                     9912             18     3          1
                     9422             22     4          1
                    10350             18     5          1
                     9912             22     6          1
                     9912             22     7          1
                     9481             23     8          1
                    32481             78     1          2
                    30898             64     2          2
                    30744             70     3          2
                    29121             58     4          2
                    32529             77     5          2
                    30881             70     6          2
                    30762             71     7          2
                    29064             62     8          2
                    32868             72     1          3
                    31358             56     2          3
                    31050             68     3          3
                    29508             50     4          3
                    32916             73     5          3
                    31403             54     6          3
                    31086             67     7          3
                    29451             55     8          3
                    10565             16     1          4
                    10372             10     2          4
                    10218             16     3          4
                     9809             14     4          4
                    10737             14     5          4
                    10355             16     6          4
                    10236             18     7          4
                     9868             16     8          4
 @TRPS-I, Welcome to TRPS. Watch your RUs ! 
 @TRPS-I, Method is CCSD(T) 
 @TRPS-I, Calculation type is energy 
 @TRPS-I, Reference function information : 
          Reference function is general non-HF 
 @TRPS-I, Reference function is ROHF 
 @TRPS-I, INT1 is true 
 @TRPS-I, INT2 is false 
 @TRPS-I, Lengths of ijka integrals. #1       6199
                                     #2       4755
                                     #3      11624
                                     #4      12831
                                    Max      12831
 @INITRP-I, Initializing W intermediate lists. 
 @TSPABCI-I, AbIc/AbcI record transposition. 
 @TSPABCI-I, (O,v) ---> (v,O) transposition. 
 @TSPABCI-I, In-core algorithm is being used. 
 @TSPABCI-I, In-core algorithm is being used. 
 @TSPABCI-I, In-core algorithm is being used. 
 @TSPABCI-I, In-core algorithm is being used. 
 @TSPABCI-I, In-core algorithm is being used. 
 @TSPABCI-I, In-core algorithm is being used. 
 @TSPABCI-I, In-core algorithm is being used. 
 @TSPABCI-I, In-core algorithm is being used. 
 @TRPS-I, Available memory in integer words    499959040
          Number of pre-allocated words for TRPS14        38702
          Number of free words for TRPS14    499920338
 @TRPS14-I, Spin case AAA 
 @TRPS14-I, Number of free integer words  499920338
            Number of free double words   499920338
            Ratio                                 1
 @TRPS14-I, E4TAAA      -0.000298617277
 @TRPS14-I, E5ST A    0.000022197919140
 @TRPS14-I, E4ST A   -0.000007645611418
 @TRPS-I, Available memory in integer words    499959040
          Number of pre-allocated words for TRPS14        38692
          Number of free words for TRPS14    499920348
 @TRPS14-I, Spin case BBB 
 @TRPS14-I, Number of free integer words  499920348
            Number of free double words   499920348
            Ratio                                 1
 @TRPS14-I, E4TBBB      -0.000973205936
 @TRPS14-I, E5ST B    0.000146577368895
 @TRPS14-I, E4ST B    0.000015278587582
 @SETOOOV-I, Some OOOV lists are being transposed. 
 @TRPS-I, Available memory in integer words    499959040
          Number of pre-allocated words for TRPS2        46554
          Number of free words for TRPS2    499912486
 @TRPS2-I, Spin case AAB 
 @TRPS2-I, Number of free integer words  499912486
           Number of free double  words  499912486
           Ratio                                 1
 @TRPS2-I, E4TBAA      -0.008952571221
 @TRPS2-I, E5ST A    0.000316718688101
 @TRPS2-I, E5ST B    0.000285027580008
 @TRPS2-I, E4ST A   -0.000156343572050
 @TRPS2-I, E4ST B    0.000017621651799
 @SETOOOV-I, Some OOOV lists are being transposed. 
 @TSPABCI2-I, (Alpha,Beta) ---> (Beta,Alpha). 
 @TSPABCI2-I, In-core algorithm is being used. 
 @TSPABCI2-I, In-core algorithm is being used. 
 @TSPABCI2-I, In-core algorithm is being used. 
 @TSPABCI2-I, In-core algorithm is being used. 
 @TSPABCI2-I, In-core algorithm is being used. 
 @TSPABCI2-I, In-core algorithm is being used. 
 @TSPABCI2-I, In-core algorithm is being used. 
 @TSPABCI2-I, In-core algorithm is being used. 
 @TSPABCI2-I, In-core algorithm is being used. 
 @TSPABCI2-I, In-core algorithm is being used. 
 @TSPABCI2-I, In-core algorithm is being used. 
 @TSPABCI2-I, In-core algorithm is being used. 
 @TSPABCI2-I, In-core algorithm is being used. 
 @TSPABCI2-I, In-core algorithm is being used. 
 @TSPABCI2-I, In-core algorithm is being used. 
 @TSPABCI2-I, In-core algorithm is being used. 
 @AT2IAB-I, Some AbIj lists are being altered. 
 @TRPS-I, Available memory in integer words    499959040
          Number of pre-allocated words for TRPS3       200720
          Number of free words for TRPS3    499758320
 @TRPS3-I, Spin case BBA 
 @TRPS3-I, Number of free integer words  499758320
           Number of free double  words  499758320
           Ratio                                 1
 @TRPS3-I, E4TBBA      -0.011069590517
 @TRPS3-I, E5ST A    0.000547321695644
 @TRPS3-I, E5ST B    0.000910620612525
 @TRPS3-I, E4ST A   -0.000244576753435
 @TRPS3-I, E4ST B    0.000083509789710
 @TSPABCI2-I, (Beta,Alpha) ---> (Alpha,Beta). 
 @TSPABCI2-I, In-core algorithm is being used. 
 @TSPABCI2-I, In-core algorithm is being used. 
 @TSPABCI2-I, In-core algorithm is being used. 
 @TSPABCI2-I, In-core algorithm is being used. 
 @TSPABCI2-I, In-core algorithm is being used. 
 @TSPABCI2-I, In-core algorithm is being used. 
 @TSPABCI2-I, In-core algorithm is being used. 
 @TSPABCI2-I, In-core algorithm is being used. 
 @TSPABCI2-I, In-core algorithm is being used. 
 @TSPABCI2-I, In-core algorithm is being used. 
 @TSPABCI2-I, In-core algorithm is being used. 
 @TSPABCI2-I, In-core algorithm is being used. 
 @TSPABCI2-I, In-core algorithm is being used. 
 @TSPABCI2-I, In-core algorithm is being used. 
 @TSPABCI2-I, In-core algorithm is being used. 
 @TSPABCI2-I, In-core algorithm is being used. 
 @AT2IAB-I, Some AbIj lists are being altered. 
 @TSPABCI-I, AbIc/AbcI record transposition. 
 @TSPABCI-I, (v,O) ---> (O,v) transposition. 
 @TSPABCI-I, In-core algorithm is being used. 
 @TSPABCI-I, In-core algorithm is being used. 
 @TSPABCI-I, In-core algorithm is being used. 
 @TSPABCI-I, In-core algorithm is being used. 
 @TSPABCI-I, In-core algorithm is being used. 
 @TSPABCI-I, In-core algorithm is being used. 
 @TSPABCI-I, In-core algorithm is being used. 
 @TSPABCI-I, In-core algorithm is being used. 
 @CCENRG-I, CCSD/QCISD energy will now be evaluated. 
 @CCENRG-I, Correlation energies. ECCAA       -0.083542290212
                                  ECCBB       -0.090695499681
                                  ECCAB       -0.503358545926
                                  Total       -0.677596335819
 @CCENRG-I, Reference   energy    -398.195402129531
            CCSD/QCISD energy     -398.872998465350
          E4T (T(CCSD)) = -0.021293984951
          E5ST          =  0.001457942308
          E4ST          = -0.000161066964
          In other words  
          <T3[2](Dagger) D3  T3[2]> = -0.021293984951
          <T1   (Dagger) Q1 WT3[2]> =  0.001457942308
          <T2   (Dagger) Q2 FT3[2]> = -0.000161066964
        E(CCSD)           =    -398.872998465350
        E(CCSD(T))        =    -398.892995574957
  @CHECKOUT-I, Total execution time (CPU/WALL):       13.27/      14.12 seconds.
--executable xvcc finished with status     0 in       14.34 seconds (walltime).
  The final electronic energy is      -398.892995574957069 a.u. 
  This computation required                           24.39 seconds (walltime).
--- SharcNET Job Epilogue ---
Job completed successfully.
               jobid: 1968112
               resid: 3436254
         exit status: 0
      allocated time: 25.4209
           user time: 15.4
         system time: 2.39
peak rss=214048768; peak vsz=214048768 (bytes)
atime=25.4209; utime=15.4; stime=2.39; exit=0
