 --invoking executable--
/home/nike/cfour_v2.00beta/bin/xjoda


   *************************************************************************
         <<<     CCCCCC     CCCCCC   |||     CCCCCC     CCCCCC   >>>
       <<<      CCC        CCC       |||    CCC        CCC         >>>
      <<<      CCC        CCC        |||   CCC        CCC            >>>
    <<<        CCC        CCC        |||   CCC        CCC              >>>
      <<<      CCC        CCC        |||   CCC        CCC            >>>
       <<<      CCC        CCC       |||    CCC        CCC         >>>
         <<<     CCCCCC     CCCCCC   |||     CCCCCC     CCCCCC   >>>
   *************************************************************************

     ****************************************************************
     * CFOUR Coupled-Cluster techniques for Computational Chemistry *
     ****************************************************************
 

   Department of Chemistry                Institut fuer Physikalische Chemie
   University of Texas at Austin          Universitaet Mainz
   Austin, TX  78712, USA                 D-55099 Mainz, Germany
 
                       Version 2.00beta
 
                     wob142                                            
                     Mon Sep 26 03:08:06 EDT 2016                      
                     integer*8 version is running
 
********************************************************************************
*                          Input from ZMAT file                                *
********************************************************************************
TITLE                                                                           
Ne                                                                              
                                                                                
*ACES2(CALC=CCSDTQ                                                              
CC_PROG=MRCC                                                                    
cctol=9                                                                         
CC_MAXCYC=999                                                                   
REFERENCE=RHF                                                                   
MULT=1                                                                          
ABCDTYPE=STANDARD                                                               
MEM=42                                                                          
MEM_UNIT=GB                                                                     
CONTRACTION=UNCONTRACTED                                                        
BASIS=SPECIAL)                                                                  
                                                                                
NE:cc-pCV6Z                                                                     
                                                                                
********************************************************************************
  @GTFLGS-W, Keyword cctol not known and is ignored.
    -------------------------------------------------------------------
                    CFOUR Control Parameters 
    -------------------------------------------------------------------
        External           Internal           Value            Units
          Name               Name
    -------------------------------------------------------------------
       ABCDTYPE             IABCDT         STANDARD     [  0]   ***   
       ANHARMONIC           IANHAR         OFF          [  0]   ***   
       ANH_ALGORIT          IANALG         STANDARD     [  0]   ***   
       ANH_DERIVAT          IANDER         SECOND       [  1]   ***   
       ANH_STEPSIZ          ICUBST             50000          x 10-6  
       ANH_SYMMETR          IANHSM         ABELIAN      [  0]   ***   
       AO_LADDERS           IAOLAD         SINGLEPASS   [  1]   ***   
       BASIS                IBASIS         SPECIAL      [  0]   ***   
       BREIT                IBREIT         OFF          [  0]   ***   
       BRUCK_CONV           IBRTOL          10D-  4             ***   
       BRUECKNER            IBRKNR             OFF      [  0]   ***   
       BUFFERSIZE           IBUFFS            600               ***   
       CACHE_RECS           ICHREC             10               ***   
       CALCLEVEL            ICLLVL           CCSDTQ     [ 46]   ***   
       CCORBOPT             ICCORB             OFF      [  0] x 0.01  
       CC_CONV              ICCCNV          10D-  7             ***   
       CC_EXPORDER          ICCEOR              5               ***   
       CC_EXTRAPOL          ICCEXT             DIIS     [  1]   ***   
       CC_MAXCYC            ICCCYC            999              cycles 
       CC_PROGRAM           ICCPRO         MRCC         [  2]   ***   
       CHARGE               ICHRGE              0               ***   
       CHOLESKY             ICHOLE         OFF          [  0]   ***   
       CIS_CONV             ICISTL              5               ***   
       COMM_SIZE            IPSIZE            ***               ***   
       CONSTANT             ICONST         OLD          [  1]   ***   
       CONTINUUM            ICONTU         NONE         [  0]   ***   
       CONTRACTION          ICNTYP         UNCONTRACTED [  2]   ***   
       COORDINATES          ICOORD         INTERNAL     [  0]   ***   
       CPHF_CONVER          ICPHFT          10D- 16             ***   
       CPHF_MAXCYC          ICPHFC             64              cycles 
       CUBIC                ICUBIC         OFF          [  0]   ***   
       CURVILINEAR          ICURVY            OFF       [  0]   ***   
       DBOC                 IDBOC          OFF          [  0]   ***   
       DCT                  IDCT           OFF          [  0]   ***   
       DERIV_LEV            IDRLVL            ZERO      [  0]   ***   
       DIAG_MRCC            IEOMST          10D-  0             ***   
       DIFF_TYPE            IDIFTY         RELAXED      [  0]   ***   
       DIRECT               IDIRCT         OFF          [  0]   ***   
       DROPMO               IDRPMO      NONE         
       ECP                  IECP           OFF          [  0]   ***   
       EIGENVECTOR          IVEC                1               ***   
       EL_ANHARM            IELANH         OFF          [  0]   ***   
       EOMFOLLOW            IEOMSR         ENERGY       [  0]   ***   
       EOM_MRCC             IMRCCE         NEW          [  1]   ***   
       EOM_NONIT            EOMNON         OFF          [  0]   ***   
       EOM_NSING            IEOMSI          10D-  0             ***   
       EOM_NSTATES          IMRCCD         DAVIDSON     [  0]   ***   
       EOM_NTRIP            IEOMTR          10D-  0             ***   
       EOM_ORDER            IEXORD         ENERGY       [  0]   ***   
       ESTATE_CONV          IEXTOL          10D-  5             ***   
       ESTATE_DIAG          IEXDIG         ITERATIVE    [  0]   ***   
       ESTATE_LOCK          IESLOC         ON           [  1]   ***   
       ESTATE_MAXC          IEXMXC             20               ***   
       ESTATE_PROP          IEXPRP         OFF          [  0]   ***   
       EVAL_HESS            IRECAL              0            # of cyc.
       EXCITATION           IEXCIT              0               ***   
       EXCITE               IEXCIT         NONE         [  0]   ***   
       FCGRADNEW            IFCGNW         OFF          [  0]   ***   
       FC_FIELD             IFINFC              0             x 10-6  
       FD_CALTYPE           IFDCAL         GRADONLY     [  0]   ***   
       FD_PROJECT           IFDPRJ         OFF          [  1]   ***   
       FD_STEPSIZE          IDISFD              0            10-4 bohr
       FD_USEGROUP          IFDGRP         FULL         [  0]   ***   
       FILE_RECSIZ          IFLREC              4096           words  
       FINITE_PERT          IFIPER              0             x 10-6  
       FIXGEOM              IFIXGM         OFF          [  0]   ***   
       FOCK                 IFOCK          AO           [  1]   ***   
       FREQ_ALGORI          IVIALG         STANDARD     [  0]   ***   
       FROZEN_CORE          IFROCO         OFF          [  0]   ***   
       FROZEN_VIRT          IFROVI         OFF          [  0]   ***   
       GAMMA_ABCD           IGABCD         STORE        [  0]   ***   
       GAMMA_ABCI           IGABCI         STORE        [  0]   ***   
       GENBAS_1             IGNBS1              0               ***   
       GENBAS_2             IGNBS2              0               ***   
       GENBAS_3             IGNBS3              0               ***   
       GENBAS_4             IGNBS4              0               ***   
       GEO_CONV             ICONTL              5              H/bohr 
       GEO_MAXCYC           IOPTCY             50               ***   
       GEO_MAXSTEP          IMXSTP            300            millibohr
       GEO_METHOD           INR            SINGLE_POINT [  5]   ***   
       GIAO                 IGIAO          OFF          [  1]   ***   
       GIMIC                IGIMIC         OFF          [  0]   ***   
       GRID                 IGRID          OFF          [  0]   ***   
       GRID_ALGO            IGALGO         SERIAL       [  0]   ***   
       GUESS                IGUESS            MOREAD    [  0]   ***   
       HBAR                 IHBAR              OFF      [  0]   ***   
       HESS_TYPE            IHESTP         SCF          [  0]   ***   
       HF2_FILE             IHF2Fl         USE          [  1]   ***   
       HFSTABILITY          ISTABL         OFF          [  0]   ***   
       INCORE               INCORE             OFF      [  0]   ***   
       INPUT_MRCC           IMRCC          ON           [  1]   ***   
       INTEGRALS            INTTYP             VMOL     [  1]   ***   
       JODA_PRINT           IJPRNT              0               ***   
       LINDEP_TOL           ILINDP              8               ***   
       LINEQ_CONV           IZTACN          10D-  7           cycles  
       LINEQ_EXPOR          ILMAXD              5               ***   
       LINEQ_MAXCY          ILMAXC             50               ***   
       LINEQ_TYPE           ILTYPE         DIIS         [  1]   ***   
       LOCK_ORBOCC          ILOCOC             OFF      [  0]   ***   
       MEMORY_SIZE          IMEMSZ         *********           words  
       MEM_UNIT             IMEMU          GB           [  3]   ***   
       MRCC                 IMRCCC         OFF          [  0]   ***   
       MULTIPLICTY          IMULTP              1               ***   
       NEGEVAL              IDIE             ABORT      [  0]   ***   
       NEWNORM              INEWNO         OFF          [  0]   ***   
       NON-HF               INONHF             OFF      [  0]   ***   
       NTOP_TAMP            ITOPT2             15               ***   
       NUC_MODEL            INUCMO         POINT        [  0]   ***   
       OCCUPATION           IOCCU   ESTIMATED BY SCF 
       OPEN-SHELL           IOPEN          SPIN-ORBITAL [  0]   ***   
       ORBITALS             IORBTP           STANDARD   [  0]   ***   
       PARALLEL             IPARAL         ON           [  1]   ***   
       PARA_INT             IPINTS         ON           [  1]   ***   
       PARA_PRINT           IPPRIN              0               ***   
       PERT_ORB             IPTORB         STANDARD     [  0]   ***   
       POINTS               IGRDFD              0               ***   
       PRINT                IPRNT               0               ***   
       PROPS                IPROPS             OFF      [  0]   ***   
       PROP_INTEGR          IINTYP         INTERNAL     [  0]   ***   
       PSI                  IPSI           OFF          [  0]   ***   
       QUARTIC              IQUART         OFF          [  0]   ***   
       RAMAN_INT            IRAMIN         OFF          [  0]   ***   
       RAMAN_ORB            IRAMRE         UNRELAXED    [  0]   ***   
       RDO                  IRDOFM             OFF      [  0]   ***   
       REFERENCE            IREFNC             RHF      [  0]   ***   
       RELATIVIST           IRELAT         OFF          [  0]   ***   
       RELAX_DENS           IRDENS             OFF      [  0]   ***   
       RESET_FLAGS          IRESET             OFF      [  0]   ***   
       RESTART_CC           ICCRES         OFF          [  0]   ***   
       ROT_EVEC             ROTVEC              0               ***   
       SAVE_INTS            ISVINT             OFF      [  0]   ***   
       SCALE_ON             ISTCRT              0               ***   
       SCF_CONV             ISCFCV          10D-  7             ***   
       SCF_DAMPING          IDAMP               0             x 10-3  
       SCF_EXPORDE          IRPPOR              6               ***   
       SCF_EXPSTAR          IRPPLS              8               ***   
       SCF_EXTRAPO          IRPP                ON      [  1]   ***   
       SCF_MAXCYC           ISCFCY            150              cycles 
       SCF_NOSTOP           ISCFST         OFF          [  0]   ***   
       SCF_PRINT            ISCFPR              0               ***   
       SD_FIELD             IFINSD              0             x 10-6  
       SEQUENCE             ISEQUE         OFF          [  0]   ***   
       SOPERT               IPERSO         OFF          [  0]   ***   
       SPHERICAL            IDFGHI             ON       [  1]   ***   
       SPINORBIT            ISOCAL         OFF          [  0]   ***   
       SPINROTATIO          ISRCON         OFF          [  0]   ***   
       SPIN_FLIP            ISPFLP         OFF          [  0]   ***   
       SPIN_ORBIT           ISPORB         OFF          [  0]   ***   
       SPIN_SCAL            ISCSMP         OFF          [  0]   ***   
       SUBGROUP             ISUBGP         DEFAULT      [  0]   ***   
       SUBGRPAXIS           ISBXYZ         X            [  0]   ***   
       SYMMETRY             ISYM             ON         [  0]   ***   
       SYM_CHECK            ISYMCK         OVERRIDE     [  1]   ***   
       T3_EXTRAPOL          IT3EXT         OFF          [  0]   ***   
       TAMP_SUM             IEVERY              5               ***   
       TESTSUITE            ITESTS         OFF          [  0]   ***   
       THERMOCH             ITHERM         OFF          [  0]   ***   
       TOL_CHOLESK          ITOLCH          10D-  4             ***   
       TRANGRAD             IRESRM         OFF          [  0]   ***   
       TRANS_INV            ITRAIN         USE          [  0]   ***   
       TREAT_PERT           ITREAT         SIMULTANEOUS [  0]   ***   
       UIJ_THRESHO          IUIJTH              1               ***   
       UNITS                IUNITS         ANGSTROM     [  0]   ***   
       UNOS                 IUNOS          OFF          [  0]   ***   
       UPDATE_HESS          IHUPDT         ON           [  1]   ***   
       VIBPHASE             ISETPH         STANDARD     [  0]   ***   
       VIBRATION            IVIB              NO        [  0]   ***   
       VIB_ALGORIT          IGEALG         STANDARD     [  0]   ***   
       VNATORB              IVNORB         OFF          [  0]   ***   
       VTRAN                IVTRAN         FULL/PARTIAL [  0]   ***   
       XFIELD               IXEFLD              0             x 10-6  
       XFORM_TOL            IXFTOL          10D- 11             ***   
       YFIELD               IYEFLD              0             x 10-6  
       ZFIELD               IZEFLD              0             x 10-6  
    -------------------------------------------------------------------
   1 entries found in Z-matrix 
   Job Title : TITLE                                                                           
  1  NE        10    19.99244
 factor:   60.1997200000000     
   Rotational constants (in cm-1): 

   Rotational constants (in MHz): 

********************************************************************************
   The full molecular point group is I h .
   The largest Abelian subgroup of the full molecular point group is D2h .
   The computational point group is D2h .
********************************************************************************
  @GTFLGS-W, Keyword cctol not known and is ignored.
  Uncontracted basis cc-pCV6Z   is used.
  Uncontracted basis cc-pCV6Z   is used.
  There are  251 basis functions.
 @GEOPT-W, Archive file not created for single-point calculation.
  @CHECKOUT-I, Total execution time (CPU/WALL):        0.10/       1.01 seconds.
--executable xjoda finished with status     0 in        1.14 seconds (walltime).
 --invoking executable--
/home/nike/cfour_v2.00beta/bin/xvmol
 Serial version of molecule started
********************************************************************************
                    Input from MOL file
********************************************************************************
INTGRL        1    0    1    0    0    0    0    0    0                         
         *** CFOUR Program System (Release V0.1) ***                            
TITLE                                                                           
    1    3 X  Y   Z   0.10E-08              0    0                              
   9999.00      3.00                                                            
         10.00000000    1    7    4    3    3    3    3    3    1               
NE#1   0.000000000000000   0.000000000000000   0.000000000000000                
    6    6                                                                      
   902400.000000000        1.00000000000000       0.000000000000000E+000        
  0.000000000000000E+000  0.000000000000000E+000  0.000000000000000E+000        
  0.000000000000000E+000                                                        
   135100.000000000       0.000000000000000E+000   1.00000000000000             
  0.000000000000000E+000  0.000000000000000E+000  0.000000000000000E+000        
  0.000000000000000E+000                                                        
   30750.0000000000       0.000000000000000E+000  0.000000000000000E+000        
   1.00000000000000       0.000000000000000E+000  0.000000000000000E+000        
  0.000000000000000E+000                                                        
   8710.00000000000       0.000000000000000E+000  0.000000000000000E+000        
  0.000000000000000E+000   1.00000000000000       0.000000000000000E+000        
  0.000000000000000E+000                                                        
   2842.00000000000       0.000000000000000E+000  0.000000000000000E+000        
  0.000000000000000E+000  0.000000000000000E+000   1.00000000000000             
  0.000000000000000E+000                                                        
   1026.00000000000       0.000000000000000E+000  0.000000000000000E+000        
  0.000000000000000E+000  0.000000000000000E+000  0.000000000000000E+000        
   1.00000000000000                                                             
    6    6                                                                      
   400.100000000000        1.00000000000000       0.000000000000000E+000        
  0.000000000000000E+000  0.000000000000000E+000  0.000000000000000E+000        
  0.000000000000000E+000                                                        
   165.900000000000       0.000000000000000E+000   1.00000000000000             
  0.000000000000000E+000  0.000000000000000E+000  0.000000000000000E+000        
  0.000000000000000E+000                                                        
   72.2100000000000       0.000000000000000E+000  0.000000000000000E+000        
   1.00000000000000       0.000000000000000E+000  0.000000000000000E+000        
  0.000000000000000E+000                                                        
   32.6600000000000       0.000000000000000E+000  0.000000000000000E+000        
  0.000000000000000E+000   1.00000000000000       0.000000000000000E+000        
  0.000000000000000E+000                                                        
   15.2200000000000       0.000000000000000E+000  0.000000000000000E+000        
  0.000000000000000E+000  0.000000000000000E+000   1.00000000000000             
  0.000000000000000E+000                                                        
   7.14900000000000       0.000000000000000E+000  0.000000000000000E+000        
  0.000000000000000E+000  0.000000000000000E+000  0.000000000000000E+000        
   1.00000000000000                                                             
    6    6                                                                      
   2.95700000000000        1.00000000000000       0.000000000000000E+000        
  0.000000000000000E+000  0.000000000000000E+000  0.000000000000000E+000        
  0.000000000000000E+000                                                        
   1.33500000000000       0.000000000000000E+000   1.00000000000000             
  0.000000000000000E+000  0.000000000000000E+000  0.000000000000000E+000        
  0.000000000000000E+000                                                        
  0.581600000000000       0.000000000000000E+000  0.000000000000000E+000        
   1.00000000000000       0.000000000000000E+000  0.000000000000000E+000        
  0.000000000000000E+000                                                        
  0.246300000000000       0.000000000000000E+000  0.000000000000000E+000        
  0.000000000000000E+000   1.00000000000000       0.000000000000000E+000        
  0.000000000000000E+000                                                        
   526.136700000000       0.000000000000000E+000  0.000000000000000E+000        
  0.000000000000000E+000  0.000000000000000E+000   1.00000000000000             
  0.000000000000000E+000                                                        
   264.997600000000       0.000000000000000E+000  0.000000000000000E+000        
  0.000000000000000E+000  0.000000000000000E+000  0.000000000000000E+000        
   1.00000000000000                                                             
    3    3                                                                      
   133.470400000000        1.00000000000000       0.000000000000000E+000        
  0.000000000000000E+000                                                        
   67.2246200000000       0.000000000000000E+000   1.00000000000000             
  0.000000000000000E+000                                                        
   33.8588000000000       0.000000000000000E+000  0.000000000000000E+000        
   1.00000000000000                                                             
    5    5                                                                      
   815.600000000000        1.00000000000000       0.000000000000000E+000        
  0.000000000000000E+000  0.000000000000000E+000  0.000000000000000E+000        
   193.300000000000       0.000000000000000E+000   1.00000000000000             
  0.000000000000000E+000  0.000000000000000E+000  0.000000000000000E+000        
   62.6000000000000       0.000000000000000E+000  0.000000000000000E+000        
   1.00000000000000       0.000000000000000E+000  0.000000000000000E+000        
   23.6100000000000       0.000000000000000E+000  0.000000000000000E+000        
  0.000000000000000E+000   1.00000000000000       0.000000000000000E+000        
   9.76200000000000       0.000000000000000E+000  0.000000000000000E+000        
  0.000000000000000E+000  0.000000000000000E+000   1.00000000000000             
    5    5                                                                      
   4.28100000000000        1.00000000000000       0.000000000000000E+000        
  0.000000000000000E+000  0.000000000000000E+000  0.000000000000000E+000        
   1.91500000000000       0.000000000000000E+000   1.00000000000000             
  0.000000000000000E+000  0.000000000000000E+000  0.000000000000000E+000        
  0.847600000000000       0.000000000000000E+000  0.000000000000000E+000        
   1.00000000000000       0.000000000000000E+000  0.000000000000000E+000        
  0.366000000000000       0.000000000000000E+000  0.000000000000000E+000        
  0.000000000000000E+000   1.00000000000000       0.000000000000000E+000        
  0.151000000000000       0.000000000000000E+000  0.000000000000000E+000        
  0.000000000000000E+000  0.000000000000000E+000   1.00000000000000             
    5    5                                                                      
   558.874100000000        1.00000000000000       0.000000000000000E+000        
  0.000000000000000E+000  0.000000000000000E+000  0.000000000000000E+000        
   250.247000000000       0.000000000000000E+000   1.00000000000000             
  0.000000000000000E+000  0.000000000000000E+000  0.000000000000000E+000        
   112.053100000000       0.000000000000000E+000  0.000000000000000E+000        
   1.00000000000000       0.000000000000000E+000  0.000000000000000E+000        
   50.1739900000000       0.000000000000000E+000  0.000000000000000E+000        
  0.000000000000000E+000   1.00000000000000       0.000000000000000E+000        
   22.4664000000000       0.000000000000000E+000  0.000000000000000E+000        
  0.000000000000000E+000  0.000000000000000E+000   1.00000000000000             
    4    4                                                                      
   13.3170000000000        1.00000000000000       0.000000000000000E+000        
  0.000000000000000E+000  0.000000000000000E+000                                
   5.80300000000000       0.000000000000000E+000   1.00000000000000             
  0.000000000000000E+000  0.000000000000000E+000                                
   2.52900000000000       0.000000000000000E+000  0.000000000000000E+000        
   1.00000000000000       0.000000000000000E+000                                
   1.10200000000000       0.000000000000000E+000  0.000000000000000E+000        
  0.000000000000000E+000   1.00000000000000                                     
    4    4                                                                      
  0.480000000000000        1.00000000000000       0.000000000000000E+000        
  0.000000000000000E+000  0.000000000000000E+000                                
   392.716400000000       0.000000000000000E+000   1.00000000000000             
  0.000000000000000E+000  0.000000000000000E+000                                
   169.556400000000       0.000000000000000E+000  0.000000000000000E+000        
   1.00000000000000       0.000000000000000E+000                                
   73.2064700000000       0.000000000000000E+000  0.000000000000000E+000        
  0.000000000000000E+000   1.00000000000000                                     
    1    1                                                                      
   31.6071000000000        1.00000000000000                                     
    3    3                                                                      
   10.3560000000000        1.00000000000000       0.000000000000000E+000        
  0.000000000000000E+000                                                        
   4.53800000000000       0.000000000000000E+000   1.00000000000000             
  0.000000000000000E+000                                                        
   1.98900000000000       0.000000000000000E+000  0.000000000000000E+000        
   1.00000000000000                                                             
    3    3                                                                      
  0.871000000000000        1.00000000000000       0.000000000000000E+000        
  0.000000000000000E+000                                                        
   224.965700000000       0.000000000000000E+000   1.00000000000000             
  0.000000000000000E+000                                                        
   82.4518500000000       0.000000000000000E+000  0.000000000000000E+000        
   1.00000000000000                                                             
    1    1                                                                      
   30.2193000000000        1.00000000000000                                     
    2    2                                                                      
   8.34500000000000        1.00000000000000       0.000000000000000E+000        
   3.41700000000000       0.000000000000000E+000   1.00000000000000             
    2    2                                                                      
   1.39900000000000        1.00000000000000       0.000000000000000E+000        
   119.844900000000       0.000000000000000E+000   1.00000000000000             
    1    1                                                                      
   33.5255000000000        1.00000000000000                                     
    1    1                                                                      
   6.51900000000000        1.00000000000000                                     
    1    1                                                                      
   2.44700000000000        1.00000000000000                                     
    1    1                                                                      
   50.9084700000000        1.00000000000000                                     
    1    1                                                                      
   4.48900000000000        1.00000000000000                                     
FINISH                                                                          
 
********************************************************************************
 One- and two-electron integrals over symmetry-adapted AOs are calculated.

  Spherical harmonics are used.
  
  Integrals less than  0.10E-13 are neglected.

  Nuclear repulsion energy :    0.0000000000 a.u.
  required memory for a1 array                5882008  words 
  required memory for a2 array                3653873  words 
 @GETMEM-I,  Allocated      88 MB of main memory.
  @MOLECU-I, One electron integrals (CPU/WALL):        0.08/       0.11 seconds.
  @TWOEL-I,    1310277 integrals of symmetry type  I I I I
  @TWOEL-I,   11109369 integrals of symmetry type  I J I J
  @TWOEL-I,    6333469 integrals of symmetry type  I I J J
  @TWOEL-I,   25285598 integrals of symmetry type  I J K L
  @TWOEL-I, Total number of 2-e integrals   44038713.
  @MOLECU-I, Two electron integrals (CPU/WALL):       67.87/      68.48 seconds.
  @CHECKOUT-I, Total execution time (CPU/WALL):       72.87/      73.80 seconds.
--executable xvmol finished with status     0 in       73.96 seconds (walltime).
 --invoking executable--
/home/nike/cfour_v2.00beta/bin/xvmol2ja
 @GETMEM-I,  Allocated   40054 MB of main memory.
  @CHECKOUT-I, Total execution time (CPU/WALL):        0.02/       0.19 seconds.
--executable xvmol2ja finished with status     0 in        0.48 seconds (walltime).
 --invoking executable--
/home/nike/cfour_v2.00beta/bin/xvscf
  There are  251 functions in the AO basis.

  There are 8 irreducible representations.

       Irrep        # of functions
         1                 58
         2                 38
         3                 38
         4                 22
         5                 38
         6                 22
         7                 22
         8                 13


  Parameters for SCF calculation: 
        SCF reference function:  RHF  
  Maximum number of iterations:  150
     Full symmetry point group: I h 
     Computational point group: D2h 
        Initial density matrix: MOREAD                 
     SCF convergence tolerance: 10**(- 7)
  DIIS convergence acceleration:  ON
          Latest start for DIIS:   8
                     DIIS order:   6

  Memory information:    3957133 words required.
  Fock matrices are constructed from AO integral file.
 @GETMEM-I,  Allocated      30 MB of main memory.
  Initialization and symmetry analysis required      0.001 seconds.

  @DOVRLP-W,   1 linear dependencies found for irrep 1.

      Eigenvalue:         0.0000000049

        0.000001     -0.000005      0.000016     -0.000052      0.000202
       -0.001728     -0.047308     -0.179596     -0.545844      0.399523
       -0.005908      0.001500     -0.000556      0.000281     -0.000116
        0.000030      0.020680      0.072313      0.193657      0.526260
       -0.433350      0.000000      0.000000      0.000000      0.000000
        0.000000      0.000000      0.000000      0.000000      0.000000
        0.000000      0.000000      0.000000      0.000000      0.000000
        0.000000      0.000000      0.000000      0.000000      0.000000
        0.000000      0.000000      0.000000      0.000000      0.000000
        0.000000      0.000000      0.000000      0.000000      0.000000
        0.000000      0.000000      0.000000      0.000000      0.000000
        0.000000      0.000000      0.000000      0.000006     -0.000026
        0.000090     -0.000286      0.001065     -0.008215     -0.178819
       -0.413181     -0.276006     -0.494737      0.015292     -0.005185
        0.002221     -0.001183      0.000499     -0.000130      0.085321
        0.228199      0.359775      0.180758      0.504538      0.000000
        0.000000      0.000000      0.000000      0.000000      0.000000
        0.000000      0.000000      0.000000      0.000000      0.000000
        0.000000      0.000000      0.000000      0.000000      0.000000
        0.000000      0.000000      0.000000      0.000000      0.000000
        0.000000      0.000000      0.000000      0.000000      0.000000
        0.000000      0.000000      0.000000      0.000000      0.000000
        0.000000      0.000000      0.000000      0.000000      0.000000
        0.000000      0.000025     -0.000113      0.000383     -0.001193
        0.004194     -0.027746     -0.424792     -0.403117      0.358557
        0.278566     -0.022246      0.009641     -0.004610      0.002554
       -0.001096      0.000287      0.232217      0.404468      0.202193
       -0.359543     -0.248614      0.000000      0.000000      0.000000
        0.000000      0.000000      0.000000      0.000000      0.000000
        0.000000      0.000000      0.000000      0.000000      0.000000
        0.000000      0.000000      0.000000      0.000000      0.000000
        0.000000      0.000000      0.000000      0.000000      0.000000
        0.000000      0.000000      0.000000      0.000000      0.000000
        0.000000      0.000000      0.000000      0.000000      0.000000
        0.000000      0.000000      0.000000      0.000000      0.000115
       -0.000510      0.001709     -0.005140      0.016311     -0.081803
       -0.572798      0.399715     -0.096715     -0.117671      0.041977
       -0.021904      0.011350     -0.006480      0.002822     -0.000745
        0.438920      0.166722     -0.450398      0.233532      0.040968
        0.000000      0.000000      0.000000      0.000000      0.000000
        0.000000      0.000000      0.000000      0.000000      0.000000
        0.000000      0.000000      0.000000      0.000000      0.000000
        0.000000      0.000000      0.000000      0.000000      0.000000
        0.000000      0.000000      0.000000      0.000000      0.000000
        0.000000      0.000000      0.000000      0.000000      0.000000
        0.000000      0.000000      0.000000      0.000000      0.000000
        0.000000      0.000000      0.000576     -0.002540      0.008364
       -0.023832      0.065030     -0.215236     -0.089929      0.166732
       -0.186634      0.176069     -0.221791      0.142885     -0.086644
        0.054338     -0.025235      0.006927      0.473526     -0.535450
        0.409163


  @DOVRLP-I, A total of   1 linear dependencies were found in the basis.
             The dependencies were eliminated from the calculation.
             There will be eigenvalues and eigenvectors of zero.

  @INITGES-I, Occupancies from core Hamiltonian:

          Alpha population by irrep:   2    1    1    0    1    0    0    0
           Beta population by irrep:   2    1    1    0    1    0    0    0


 total no. of electrons in initial guess :  0.000000000000000E+000
  --------------------------------------------------------------------
  Iteration         Total Energy            Largest Density Difference
  --------------------------------------------------------------------
       0             0.000000000000000              0.0000000000D+00
   current occupation vector 
     2  1  1  0  1  0  0  0
     2  1  1  0  1  0  0  0
       1          -112.292034359830240              0.9525780733D+00
   current occupation vector 
     2  1  1  0  1  0  0  0
     2  1  1  0  1  0  0  0
       2          -113.191119677376435              0.3503524005D+01
   current occupation vector 
     3  1  1  0  0  0  0  0
     3  1  1  0  0  0  0  0
       3          -124.296748843317175              0.3502716885D+01
   current occupation vector 
     2  1  1  0  1  0  0  0
     2  1  1  0  1  0  0  0
       4          -121.337178794837413              0.9397836133D+00
   current occupation vector 
     3  1  1  0  0  0  0  0
     3  1  1  0  0  0  0  0
       5          -126.450640402480403              0.9374746871D+00
   current occupation vector 
     2  1  1  0  1  0  0  0
     2  1  1  0  1  0  0  0
       6          -127.537928870457122              0.4160273952D+00
   current occupation vector 
     2  1  1  0  1  0  0  0
     2  1  1  0  1  0  0  0
       7          -128.257003125564296              0.2066826306D+00
   current occupation vector 
     2  1  1  0  1  0  0  0
     2  1  1  0  1  0  0  0
       8          -128.459833418145962              0.1561707477D+00
   current occupation vector 
     2  1  1  0  1  0  0  0
     2  1  1  0  1  0  0  0
       9          -128.547037824257444              0.3457516980D-01
   current occupation vector 
     2  1  1  0  1  0  0  0
     2  1  1  0  1  0  0  0
      10          -128.547066075293799              0.2840548217D-02
   current occupation vector 
     2  1  1  0  1  0  0  0
     2  1  1  0  1  0  0  0
      11          -128.547066238048330              0.3807966997D-03
   current occupation vector 
     2  1  1  0  1  0  0  0
     2  1  1  0  1  0  0  0
      12          -128.547066240761325              0.1169714243D-04
   current occupation vector 
     2  1  1  0  1  0  0  0
     2  1  1  0  1  0  0  0
      13          -128.547066240878564              0.2384144173D-05
   current occupation vector 
     2  1  1  0  1  0  0  0
     2  1  1  0  1  0  0  0
      14          -128.547066240864950              0.3403207712D-06
   current occupation vector 
     2  1  1  0  1  0  0  0
     2  1  1  0  1  0  0  0
      15          -128.547066240909885              0.1043249171D-06
   current occupation vector 
     2  1  1  0  1  0  0  0
     2  1  1  0  1  0  0  0

  SCF has converged.

 Density matrix saved to file den.dat
 total electron number:   9.99999999999867     
     E(SCF)=      -128.547066240865860              0.8589701062D-07

  Eigenvector printing suppressed.

 @PUTMOS-I, Writing converged MOs to NEWMOS. 
 @PUTMOS-I, Symmetry   1 Full Blocks 14 Partial Blocksize   2
 @PUTMOS-I, Symmetry   2 Full Blocks  9 Partial Blocksize   2
 @PUTMOS-I, Symmetry   3 Full Blocks  9 Partial Blocksize   2
 @PUTMOS-I, Symmetry   4 Full Blocks  5 Partial Blocksize   2
 @PUTMOS-I, Symmetry   5 Full Blocks  9 Partial Blocksize   2
 @PUTMOS-I, Symmetry   6 Full Blocks  5 Partial Blocksize   2
 @PUTMOS-I, Symmetry   7 Full Blocks  5 Partial Blocksize   2
 @PUTMOS-I, Symmetry   8 Full Blocks  3 Partial Blocksize   1
  @PRJDEN-I, Basis set contains h and/or higher angular momentum functions.
             Analysis of density matrix symmetry not available.
             Check irreps of the molecular orbitals in the full point group
             for presence of an asymmetric solution.

 
  ORBITAL EIGENVALUES (ALPHA)  (1H = 27.2113838 eV)

       MO #        E(hartree)               E(eV)           FULLSYM    COMPSYM
       ----   --------------------   --------------------   -------   ---------
    1     1         -32.7724226582        -891.7829716487      Ag        Ag (1)
    2     2          -1.9303773756         -52.5282396854      Ag        Ag (1)
    3   157          -0.8503954504         -23.1404369985       u         u (5)
    4    97          -0.8503954499         -23.1404369848       u         u (3)
    5    59          -0.8503954498         -23.1404369843       u         u (2)
  +++++++++++++++++++++++++++++++++++++++++++++++++++++++++++++++++++++++++++++
    6     3           0.0000000095           0.0000002586    XXXX      XXXX (1)
    7   158           0.3675379782          10.0012169922       u         u (5)
    8    98           0.3675379783          10.0012169962       u         u (3)
    9    60           0.3675379783          10.0012169963       u         u (2)
   10     4           0.5344359544          14.5427418818      Ag        Ag (1)
   11     5           1.2975534315          35.3082244514      Hg         g (1)
   12   217           1.2975534315          35.3082244520      Hg         g (7)
   13   195           1.2975534315          35.3082244520      Hg         g (6)
   14   135           1.2975534316          35.3082244539      Hg         g (4)
   15     6           1.2975534316          35.3082244539      Hg         g (1)
   16   159           1.4892560304          40.5247174486       u         u (5)
   17    99           1.4892560306          40.5247174539       u         u (3)
   18    61           1.4892560306          40.5247174542       u         u (2)
   19     7           2.7911590098          75.9512991182      Ag        Ag (1)
   20   160           3.3279388243          90.5578206767       u         u (5)
   21   100           3.3279388243          90.5578206773       u         u (3)
   22    62           3.3279388243          90.5578206774       u         u (2)
   23   161           3.3279388244          90.5578206791       u         u (5)
   24   239           3.3279388244          90.5578206791       u         u (8)
   25   101           3.3279388245          90.5578206822       u         u (3)
   26    63           3.3279388245          90.5578206822       u         u (2)
   27     8           3.7566731720         102.2242755672      Hg         g (1)
   28   218           3.7566731720         102.2242755688      Hg         g (7)
   29   196           3.7566731720         102.2242755688      Hg         g (6)
   30     9           3.7566731722         102.2242755734      Hg         g (1)
   31   136           3.7566731722         102.2242755734      Hg         g (4)
   32   162           4.2783661539         116.4202635351       u         u (5)
   33   102           4.2783661541         116.4202635409       u         u (3)
   34    64           4.2783661541         116.4202635409       u         u (2)
   35    10           6.9140418257         188.1406458641       g         g (1)
   36   219           6.9140418258         188.1406458655       g         g (7)
   37   197           6.9140418258         188.1406458656       g         g (6)
   38    11           6.9140418258         188.1406458668       g         g (1)
   39   137           6.9140418258         188.1406458668       g         g (4)
   40   220           6.9140418259         188.1406458689       g         g (7)
   41   198           6.9140418259         188.1406458689       g         g (6)
   42   138           6.9140418260         188.1406458717       g         g (4)
   43    12           6.9140418260         188.1406458718       g         g (1)
   44    13           9.0810195105         247.1071073722      Ag        Ag (1)
   45   163           9.1508346651         249.0068743412       u         u (5)
   46   103           9.1508346651         249.0068743417       u         u (3)
   47    65           9.1508346651         249.0068743418       u         u (2)
   48   240           9.1508346652         249.0068743435       u         u (8)
   49   164           9.1508346652         249.0068743435       u         u (5)
   50   104           9.1508346653         249.0068743464       u         u (3)
   51    66           9.1508346653         249.0068743464       u         u (2)
   52    14           9.2396682708         251.4241596828      Hg         g (1)
   53   221           9.2396682709         251.4241596838      Hg         g (7)
   54   199           9.2396682709         251.4241596838      Hg         g (6)
   55    15           9.2396682710         251.4241596869      Hg         g (1)
   56   139           9.2396682710         251.4241596869      Hg         g (4)
   57   165          10.8410458911         294.9998607485       u         u (5)
   58    67          10.8410458913         294.9998607550       u         u (2)
   59   105          10.8410458914         294.9998607564       u         u (3)
   60   166          14.7630259029         401.7223641833               B1u (5)
   61   106          14.7630259029         401.7223641835               B3u (3)
   62    68          14.7630259030         401.7223641836               B2u (2)
   63   241          14.7630259030         401.7223641843                Au (8)
   64   167          14.7630259030         401.7223641843               B1u (5)
   65   107          14.7630259030         401.7223641856               B3u (3)
   66    69          14.7630259030         401.7223641856               B2u (2)
   67   242          14.7630259031         401.7223641874                Au (8)
   68   168          14.7630259031         401.7223641874               B1u (5)
   69   108          14.7630259032         401.7223641896               B3u (3)
   70    70          14.7630259032         401.7223641897               B2u (2)
   71   200          19.0826151623         519.2643654615       g         g (6)
   72   222          19.0826151623         519.2643654615       g         g (7)
   73    16          19.0826151623         519.2643654618       g         g (1)
   74   140          19.0826151623         519.2643654622       g         g (4)
   75    17          19.0826151623         519.2643654622       g         g (1)
   76   223          19.0826151623         519.2643654635       g         g (7)
   77   201          19.0826151623         519.2643654635       g        Ag (6)
   78   141          19.0826151624         519.2643654651       g         g (4)
   79    18          19.0826151624         519.2643654652       g         g (1)
   80   169          21.8726658497         595.1855055945       u         u (5)
   81    71          21.8726658497         595.1855055947       u         u (2)
   82   109          21.8726658497         595.1855055948       u         u (3)
   83   243          21.8726658498         595.1855055955       u         u (8)
   84   170          21.8726658498         595.1855055955       u         u (5)
   85   110          21.8726658498         595.1855055968       u         u (3)
   86    72          21.8726658498         595.1855055968       u         u (2)
   87    19          21.9641916797         597.6760500841      Hg         g (1)
   88   202          21.9641916797         597.6760500845      Hg         g (6)
   89   224          21.9641916798         597.6760500845      Hg         g (7)
   90   142          21.9641916798         597.6760500858      Hg         g (4)
   91    20          21.9641916798         597.6760500858      Hg         g (1)
   92    21          25.5554668731         695.3996177719      Ag        Ag (1)
   93   171          25.7710788687         701.2667185408       u         u (5)
   94    73          25.7710788691         701.2667185511       u         u (2)
   95   111          25.7710788698         701.2667185702       u         u (3)
   96    22          32.1497992224         874.8405263626    XXXX      XXXX (1)
   97    23          32.1497992225         874.8405263672    XXXX      XXXX (1)
   98   203          32.1497992226         874.8405263673    XXXX      XXXX (6)
   99   225          32.1497992226         874.8405263673    XXXX      XXXX (7)
  100   143          32.1497992226         874.8405263676    XXXX      XXXX (4)
  101    24          32.1497992226         874.8405263677    XXXX      XXXX (1)
  102   226          32.1497992226         874.8405263682    XXXX      XXXX (7)
  103   204          32.1497992226         874.8405263682    XXXX      XXXX (6)
  104   144          32.1497992226         874.8405263691    XXXX      XXXX (4)
  105   227          32.1497992227         874.8405263701    XXXX      XXXX (7)
  106   205          32.1497992227         874.8405263701    XXXX      XXXX (6)
  107   145          32.1497992227         874.8405263714    XXXX      XXXX (4)
  108    25          32.1497992227         874.8405263714    XXXX      XXXX (1)
  109   172          42.9464222349        1168.6315791118               B1u (5)
  110    74          42.9464222349        1168.6315791118               B2u (2)
  111   112          42.9464222349        1168.6315791119               B3u (3)
  112   244          42.9464222349        1168.6315791120                Au (8)
  113   173          42.9464222349        1168.6315791121               B1u (5)
  114    75          42.9464222349        1168.6315791123               B2u (2)
  115   113          42.9464222349        1168.6315791123               B3u (3)
  116   245          42.9464222349        1168.6315791126                Au (8)
  117   174          42.9464222349        1168.6315791126               B1u (5)
  118   114          42.9464222350        1168.6315791131               B3u (3)
  119    76          42.9464222350        1168.6315791131               B2u (2)
  120   206          48.6455906628        1323.7138386548       g         g (6)
  121    26          48.6455906628        1323.7138386548       g         g (1)
  122   146          48.6455906628        1323.7138386548       g         g (4)
  123   228          48.6455906628        1323.7138386548       g         g (7)
  124    27          48.6455906628        1323.7138386549       g         g (1)
  125   147          48.6455906628        1323.7138386550       g         g (4)
  126   207          48.6455906628        1323.7138386550       g        Ag (6)
  127   229          48.6455906628        1323.7138386551       g         g (7)
  128    28          48.6455906628        1323.7138386554       g         g (1)
  129    77          51.8360181727        1410.5297861753       u         u (2)
  130   115          51.8360181727        1410.5297861753       u         u (3)
  131   175          51.8360181727        1410.5297861756       u         u (5)
  132   246          51.8360181727        1410.5297861757       u         u (8)
  133    78          51.8360181727        1410.5297861757       u         u (2)
  134   116          51.8360181727        1410.5297861760       u         u (3)
  135   176          51.8360181727        1410.5297861760       u         u (5)
  136    29          52.3953075203        1425.7488232800      Hg         g (1)
  137   148          52.3953075203        1425.7488232800      Hg         g (4)
  138   208          52.3953075203        1425.7488232803      Hg         g (6)
  139   230          52.3953075203        1425.7488232805      Hg         g (7)
  140    30          52.3953075203        1425.7488232806      Hg         g (1)
  141   177          56.8740070866        1547.6204361908       u         u (5)
  142    79          56.8740070904        1547.6204362931       u         u (2)
  143   117          56.8740070973        1547.6204364827       u         u (3)
  144    31          63.8323011012        1736.9652453511      Ag        Ag (1)
  145   178         113.8175745819        3097.1337073629       u         u (5)
  146    80         113.8175746008        3097.1337078756       u         u (2)
  147   118         113.8175746469        3097.1337091313       u         u (3)
  148    32         127.2584718688        3462.8791223152      Hg         g (1)
  149   149         127.2584718688        3462.8791223154      Hg         g (4)
  150   209         127.2584718688        3462.8791223163      Hg         g (6)
  151   231         127.2584718689        3462.8791223167      Hg         g (7)
  152    33         127.2584718689        3462.8791223169      Hg         g (1)
  153   119         139.2995453878        3790.5333954395       u         u (3)
  154    81         139.2995453878        3790.5333954396       u         u (2)
  155   179         139.2995453878        3790.5333954406       u         u (5)
  156   247         139.2995453878        3790.5333954406       u         u (8)
  157    82         139.2995453878        3790.5333954411       u         u (2)
  158   120         139.2995453878        3790.5333954415       u         u (3)
  159   180         139.2995453878        3790.5333954416       u         u (5)
  160    34         139.5095883830        3796.2489560018      Ag        Ag (1)
  161   150         174.0364900032        4735.7737280907       g         g (4)
  162    35         174.0364900033        4735.7737280913       g         g (1)
  163    36         174.0364900033        4735.7737280916       g         g (1)
  164   210         174.0364900033        4735.7737280924       g         g (6)
  165   232         174.0364900033        4735.7737280925       g         g (7)
  166   151         174.0364900033        4735.7737280932       g         g (4)
  167   211         174.0364900033        4735.7737280935       g         g (6)
  168   233         174.0364900034        4735.7737280940       g         g (7)
  169    37         174.0364900034        4735.7737280955       g         g (1)
  170   181         209.5979602886        5703.4505452153       u         u (5)
  171    83         209.5979603404        5703.4505466227       u         u (2)
  172   121         209.5979604923        5703.4505507560       u         u (3)
  173    38         271.7755144865        7395.3878374564      Ag        Ag (1)
  174   122         308.6598923332        8399.0627999881               B3u (3)
  175    84         308.6598923332        8399.0627999881               B2u (2)
  176   248         308.6598923332        8399.0627999890                Au (8)
  177   182         308.6598923332        8399.0627999895               B1u (5)
  178    85         308.6598923332        8399.0627999897               B2u (2)
  179   123         308.6598923332        8399.0627999898               B3u (3)
  180   183         308.6598923332        8399.0627999902               B1u (5)
  181   249         308.6598923333        8399.0627999903                Au (8)
  182    86         308.6598923333        8399.0627999904               B2u (2)
  183   184         308.6598923333        8399.0627999909               B1u (5)
  184   124         308.6598923333        8399.0627999910               B3u (3)
  185    39         310.4332139864        8447.3173361303      Hg         g (1)
  186   152         310.4332139865        8447.3173361312      Hg         g (4)
  187   212         310.4332139865        8447.3173361320      Hg         g (6)
  188   234         310.4332139865        8447.3173361320      Hg         g (7)
  189    40         310.4332139865        8447.3173361325      Hg         g (1)
  190   185         365.6929968710        9951.0124979890       u         u (5)
  191    87         365.6929969622        9951.0125004706       u         u (2)
  192   125         365.6929972562        9951.0125084704       u         u (3)
  193   126         394.5970669634       10737.5322432219       u         u (3)
  194    88         394.5970669634       10737.5322432226       u         u (2)
  195   186         394.5970669634       10737.5322432227       u         u (5)
  196   250         394.5970669634       10737.5322432228       u         u (8)
  197    89         394.5970669635       10737.5322432233       u         u (2)
  198   127         394.5970669635       10737.5322432234       u         u (3)
  199   187         394.5970669635       10737.5322432236       u         u (5)
  200    41         489.1740043087       13311.1015858060      Ag        Ag (1)
  201   188         619.1669586137       16848.3897592381       u         u (5)
  202    90         619.1669587351       16848.3897625440       u         u (2)
  203   128         619.1669591360       16848.3897734532       u         u (3)
  204    42         655.2271972883       17829.6387544397       g         g (1)
  205   153         655.2271972883       17829.6387544398       g         g (4)
  206    43         655.2271972883       17829.6387544399       g         g (1)
  207   235         655.2271972883       17829.6387544408       g         g (7)
  208   213         655.2271972883       17829.6387544408       g         g (6)
  209   154         655.2271972884       17829.6387544412       g         g (4)
  210   214         655.2271972884       17829.6387544414       g         g (6)
  211    44         655.2271972884       17829.6387544414       g         g (1)
  212   236         655.2271972884       17829.6387544418       g         g (7)
  213    45         759.3980369102       20664.2714541999      Hg         g (1)
  214   155         759.3980369103       20664.2714542014      Hg         g (4)
  215   237         759.3980369103       20664.2714542014      Hg         g (7)
  216   215         759.3980369103       20664.2714542018      Hg         g (6)
  217    46         759.3980369103       20664.2714542023      Hg         g (1)
  218    47         837.5245526183       22790.2020596182      Ag        Ag (1)
  219   189        1040.1950180838       28305.1458842921       u         u (5)
  220    91        1040.1950182306       28305.1458882875       u         u (2)
  221   129        1040.1950186734       28305.1459003372       u         u (3)
  222   130        1150.3542282280       31302.7304327898       u         u (3)
  223    92        1150.3542282281       31302.7304327904       u         u (2)
  224   190        1150.3542282281       31302.7304327904       u         u (5)
  225   251        1150.3542282281       31302.7304327904       u         u (8)
  226   131        1150.3542282281       31302.7304327907       u         u (3)
  227    93        1150.3542282281       31302.7304327910       u         u (2)
  228   191        1150.3542282281       31302.7304327911       u         u (5)
  229    48        1389.1160976297       37799.7713025584      Ag        Ag (1)
  230   192        1747.9186003165       47563.2839185964       u         u (5)
  231    94        1747.9186004852       47563.2839231868       u         u (2)
  232   132        1747.9186009285       47563.2839352482       u         u (3)
  233    49        1914.1645071160       52087.0650969518      Hg         g (1)
  234   238        1914.1645071160       52087.0650969521      Hg         g (7)
  235   216        1914.1645071161       52087.0650969526      Hg         g (6)
  236   156        1914.1645071161       52087.0650969527      Hg         g (4)
  237    50        1914.1645071161       52087.0650969531      Hg         g (1)
  238    51        2264.2830647359       61614.2755507043      Ag        Ag (1)
  239   193        3042.2118332955       82782.7938562710       u         u (5)
  240    95        3042.2118334684       82782.7938609781       u         u (2)
  241   133        3042.2118338861       82782.7938723430       u         u (3)
  242    52        3686.3410479295      100310.4411450814      Ag        Ag (1)
  243   194        5556.0120818976      151186.7772667386       u         u (5)
  244    96        5556.0120820552      151186.7772710285       u         u (2)
  245   134        5556.0120824376      151186.7772814341       u         u (3)
  246    53        6189.0051541445      168411.3947107858      Ag        Ag (1)
  247    54       11732.4241692732      319255.4972042122      Ag        Ag (1)
  248    55       27748.5196079120      755075.6174760372      Ag        Ag (1)
  249    56       83622.6768114430     2275488.7547368756      Ag        Ag (1)
  250    57      323639.3655846380     8806674.9960489813      Ag        Ag (1)
  251    58     1840145.4787451304    50072904.9059986770      Ag        Ag (1)


  VSCF finished.

  @CHECKOUT-I, Total execution time (CPU/WALL):        4.97/       5.99 seconds.
--executable xvscf finished with status     0 in        6.12 seconds (walltime).
 --invoking executable--
/home/nike/cfour_v2.00beta/bin/xvtran
 @GETMEM-I,  Allocated   40054 MB of main memory.
  Full RHF integral transformation
  Transformation of IIII integrals :
  1 pass through the AO integral file was required.
     1310277 AO integrals were read.
     2347840 MO integrals were written to HF2.
  Transformation of IIJJ integrals :
  1 pass through the AO integral file was required.
     6333469 AO integrals were read.
     9013507 MO integrals were written to HF2.
  Transformation of IJIJ integrals :
  1 pass through the AO integral file was required.
    11109369 AO integrals were read.
    17010601 MO integrals were written to HF2.
  Transformation of IJKL integrals :
  1 pass through the AO integral file was required.
    25285598 AO integrals were read.
    34593998 MO integrals were written to HF2.
  Summary of active molecular orbitals: 
------------------------------------------------------------------------
 
  Index      Eigenvalue    Symmetry    Index      Eigenvalue    Symmetry
------------------------------------------------------------------------
     1       -32.7724227        1       127       394.5970670        3
     2        -1.9303774        1       128       394.5970670        3
     3        -0.8503954        2       129       619.1669591        3
     4        -0.8503954        3       130      1040.1950187        3
     5        -0.8503955        5       131      1150.3542282        3
     6         0.0000000        1       132      1150.3542282        3
     7         0.5344360        1       133      1747.9186009        3
     8         1.2975534        1       134      3042.2118339        3
     9         1.2975534        1       135      5556.0120824        3
    10         2.7911590        1       136         1.2975534        4
    11         3.7566732        1       137         3.7566732        4
    12         3.7566732        1       138         6.9140418        4
    13         6.9140418        1       139         6.9140418        4
    14         6.9140418        1       140         9.2396683        4
    15         6.9140418        1       141        19.0826152        4
    16         9.0810195        1       142        19.0826152        4
    17         9.2396683        1       143        21.9641917        4
    18         9.2396683        1       144        32.1497992        4
    19        19.0826152        1       145        32.1497992        4
    20        19.0826152        1       146        32.1497992        4
    21        19.0826152        1       147        48.6455907        4
    22        21.9641917        1       148        48.6455907        4
    23        21.9641917        1       149        52.3953075        4
    24        25.5554669        1       150       127.2584719        4
    25        32.1497992        1       151       174.0364900        4
    26        32.1497992        1       152       174.0364900        4
    27        32.1497992        1       153       310.4332140        4
    28        32.1497992        1       154       655.2271973        4
    29        48.6455907        1       155       655.2271973        4
    30        48.6455907        1       156       759.3980369        4
    31        48.6455907        1       157      1914.1645071        4
    32        52.3953075        1       158         0.3675380        5
    33        52.3953075        1       159         1.4892560        5
    34        63.8323011        1       160         3.3279388        5
    35       127.2584719        1       161         3.3279388        5
    36       127.2584719        1       162         4.2783662        5
    37       139.5095884        1       163         9.1508347        5
    38       174.0364900        1       164         9.1508347        5
    39       174.0364900        1       165        10.8410459        5
    40       174.0364900        1       166        14.7630259        5
    41       271.7755145        1       167        14.7630259        5
    42       310.4332140        1       168        14.7630259        5
    43       310.4332140        1       169        21.8726658        5
    44       489.1740043        1       170        21.8726658        5
    45       655.2271973        1       171        25.7710789        5
    46       655.2271973        1       172        42.9464222        5
    47       655.2271973        1       173        42.9464222        5
    48       759.3980369        1       174        42.9464222        5
    49       759.3980369        1       175        51.8360182        5
    50       837.5245526        1       176        51.8360182        5
    51      1389.1160976        1       177        56.8740071        5
    52      1914.1645071        1       178       113.8175746        5
    53      1914.1645071        1       179       139.2995454        5
    54      2264.2830647        1       180       139.2995454        5
    55      3686.3410479        1       181       209.5979603        5
    56      6189.0051541        1       182       308.6598923        5
    57     11732.4241693        1       183       308.6598923        5
    58     27748.5196079        1       184       308.6598923        5
    59     83622.6768114        1       185       365.6929969        5
    60    323639.3655846        1       186       394.5970670        5
    61   1840145.4787451        1       187       394.5970670        5
    62         0.3675380        2       188       619.1669586        5
    63         1.4892560        2       189      1040.1950181        5
    64         3.3279388        2       190      1150.3542282        5
    65         3.3279388        2       191      1150.3542282        5
    66         4.2783662        2       192      1747.9186003        5
    67         9.1508347        2       193      3042.2118333        5
    68         9.1508347        2       194      5556.0120819        5
    69        10.8410459        2       195         1.2975534        6
    70        14.7630259        2       196         3.7566732        6
    71        14.7630259        2       197         6.9140418        6
    72        14.7630259        2       198         6.9140418        6
    73        21.8726658        2       199         9.2396683        6
    74        21.8726658        2       200        19.0826152        6
    75        25.7710789        2       201        19.0826152        6
    76        42.9464222        2       202        21.9641917        6
    77        42.9464222        2       203        32.1497992        6
    78        42.9464222        2       204        32.1497992        6
    79        51.8360182        2       205        32.1497992        6
    80        51.8360182        2       206        48.6455907        6
    81        56.8740071        2       207        48.6455907        6
    82       113.8175746        2       208        52.3953075        6
    83       139.2995454        2       209       127.2584719        6
    84       139.2995454        2       210       174.0364900        6
    85       209.5979603        2       211       174.0364900        6
    86       308.6598923        2       212       310.4332140        6
    87       308.6598923        2       213       655.2271973        6
    88       308.6598923        2       214       655.2271973        6
    89       365.6929970        2       215       759.3980369        6
    90       394.5970670        2       216      1914.1645071        6
    91       394.5970670        2       217         1.2975534        7
    92       619.1669587        2       218         3.7566732        7
    93      1040.1950182        2       219         6.9140418        7
    94      1150.3542282        2       220         6.9140418        7
    95      1150.3542282        2       221         9.2396683        7
    96      1747.9186005        2       222        19.0826152        7
    97      3042.2118335        2       223        19.0826152        7
    98      5556.0120821        2       224        21.9641917        7
    99         0.3675380        3       225        32.1497992        7
   100         1.4892560        3       226        32.1497992        7
   101         3.3279388        3       227        32.1497992        7
   102         3.3279388        3       228        48.6455907        7
   103         4.2783662        3       229        48.6455907        7
   104         9.1508347        3       230        52.3953075        7
   105         9.1508347        3       231       127.2584719        7
   106        10.8410459        3       232       174.0364900        7
   107        14.7630259        3       233       174.0364900        7
   108        14.7630259        3       234       310.4332140        7
   109        14.7630259        3       235       655.2271973        7
   110        21.8726658        3       236       655.2271973        7
   111        21.8726658        3       237       759.3980369        7
   112        25.7710789        3       238      1914.1645071        7
   113        42.9464222        3       239         3.3279388        8
   114        42.9464222        3       240         9.1508347        8
   115        42.9464222        3       241        14.7630259        8
   116        51.8360182        3       242        14.7630259        8
   117        51.8360182        3       243        21.8726658        8
   118        56.8740071        3       244        42.9464222        8
   119       113.8175746        3       245        42.9464222        8
   120       139.2995454        3       246        51.8360182        8
   121       139.2995454        3       247       139.2995454        8
   122       209.5979605        3       248       308.6598923        8
   123       308.6598923        3       249       308.6598923        8
   124       308.6598923        3       250       394.5970670        8
   125       308.6598923        3       251      1150.3542282        8
   126       365.6929973        3
------------------------------------------------------------------------
  @CHECKOUT-I, Total execution time (CPU/WALL):       19.59/      27.53 seconds.
--executable xvtran finished with status     0 in       27.68 seconds (walltime).
 --invoking executable--
/home/nike/cfour_v2.00beta/bin/xintprc
 @GETMEM-I,  Allocated   40054 MB of main memory.
  @GMOIAA-I, Processing MO integrals for spin case AA.
  @GMOIAA-I, Generation of integral list completed.
                      TYPE                NUMBER
                      ----               --------
                      PPPP              58050351
                      PPPH               4751138
                      PPHH                 99894
                      PHPH                 61759
                      PHHH                  2771
                      HHHH                    33

                     TOTAL              62965946

  @FORMT2-I, Second-order MP correlation energies:
            ------------------------------------------------
            E(SCF)                  =   -128.547066240866 a.u.
            E2(AA)                  =     -0.043045003025 a.u.
            E2(AB)                  =     -0.293783476773 a.u.
            E2(TOT)                 =     -0.379873482824 a.u.
            Total MP2 energy        =   -128.926939723690 a.u.
            ------------------------------------------------
   Largest T2 amplitudes for spin case AB:
       _       _                 _       _                 _       _
   i   j   a   b             i   j   a   b             i   j   a   b
-----------------------------------------------------------------------------
[  3   3  63  63]-0.02078 [  4   4 100 100]-0.02078 [  5   5 159 159]-0.02078
[  5   3 159  63]-0.01611 [  3   5  63 159]-0.01611 [  5   4 159 100]-0.01611
[  4   5 100 159]-0.01611 [  4   3 100  63]-0.01611 [  3   4  63 100]-0.01611
[  3   3  62  63] 0.01532 [  3   3  63  62] 0.01532 [  4   4  99 100] 0.01532
[  4   4 100  99] 0.01532 [  5   5 158 159] 0.01532 [  5   5 159 158] 0.01532
-----------------------------------------------------------------------------
   Norm of T2AB vector (   200504 symmetry allowed elements):  0.1657419000.
-----------------------------------------------------------------------------
  @CHECKOUT-I, Total execution time (CPU/WALL):       16.75/      64.23 seconds.
--executable xintprc finished with status     0 in       64.40 seconds (walltime).
 --invoking executable--
/home/nike/cfour_v2.00beta/bin/xint
 @GETMEM-I,  Allocated   40054 MB of main memory.
  itot is                      0
 using new mrcc fort.57
 fort.56
     4     1     0     0     1     0     0     1     0     1     1     1     0     0     0     7     0     0           0.00000     0 40054     0     0
ex.lev,nsing,ntrip, rest,CC/CI, dens,conver, symm, diag,  CS ,spatial,  HF ,ndoub,nacto,nactv, tol ,maxex, sacc, freq, dboc, mem
  @CHECKOUT-I, Total execution time (CPU/WALL):      346.25/     393.50 seconds.
--executable xint finished with status     0 in      393.79 seconds (walltime).
 --invoking executable--
/home/nike/MRCC/dmrcc
 **********************************************************************
                          MRCC program system
 **********************************************************************
 
                              Written by
    Mihaly Kallay, Zoltan Rolik, Jozsef Csontos, Istvan Ladjanszki,
       Lorant Szegedy, Bence Ladoczki, Gyula Samu, Klara Petrov,
        Mate Farkas, Peter Nagy, David Mester, and Bence Hegely
 
        Department of Physical Chemistry and Materials Science
            Budapest University of Technology and Economics
                  Budapest P.O.Box 91, H-1521 Hungary
 
                              www.mrcc.hu

 ************************ 2016-09-26 03:17:34 *************************
 Executing goldstone...

 Generation of CC equations in terms of H and T...
 Generation of antisymmetrized Goldstone diagrams...
 Number of diagrams in T^1 equations:    15
 Number of diagrams in T^2 equations:    38
 Number of diagrams in T^3 equations:    53
 Number of diagrams in T^4 equations:    74
 Translation of diagrams to factorized equations...
 Optimizing intermediate calculation...
 Number of floating-point operations per iteration step:   4.2762E+15
 Probable CPU time per iteration step (hours):  42761.77
 Required memory (Mbytes):  489970.7
 Number of intermediates:                                 105
 Number of intermediates to be stored:                     44
 Length of intermediate file (Mbytes):   22834.0

 ************************ 2016-09-26 03:17:37 *************************
 Executing xmrcc...

 **********************************************************************
 CC(                     4 ) calculation 
 
 
 Allocation of****** Mbytes of memory...
 Number of spinorbitals:                   502
 Number of alpha electrons:                        5
 Number of beta electrons:                         5
 Spin multiplicity:                     1
 z-component of spin:  0.0
 Spatial symmetry:                      1
 Convergence criterion:  1.0E-07
 Construction of occupation graphs...
 Number of                     0 -fold excitations:                      1
 Number of                     1 -fold excitations:                    446
 Number of                     2 -fold excitations:                 278350
 Number of                     3 -fold excitations:               99164296
 Number of                     4 -fold excitations:            19070797676
 Total number of configurations:            19170240769
 Calculation of coupling coefficients...
 Length of intermediate file (Mbytes):   15643.6
 
 ======================================================================
 
 Memory requirements /Mbyte/: 
               Minimal        Optimal
 Real*8:    2082714.5153   2082714.5153
 Integer:     55442.4034
 Total:     2138156.9186   2138156.9186
 

 ************************ 2016-09-26 03:50:17 *************************
 Executing goldstone...

 Generation of MRCC equations in terms of H and T...
 Generation of antisymmetrized Goldstone diagrams...
 Number of diagrams in T^1 equations:    15
 Number of diagrams in T^2 equations:    38
 Number of diagrams in T^3 equations:    53
 Number of diagrams in T^4 equations:    74
 Translation of diagrams to factorized equations...
 Number of restricted diagrams in T^1 equations:     30
 Number of restricted diagrams in T^2 equations:    129
 Number of restricted diagrams in T^3 equations:    302
 Number of restricted diagrams in T^4 equations:    633
 Optimizing intermediate calculation...
 Number of floating-point operations per iteration step:   1.3546E+15
 Probable CPU time per iteration step (hours):  13546.21
 Required memory (Mbytes):  477328.6
 Number of intermediates:                                 408
 Number of intermediates to be stored:                    157
 Length of intermediate file (Mbytes):  318133.3

 ************************ 2016-09-26 03:50:27 *************************
 Executing xmrcc...

 **********************************************************************
 MRCC(                     4 ) calculation 
 
 
 Allocation of****** Mbytes of memory...
 Number of spinorbitals:                   502
 Number of alpha electrons:                        5
 Number of beta electrons:                         5
 Number of active particles:                   246
 Number of active holes:                         0
 Spin multiplicity:                     1
 z-component of spin:  0.0
 Spatial symmetry:                      1
 Convergence criterion:  1.0E-07
 Construction of occupation graphs...
 Number of                     0 -fold excitations:                      1
 Number of                     1 -fold excitations:                    446
 Number of                     2 -fold excitations:                 278350
 Number of                     3 -fold excitations:               99164296
 Number of                     4 -fold excitations:            19070797676
 Total number of configurations:            19170240769
 Calculation of coupling coefficients...
 Length of intermediate file (Mbytes):  329474.6
 
 ======================================================================
 
 Memory requirements /Mbyte/: 
               Minimal        Optimal
 Real*8:     524281.4232    524281.4232
 Integer:     55758.8347
 Total:      580040.2579    580040.2579
 

 ************************ 2016-09-26 04:36:42 *************************
 Executing goldstone...

 Generation of MRCC equations in terms of H and T...
 Generation of antisymmetrized Goldstone diagrams...
 Number of diagrams in T^1 equations:    15
 Number of diagrams in T^2 equations:    38
 Number of diagrams in T^3 equations:    53
 Number of diagrams in T^4 equations:    74
 Translation of diagrams to factorized equations...
 Number of restricted diagrams in T^1 equations:     30
 Number of restricted diagrams in T^2 equations:    129
 Number of restricted diagrams in T^3 equations:    302
 Number of restricted diagrams in T^4 equations:    633
 Optimizing intermediate calculation...
[...]
 Probable CPU time per iteration step (hours):  22368.79
 Required memory (Mbytes):  477328.6
 Number of intermediates:                                 403
 Number of intermediates to be stored:                    159
 Length of intermediate file (Mbytes):  332784.1

 ************************ 2016-09-27 09:57:07 *************************
 Executing xmrcc...

 **********************************************************************
 MRCC(                     4 ) calculation 
 
 
 Allocation of****** Mbytes of memory...
 Number of spinorbitals:                   502
 Number of alpha electrons:                        5
 Number of beta electrons:                         5
 Number of active particles:                   168
 Number of active holes:                         0
 Spin multiplicity:                     1
 z-component of spin:  0.0
 Spatial symmetry:                      1
 Convergence criterion:  1.0E-07
 Construction of occupation graphs...
 Number of                     0 -fold excitations:                      1
 Number of                     1 -fold excitations:                    446
 Number of                     2 -fold excitations:                 278350
 Number of                     3 -fold excitations:               99164296
 Number of                     4 -fold excitations:            19070797676
 Total number of configurations:            19170240769
 Calculation of coupling coefficients...
 Length of intermediate file (Mbytes):  282428.0
 
 ======================================================================
 
 Memory requirements /Mbyte/: 
               Minimal        Optimal
 Real*8:     424639.7537    424639.7537
 Integer:     55758.8082
 Total:      480398.5618    480398.5618
 

 ************************ 2016-09-27 10:42:34 *************************
 Executing goldstone...

 Generation of MRCC equations in terms of H and T...
 Generation of antisymmetrized Goldstone diagrams...
 Number of diagrams in T^1 equations:    15
 Number of diagrams in T^2 equations:    38
 Number of diagrams in T^3 equations:    53
 Number of diagrams in T^4 equations:    74
 Translation of diagrams to factorized equations...
 Number of restricted diagrams in T^1 equations:     30
 Number of restricted diagrams in T^2 equations:    129
 Number of restricted diagrams in T^3 equations:    302
 Number of restricted diagrams in T^4 equations:    633
 Optimizing intermediate calculation...
 Number of floating-point operations per iteration step:   2.2550E+15
 Probable CPU time per iteration step (hours):  22550.34
 Required memory (Mbytes):  477328.6
 Number of intermediates:                                 403
 Number of intermediates to be stored:                    159
 Length of intermediate file (Mbytes):  334543.1

 ************************ 2016-09-27 10:42:44 *************************
 Executing xmrcc...

 **********************************************************************
 MRCC(                     4 ) calculation 
 
 
 Allocation of****** Mbytes of memory...
 Number of spinorbitals:                   502
 Number of alpha electrons:                        5
 Number of beta electrons:                         5
 Number of active particles:                   166
 Number of active holes:                         0
 Spin multiplicity:                     1
 z-component of spin:  0.0
 Spatial symmetry:                      1
 Convergence criterion:  1.0E-07
 Construction of occupation graphs...
 Number of                     0 -fold excitations:                      1
 Number of                     1 -fold excitations:                    446
 Number of                     2 -fold excitations:                 278350
 Number of                     3 -fold excitations:               99164296
 Number of                     4 -fold excitations:            19070797676
 Total number of configurations:            19170240769
 Calculation of coupling coefficients...
 Length of intermediate file (Mbytes):  282907.8
 
 ======================================================================
 
 Memory requirements /Mbyte/: 
               Minimal        Optimal
 Real*8:     419752.0311    419752.0311
 Integer:     55758.8082
 Total:      475510.8393    475510.8393
 

 ************************ 2016-09-27 11:28:01 *************************
 Executing goldstone...

 Generation of MRCC equations in terms of H and T...
 Generation of antisymmetrized Goldstone diagrams...
 Number of diagrams in T^1 equations:    15
 Number of diagrams in T^2 equations:    38
 Number of diagrams in T^3 equations:    53
 Number of diagrams in T^4 equations:    74
 Translation of diagrams to factorized equations...
 Number of restricted diagrams in T^1 equations:     30
 Number of restricted diagrams in T^2 equations:    129
 Number of restricted diagrams in T^3 equations:    302
 Number of restricted diagrams in T^4 equations:    633
 Optimizing intermediate calculation...
 Number of floating-point operations per iteration step:   2.2733E+15
 Probable CPU time per iteration step (hours):  22733.20
 Required memory (Mbytes):  477328.6
 Number of intermediates:                                 403
 Number of intermediates to be stored:                    159
 Length of intermediate file (Mbytes):  336315.7

 ************************ 2016-09-27 11:28:11 *************************
 Executing xmrcc...

 **********************************************************************
 MRCC(                     4 ) calculation 
 
 
 Allocation of****** Mbytes of memory...
 Number of spinorbitals:                   502
 Number of alpha electrons:                        5
 Number of beta electrons:                         5
 Number of active particles:                   164
 Number of active holes:                         0
 Spin multiplicity:                     1
 z-component of spin:  0.0
 Spatial symmetry:                      1
 Convergence criterion:  1.0E-07
 Construction of occupation graphs...
 Number of                     0 -fold excitations:                      1
 Number of                     1 -fold excitations:                    446
 Number of                     2 -fold excitations:                 278350
 Number of                     3 -fold excitations:               99164296
 Number of                     4 -fold excitations:            19070797676
 Total number of configurations:            19170240769
 Calculation of coupling coefficients...
 Length of intermediate file (Mbytes):  283392.7
 
 ======================================================================
 
 Memory requirements /Mbyte/: 
               Minimal        Optimal
 Real*8:     414770.2589    414770.2589
 Integer:     55758.8082
 Total:      470529.0670    470529.0670
 

 ************************ 2016-09-27 12:13:10 *************************
 Executing goldstone...

 Generation of MRCC equations in terms of H and T...
 Generation of antisymmetrized Goldstone diagrams...
 Number of diagrams in T^1 equations:    15
 Number of diagrams in T^2 equations:    38
 Number of diagrams in T^3 equations:    53
 Number of diagrams in T^4 equations:    74
 Translation of diagrams to factorized equations...
 Number of restricted diagrams in T^1 equations:     30
 Number of restricted diagrams in T^2 equations:    129
 Number of restricted diagrams in T^3 equations:    302
 Number of restricted diagrams in T^4 equations:    633
 Optimizing intermediate calculation...
 Number of floating-point operations per iteration step:   2.2917E+15
 Probable CPU time per iteration step (hours):  22917.40
 Required memory (Mbytes):  477328.6
 Number of intermediates:                                 403
 Number of intermediates to be stored:                    159
 Length of intermediate file (Mbytes):  338102.2

 ************************ 2016-09-27 12:13:19 *************************
 Executing xmrcc...

 **********************************************************************
 MRCC(                     4 ) calculation 
 
 
 Allocation of****** Mbytes of memory...
 Number of spinorbitals:                   502
 Number of alpha electrons:                        5
 Number of beta electrons:                         5
 Number of active particles:                   162
 Number of active holes:                         0
 Spin multiplicity:                     1
 z-component of spin:  0.0
 Spatial symmetry:                      1
 Convergence criterion:  1.0E-07
 Construction of occupation graphs...
 Number of                     0 -fold excitations:                      1
 Number of                     1 -fold excitations:                    446
 Number of                     2 -fold excitations:                 278350
 Number of                     3 -fold excitations:               99164296
 Number of                     4 -fold excitations:            19070797676
 Total number of configurations:            19170240769
 Calculation of coupling coefficients...
 Length of intermediate file (Mbytes):  283889.9
 
 ======================================================================
 
 Memory requirements /Mbyte/: 
               Minimal        Optimal
 Real*8:     419867.5722    419867.5722
 Integer:     55758.8082
 Total:      475626.3804    475626.3804
 

 ************************ 2016-09-27 12:58:22 *************************
 Executing goldstone...

 Generation of MRCC equations in terms of H and T...
 Generation of antisymmetrized Goldstone diagrams...
 Number of diagrams in T^1 equations:    15
 Number of diagrams in T^2 equations:    38
 Number of diagrams in T^3 equations:    53
 Number of diagrams in T^4 equations:    74
 Translation of diagrams to factorized equations...
 Number of restricted diagrams in T^1 equations:     60
 Number of restricted diagrams in T^2 equations:    438
 Number of restricted diagrams in T^3 equations:   1716
 Number of restricted diagrams in T^4 equations:   5509
 Optimizing intermediate calculation...
 Number of floating-point operations per iteration step:   1.7867E+15
 Probable CPU time per iteration step (hours):  17866.95
 Required memory (Mbytes):  477328.6
 Number of intermediates:                                1982
 Number of intermediates to be stored:                    590
 Length of intermediate file (Mbytes):  280263.1

 ************************ 2016-09-27 12:59:07 *************************
 Executing xmrcc...

 **********************************************************************
 MRCC(                     4 ) calculation 
 
 
 Allocation of****** Mbytes of memory...
 Number of spinorbitals:                   502
 Number of alpha electrons:                        5
 Number of beta electrons:                         5
 Number of active particles:                   164
 Number of active holes:                         6
 Spin multiplicity:                     1
 z-component of spin:  0.0
 Spatial symmetry:                      1
 Convergence criterion:  1.0E-07
 Construction of occupation graphs...
 Number of                     0 -fold excitations:                      1
 Number of                     1 -fold excitations:                    446
 Number of                     2 -fold excitations:                 278350
 Number of                     3 -fold excitations:               99164296
 Number of                     4 -fold excitations:            19070797676
 Total number of configurations:            19170240769
 Calculation of coupling coefficients...
 Length of intermediate file (Mbytes):  326756.0
 
 ======================================================================
 
 Memory requirements /Mbyte/: 
               Minimal        Optimal
 Real*8:     149855.5870    167011.0444
 Integer:     55793.9630
 Total:      205649.5500    222805.0075
 

 ************************ 2016-09-27 13:44:54 *************************
 Executing goldstone...

 Generation of MRCC equations in terms of H and T...
 Generation of antisymmetrized Goldstone diagrams...
 Number of diagrams in T^1 equations:    15
 Number of diagrams in T^2 equations:    38
 Number of diagrams in T^3 equations:    53
 Number of diagrams in T^4 equations:    74
 Translation of diagrams to factorized equations...
 Number of restricted diagrams in T^1 equations:     60
 Number of restricted diagrams in T^2 equations:    438
 Number of restricted diagrams in T^3 equations:   1716
 Number of restricted diagrams in T^4 equations:   5509
 Optimizing intermediate calculation...
 Number of floating-point operations per iteration step:   2.1102E+15
 Probable CPU time per iteration step (hours):  21101.90
 Required memory (Mbytes):  477328.6
 Number of intermediates:                                1972
 Number of intermediates to be stored:                    604
 Length of intermediate file (Mbytes):  343289.7

 ************************ 2016-09-27 13:45:39 *************************
 Executing xmrcc...

 **********************************************************************
 MRCC(                     4 ) calculation 
 
 
 Allocation of****** Mbytes of memory...
 Number of spinorbitals:                   502
 Number of alpha electrons:                        5
 Number of beta electrons:                         5
 Number of active particles:                   164
 Number of active holes:                         4
 Spin multiplicity:                     1
 z-component of spin:  0.0
 Spatial symmetry:                      1
 Convergence criterion:  1.0E-07
 Construction of occupation graphs...
 Number of                     0 -fold excitations:                      1
 Number of                     1 -fold excitations:                    446
 Number of                     2 -fold excitations:                 278350
 Number of                     3 -fold excitations:               99164296
 Number of                     4 -fold excitations:            19070797676
 Total number of configurations:            19170240769
 Calculation of coupling coefficients...
 Length of intermediate file (Mbytes):  351513.5
 
 ======================================================================
 
 Memory requirements /Mbyte/: 
               Minimal        Optimal
 Real*8:     149760.3839    166923.7749
 Integer:     55793.7982
 Total:      205554.1821    222717.5731
 

 ************************ 2016-09-27 14:30:49 *************************
 Executing goldstone...

 Generation of MRCC equations in terms of H and T...
 Generation of antisymmetrized Goldstone diagrams...
 Number of diagrams in T^1 equations:    15
 Number of diagrams in T^2 equations:    38
 Number of diagrams in T^3 equations:    53
 Number of diagrams in T^4 equations:    74
 Translation of diagrams to factorized equations...
 Number of restricted diagrams in T^1 equations:     60
 Number of restricted diagrams in T^2 equations:    438
 Number of restricted diagrams in T^3 equations:   1414
 Number of restricted diagrams in T^4 equations:   3569
 Optimizing intermediate calculation...
 Number of floating-point operations per iteration step:   2.4370E+15
 Probable CPU time per iteration step (hours):  24369.83
 Required memory (Mbytes):  477328.6
 Number of intermediates:                                1484
 Number of intermediates to be stored:                    494
 Length of intermediate file (Mbytes):  352753.7

 ************************ 2016-09-27 14:31:22 *************************
 Executing xmrcc...

 **********************************************************************
 MRCC(                     4 ) calculation 
 
 
 Allocation of****** Mbytes of memory...
 Number of spinorbitals:                   502
 Number of alpha electrons:                        5
 Number of beta electrons:                         5
 Number of active particles:                   164
 Number of active holes:                         2
 Spin multiplicity:                     1
 z-component of spin:  0.0
 Spatial symmetry:                      1
 Convergence criterion:  1.0E-07
 Construction of occupation graphs...
 Number of                     0 -fold excitations:                      1
 Number of                     1 -fold excitations:                    446
 Number of                     2 -fold excitations:                 278350
 Number of                     3 -fold excitations:               99164296
 Number of                     4 -fold excitations:            19070797676
 Total number of configurations:            19170240769
 Calculation of coupling coefficients...
 Length of intermediate file (Mbytes):  325997.5
 
 ======================================================================
 
 Memory requirements /Mbyte/: 
               Minimal        Optimal
 Real*8:     150139.8839    167271.6499
 Integer:     55783.1566
 Total:      205923.0405    223054.8065
 

 ************************ 2016-09-27 15:16:23 *************************
 Executing goldstone...

 Generation of MRCC equations in terms of H and T...
 Generation of antisymmetrized Goldstone diagrams...
 Number of diagrams in T^1 equations:    15
 Number of diagrams in T^2 equations:    38
 Number of diagrams in T^3 equations:    53
 Number of diagrams in T^4 equations:    74
 Translation of diagrams to factorized equations...
 Number of restricted diagrams in T^1 equations:     60
 Number of restricted diagrams in T^2 equations:    438
 Number of restricted diagrams in T^3 equations:   1716
 Number of restricted diagrams in T^4 equations:   5509
 Optimizing intermediate calculation...
 Number of floating-point operations per iteration step:   2.1102E+15
 Probable CPU time per iteration step (hours):  21101.90
 Required memory (Mbytes):  477328.6
 Number of intermediates:                                1972
 Number of intermediates to be stored:                    604
 Length of intermediate file (Mbytes):  343289.7

 ************************ 2016-09-27 15:17:08 *************************
 Executing xmrcc...

 **********************************************************************
 MRCC(                     4 ) calculation 
 
 
 Allocation of****** Mbytes of memory...
 Number of spinorbitals:                   502
 Number of alpha electrons:                        5
 Number of beta electrons:                         5
 Number of active particles:                   164
 Number of active holes:                         4
 Spin multiplicity:                     1
 z-component of spin:  0.0
 Spatial symmetry:                      1
 Convergence criterion:  1.0E-07
 Construction of occupation graphs...
 Number of                     0 -fold excitations:                      1
 Number of                     1 -fold excitations:                    446
 Number of                     2 -fold excitations:                 278350
 Number of                     3 -fold excitations:               99164296
 Number of                     4 -fold excitations:            19070797676
 Total number of configurations:            19170240769
 Calculation of coupling coefficients...
 Length of intermediate file (Mbytes):  351513.5
 
 ======================================================================
 
 Memory requirements /Mbyte/: 
               Minimal        Optimal
 Real*8:     149760.3839    166923.7749
 Integer:     55793.7982
 Total:      205554.1821    222717.5731
 
 Unable to optimize memory usage: Insufficient memory!
 
 ************************ 2016-09-27 16:00:52 *************************
                   Error at the termination of mrcc.
 **********************************************************************
--executable dmrcc finished with status   256 in   132198.40 seconds (walltime).
  This computation required                       132766.21 seconds (walltime).
--- SharcNET Job Epilogue ---
Job completed successfully.
               jobid: 1237572
               resid: 2718998
         exit status: 0
      allocated time: 132767
           user time: 110439
         system time: 19937.4
peak rss=100723445760; peak vsz=100723445760 (bytes)
atime=132767; utime=110439; stime=19937.4; exit=0
