 --invoking executable--
/home/nike/cfour_v2.00beta/cfour_v2.00beta/bin/xjoda


   *************************************************************************
         <<<     CCCCCC     CCCCCC   |||     CCCCCC     CCCCCC   >>>
       <<<      CCC        CCC       |||    CCC        CCC         >>>
      <<<      CCC        CCC        |||   CCC        CCC            >>>
    <<<        CCC        CCC        |||   CCC        CCC              >>>
      <<<      CCC        CCC        |||   CCC        CCC            >>>
       <<<      CCC        CCC       |||    CCC        CCC         >>>
         <<<     CCCCCC     CCCCCC   |||     CCCCCC     CCCCCC   >>>
   *************************************************************************

     ****************************************************************
     * CFOUR Coupled-Cluster techniques for Computational Chemistry *
     ****************************************************************
 

   Department of Chemistry                Institut fuer Physikalische Chemie
   University of Texas at Austin          Universitaet Mainz
   Austin, TX  78712, USA                 D-55099 Mainz, Germany
 
                       Version 2.00beta
 
                     blg8442.int.ets1.calculquebec.ca                  
                     Di 25. Feb 01:22:07 EST 2020                      
                     integer*8 version is running
 
********************************************************************************
*                          Input from ZMAT file                                *
********************************************************************************
TITLE                                                                           
Li                                                                              
Li 1 R                                                                          
                                                                                
R=5.05121412058                                                                 
                                                                                
*ACES2(CALC=CCSD(T)                                                             
UNITS=BOHR                                                                      
#GEOM=2.6729874*10/5.29177210903_GuntonSemczukDattaniMadison2013                
#COORD=CARTESIAN                                                                
COORD=INTERNAL                                                                  
PRINT=4                                                                         
JODA_PRINT=4                                                                    
INPUT_MRCC=OFF                                                                  
#CC_PROG=MRCC                                                                   
#FROZEN_CORE=ON                                                                 
#DROPMO=1>5                                                                     
CONTRACTION=GENERAL                                                             
#CONTRACTION=SEGMENTED                                                          
RELATIVISTIC=OFF                                                                
#EXCITE=EOMEE                                                                   
#ESTATE_CONV=5                                                                  
#ESTATE_SYM=2/2/2/2/2/2/2/2                                                     
XFORM_TOL=18                                                                    
SAVE_INTS=ON                                                                    
SCF_EXPORDER=6                                                                  
SCF_EXPSTART=5                                                                  
#SCF_DAMPING=1000                                                               
SCF_EXTRAPOLATION=ON                                                            
SCF_CONV=12                                                                     
SCF_MAXCYC=99999                                                                
CC_CONV=9                                                                       
CC_MAXCYC=999                                                                   
T3_EXTRAPOL=ON                                                                  
REFERENCE=RHF                                                                   
CHARGE=+0                                                                       
MULT=1                                                                          
ABCDTYPE=STANDARD                                                               
#OCCUPATION=3-2-2-0-1-0-0-0/3-1-1-0-1-0-0-0                                     
MEM=12                                                                          
MEM_UNIT=GB                                                                     
BASIS=SPECIAL)                                                                  
                                                                                
LI:def2-TZVPP                                                                   
LI:def2-TZVPP                                                                   
                                                                                
********************************************************************************
  @GTFLGS-W, Keyword #GEOM not known and is ignored.
  @GTFLGS-W, Keyword #COORD not known and is ignored.
  @GTFLGS-W, Keyword #CC_PROG not known and is ignored.
  @GTFLGS-W, Keyword #FROZEN_CORE not known and is ignored.
  @GTFLGS-W, Keyword #DROPMO not known and is ignored.
  @GTFLGS-W, Keyword #CONTRACTION not known and is ignored.
  @GTFLGS-W, Keyword #EXCITE not known and is ignored.
  @GTFLGS-W, Keyword #ESTATE_CONV not known and is ignored.
  @GTFLGS-W, Keyword #ESTATE_SYM not known and is ignored.
  @GTFLGS-W, Keyword #SCF_DAMPING not known and is ignored.
  @GTFLGS-W, Keyword #OCCUPATION not known and is ignored.
    -------------------------------------------------------------------
                    CFOUR Control Parameters 
    -------------------------------------------------------------------
        External           Internal           Value            Units
          Name               Name
    -------------------------------------------------------------------
       ABCDTYPE             IABCDT         STANDARD     [  0]   ***   
       ANHARMONIC           IANHAR         OFF          [  0]   ***   
       ANH_ALGORIT          IANALG         STANDARD     [  0]   ***   
       ANH_DERIVAT          IANDER         SECOND       [  1]   ***   
       ANH_STEPSIZ          ICUBST             50000          x 10-6  
       ANH_SYMMETR          IANHSM         ABELIAN      [  0]   ***   
       AO_LADDERS           IAOLAD         SINGLEPASS   [  1]   ***   
       BASIS                IBASIS         SPECIAL      [  0]   ***   
       BREIT                IBREIT         OFF          [  0]   ***   
       BRUCK_CONV           IBRTOL          10D-  4             ***   
       BRUECKNER            IBRKNR             OFF      [  0]   ***   
       BUFFERSIZE           IBUFFS            600               ***   
       CACHE_RECS           ICHREC             10               ***   
       CALCLEVEL            ICLLVL           CCSD(T)    [ 22]   ***   
       CCORBOPT             ICCORB             OFF      [  0] x 0.01  
       CC_CONV              ICCCNV          10D-  9             ***   
       CC_EXPORDER          ICCEOR              5               ***   
       CC_EXTRAPOL          ICCEXT             DIIS     [  1]   ***   
       CC_MAXCYC            ICCCYC            999              cycles 
       CC_PROGRAM           ICCPRO         VCC          [  0]   ***   
       CHARGE               ICHRGE              0               ***   
       CHOLESKY             ICHOLE         OFF          [  0]   ***   
       CIS_CONV             ICISTL              5               ***   
       COMM_SIZE            IPSIZE            ***               ***   
       CONSTANT             ICONST         OLD          [  1]   ***   
       CONTINUUM            ICONTU         NONE         [  0]   ***   
       CONTRACTION          ICNTYP          GENERAL     [  1]   ***   
       COORDINATES          ICOORD         INTERNAL     [  0]   ***   
       CPHF_CONVER          ICPHFT          10D- 16             ***   
       CPHF_MAXCYC          ICPHFC             64              cycles 
       CUBIC                ICUBIC         OFF          [  0]   ***   
       CURVILINEAR          ICURVY            OFF       [  0]   ***   
       DBOC                 IDBOC          OFF          [  0]   ***   
       DCT                  IDCT           OFF          [  0]   ***   
       DERIV_LEV            IDRLVL            ZERO      [  0]   ***   
       DIAG_MRCC            IEOMST          10D-  0             ***   
       DIFF_TYPE            IDIFTY         RELAXED      [  0]   ***   
       DIRECT               IDIRCT         OFF          [  0]   ***   
       DROPMO               IDRPMO      NONE         
       ECP                  IECP           OFF          [  0]   ***   
       EIGENVECTOR          IVEC                1               ***   
       EL_ANHARM            IELANH         OFF          [  0]   ***   
       EOMFOLLOW            IEOMSR         ENERGY       [  0]   ***   
       EOM_MRCC             IMRCCE         NEW          [  1]   ***   
       EOM_NONIT            EOMNON         OFF          [  0]   ***   
       EOM_NSING            IEOMSI          10D-  0             ***   
       EOM_NSTATES          IMRCCD         DAVIDSON     [  0]   ***   
       EOM_NTRIP            IEOMTR          10D-  0             ***   
       EOM_ORDER            IEXORD         ENERGY       [  0]   ***   
       ESTATE_CONV          IEXTOL          10D-  5             ***   
       ESTATE_DIAG          IEXDIG         ITERATIVE    [  0]   ***   
       ESTATE_LOCK          IESLOC         ON           [  1]   ***   
       ESTATE_MAXC          IEXMXC             20               ***   
       ESTATE_PROP          IEXPRP         OFF          [  0]   ***   
       EVAL_HESS            IRECAL              0            # of cyc.
       EXCITATION           IEXCIT              0               ***   
       EXCITE               IEXCIT         NONE         [  0]   ***   
       FCGRADNEW            IFCGNW         OFF          [  0]   ***   
       FC_FIELD             IFINFC              0             x 10-6  
       FD_CALTYPE           IFDCAL         GRADONLY     [  0]   ***   
       FD_PROJECT           IFDPRJ         OFF          [  1]   ***   
       FD_STEPSIZE          IDISFD              0            10-4 bohr
       FD_USEGROUP          IFDGRP         FULL         [  0]   ***   
       FILE_RECSIZ          IFLREC              4096           words  
       FINITE_PERT          IFIPER              0             x 10-6  
       FIXGEOM              IFIXGM         OFF          [  0]   ***   
       FOCK                 IFOCK          AO           [  1]   ***   
       FREQ_ALGORI          IVIALG         STANDARD     [  0]   ***   
       FROZEN_CORE          IFROCO         OFF          [  0]   ***   
       FROZEN_VIRT          IFROVI         OFF          [  0]   ***   
       GAMMA_ABCD           IGABCD         STORE        [  0]   ***   
       GAMMA_ABCI           IGABCI         STORE        [  0]   ***   
       GENBAS_1             IGNBS1              0               ***   
       GENBAS_2             IGNBS2              0               ***   
       GENBAS_3             IGNBS3              0               ***   
       GENBAS_4             IGNBS4              0               ***   
       GEO_CONV             ICONTL              5              H/bohr 
       GEO_MAXCYC           IOPTCY             50               ***   
       GEO_MAXSTEP          IMXSTP            300            millibohr
       GEO_METHOD           INR            SINGLE_POINT [  5]   ***   
       GIAO                 IGIAO          OFF          [  1]   ***   
       GIMIC                IGIMIC         OFF          [  0]   ***   
       GRID                 IGRID          OFF          [  0]   ***   
       GRID_ALGO            IGALGO         SERIAL       [  0]   ***   
       GUESS                IGUESS            MOREAD    [  0]   ***   
       HBAR                 IHBAR              OFF      [  0]   ***   
       HESS_TYPE            IHESTP         SCF          [  0]   ***   
       HF2_FILE             IHF2Fl         USE          [  1]   ***   
       HFSTABILITY          ISTABL         OFF          [  0]   ***   
       INCORE               INCORE             OFF      [  0]   ***   
       INPUT_MRCC           IMRCC          OFF          [  0]   ***   
       INTEGRALS            INTTYP             VMOL     [  1]   ***   
       JODA_PRINT           IJPRNT              4               ***   
       LINDEP_TOL           ILINDP              8               ***   
       LINEQ_CONV           IZTACN          10D-  7           cycles  
       LINEQ_EXPOR          ILMAXD              5               ***   
       LINEQ_MAXCY          ILMAXC             50               ***   
       LINEQ_TYPE           ILTYPE         DIIS         [  1]   ***   
       LOCK_ORBOCC          ILOCOC             OFF      [  0]   ***   
       MEMORY_SIZE          IMEMSZ         *********           words  
       MEM_UNIT             IMEMU          GB           [  3]   ***   
       MRCC                 IMRCCC         OFF          [  0]   ***   
       MULTIPLICTY          IMULTP              1               ***   
       NEGEVAL              IDIE             ABORT      [  0]   ***   
       NEWNORM              INEWNO         OFF          [  0]   ***   
       NON-HF               INONHF             OFF      [  0]   ***   
       NTOP_TAMP            ITOPT2             15               ***   
       NUC_MODEL            INUCMO         POINT        [  0]   ***   
       OCCUPATION           IOCCU   ESTIMATED BY SCF 
       OPEN-SHELL           IOPEN          SPIN-ORBITAL [  0]   ***   
       ORBITALS             IORBTP           STANDARD   [  0]   ***   
       PARALLEL             IPARAL         ON           [  1]   ***   
       PARA_INT             IPINTS         ON           [  1]   ***   
       PARA_PRINT           IPPRIN              0               ***   
       PERT_ORB             IPTORB         STANDARD     [  0]   ***   
       POINTS               IGRDFD              0               ***   
       PRINT                IPRNT               4               ***   
       PROPS                IPROPS             OFF      [  0]   ***   
       PROP_INTEGR          IINTYP         INTERNAL     [  0]   ***   
       PSI                  IPSI           OFF          [  0]   ***   
       QUARTIC              IQUART         OFF          [  0]   ***   
       RAMAN_INT            IRAMIN         OFF          [  0]   ***   
       RAMAN_ORB            IRAMRE         UNRELAXED    [  0]   ***   
       RDO                  IRDOFM             OFF      [  0]   ***   
       REFERENCE            IREFNC             RHF      [  0]   ***   
       RELATIVIST           IRELAT         OFF          [  0]   ***   
       RELAX_DENS           IRDENS             OFF      [  0]   ***   
       RESET_FLAGS          IRESET             OFF      [  0]   ***   
       RESTART_CC           ICCRES         OFF          [  0]   ***   
       ROT_EVEC             ROTVEC              0               ***   
       SAVE_INTS            ISVINT              ON      [  1]   ***   
       SCALE_ON             ISTCRT              0               ***   
       SCF_CONV             ISCFCV          10D- 12             ***   
       SCF_DAMPING          IDAMP               0             x 10-3  
       SCF_EXPORDE          IRPPOR              6               ***   
       SCF_EXPSTAR          IRPPLS              5               ***   
       SCF_EXTRAPO          IRPP                ON      [  1]   ***   
       SCF_MAXCYC           ISCFCY            ***              cycles 
       SCF_NOSTOP           ISCFST         OFF          [  0]   ***   
       SCF_PRINT            ISCFPR              0               ***   
       SD_FIELD             IFINSD              0             x 10-6  
       SEQUENCE             ISEQUE         OFF          [  0]   ***   
       SOPERT               IPERSO         OFF          [  0]   ***   
       SPHERICAL            IDFGHI             ON       [  1]   ***   
       SPINORBIT            ISOCAL         OFF          [  0]   ***   
       SPINROTATIO          ISRCON         OFF          [  0]   ***   
       SPIN_FLIP            ISPFLP         OFF          [  0]   ***   
       SPIN_ORBIT           ISPORB         OFF          [  0]   ***   
       SPIN_SCAL            ISCSMP         OFF          [  0]   ***   
       SUBGROUP             ISUBGP         DEFAULT      [  0]   ***   
       SUBGRPAXIS           ISBXYZ         X            [  0]   ***   
       SYMMETRY             ISYM             ON         [  0]   ***   
       SYM_CHECK            ISYMCK         OVERRIDE     [  1]   ***   
       T3_EXTRAPOL          IT3EXT         ON           [  1]   ***   
       TAMP_SUM             IEVERY              5               ***   
       TESTSUITE            ITESTS         OFF          [  0]   ***   
       THERMOCH             ITHERM         OFF          [  0]   ***   
       TOL_CHOLESK          ITOLCH          10D-  4             ***   
       TRANGRAD             IRESRM         OFF          [  0]   ***   
       TRANS_INV            ITRAIN         USE          [  0]   ***   
       TREAT_PERT           ITREAT         SIMULTANEOUS [  0]   ***   
       UIJ_THRESHO          IUIJTH              1               ***   
       UNITS                IUNITS         BOHR         [  1]   ***   
       UNOS                 IUNOS          OFF          [  0]   ***   
       UPDATE_HESS          IHUPDT         ON           [  1]   ***   
       VIBPHASE             ISETPH         STANDARD     [  0]   ***   
       VIBRATION            IVIB              NO        [  0]   ***   
       VIB_ALGORIT          IGEALG         STANDARD     [  0]   ***   
       VNATORB              IVNORB         OFF          [  0]   ***   
       VTRAN                IVTRAN         FULL/PARTIAL [  0]   ***   
       XFIELD               IXEFLD              0             x 10-6  
       XFORM_TOL            IXFTOL          10D- 18             ***   
       YFIELD               IYEFLD              0             x 10-6  
       ZFIELD               IZEFLD              0             x 10-6  
    -------------------------------------------------------------------
   2 entries found in Z-matrix 
   Job Title : TITLE                                                                           
 Variable names read by FETCHZ
  1           
  2           
  3           
  4 R         
  5           
  6           
 Atomic symbols read by FETCHZ
  1 Li   
  2 Li   
 Connectivity matrix read by FETCHZ
  1   0
  2   0
  3   0
  4   1
  5   0
  6   0
   There are  1 unique internal coordinates.
   Of these,  0 will be optimized.
   User supplied Z-matrix: 
--------------------------------------------------------------------------------
       SYMBOL    BOND      LENGTH    ANGLE     ANGLE     DIHED     ANGLE
                  TO      (ANGST)    WRT      (DEG)      WRT      (DEG)
--------------------------------------------------------------------------------
        Li   
        Li         1         R    
                  *Initial values for internal coordinates* 
                      Name             Value
                        R               5.0512141206
--------------------------------------------------------------------------------
  1  LI         3     7.01600
  2  LI         3     7.01600
    7.0160030000
    7.0160030000
 After translation to center of mass coordinates 
        0.000000000000    0.000000000000   -2.525607060290
        0.000000000000    0.000000000000    2.525607060290
  Inertia tensor (amu*bohr**2)
   89.50583    0.00000    0.00000
    0.00000   89.50583    0.00000
    0.00000    0.00000    0.00000
    Inertia tensor:
       89.505830706695    0.000000000000    0.000000000000
        0.000000000000   89.505830706695    0.000000000000
        0.000000000000    0.000000000000    0.000000000000
    Principal axis orientation for molecular system: 
       -0.000000000000    0.000000000000    2.525607060290
        0.000000000000    0.000000000000   -2.525607060290
    Diagonalized inertia tensor:
       89.505830706695    0.000000000000    0.000000000000
        0.000000000000   89.505830706695    0.000000000000
        0.000000000000    0.000000000000    0.000000000000
    Eigenvectors of inertia tensor: 
        1.000000000000    0.000000000000    0.000000000000
        0.000000000000    1.000000000000    0.000000000000
        0.000000000000    0.000000000000   -1.000000000000
 factor:   60.1997200000000     
   Rotational constants (in cm-1): 
          0.6725787530             0.6725787530
   Rotational constants (in MHz): 
      20163.4065798911         20163.4065798911
  @SYMMETRY-I, Handedness of inertial frame:-1.00000
  @SYMMETRY-I, Sense of inertial frame y-axis will be changed.
  @SYMMETRY-I, The symmetry group is 2-fold degenerate.
  @SYMMETRY-I, The molecule belongs to a point group with doubly degenerate representations.
  @SYMMETRY-I, The molecule is linear.
   Principal axis orientation for molecule:
       -0.000000000000    0.000000000000    2.525607060290
        0.000000000000    0.000000000000   -2.525607060290
   Reflection in plane  3 is a valid symmetry operation.
   Rotation about  3 is a valid symmetry operation 
   Reflection in plane  2 is a valid symmetry operation.
   Rotation about  2 is a valid symmetry operation 
   Reflection in plane  1 is a valid symmetry operation.
   Rotation about  1 is a valid symmetry operation 
   The molecule possesses an inversion center. 
  Symmetry bits:    7   7   1
********************************************************************************
   The full molecular point group is DXh .
   The largest Abelian subgroup of the full molecular point group is D2h .
   The computational point group is D2h .
********************************************************************************
--------------------------------------------------------------------------------
   Analysis of internal coordinates specified by Z-matrix 
--------------------------------------------------------------------------------
   *The nuclear repulsion energy is    1.781749849671109 a.u.
   *There is   1 degree of freedom within the tot. symm. molecular subspace.
   *Z-matrix requests optimization of   0 coordinates.
   *The optimization is constrained.
   *The following   1 parameters can have non-zero 
    derivatives within the totally symmetric subspace:
             R    [ 1]
   *The following   0 parameters are to be optimized:

   *The following coordinates must be varied in an  unconstrained optimization.
             R    [ 1]
--------------------------------------------------------------------------------
 ----------------------------------------------------------------
 Z-matrix   Atomic            Coordinates (in bohr)
  Symbol    Number           X              Y              Z
 ----------------------------------------------------------------
     LI        3        -0.00000000     0.00000000     2.52560706
     LI        3         0.00000000     0.00000000    -2.52560706
 ----------------------------------------------------------------
   Interatomic distance matrix (Angstroms) 
 
                 LI            LI   
                [ 1]        [ 2]
  LI   [ 1]     0.00000
  LI   [ 2]     2.67299     0.00000
  Inertia tensor (amu*bohr**2)
   89.50583    0.00000    0.00000
    0.00000   89.50583    0.00000
    0.00000    0.00000    0.00000
   Rotational constants (in cm-1): 
          0.6725787530             0.0000000000
   Rotational constants (in MHz): 
      20163.4065798911             0.0000000000
  @GTFLGS-W, Keyword #GEOM not known and is ignored.
  @GTFLGS-W, Keyword #COORD not known and is ignored.
  @GTFLGS-W, Keyword #CC_PROG not known and is ignored.
  @GTFLGS-W, Keyword #FROZEN_CORE not known and is ignored.
  @GTFLGS-W, Keyword #DROPMO not known and is ignored.
  @GTFLGS-W, Keyword #CONTRACTION not known and is ignored.
  @GTFLGS-W, Keyword #EXCITE not known and is ignored.
  @GTFLGS-W, Keyword #ESTATE_CONV not known and is ignored.
  @GTFLGS-W, Keyword #ESTATE_SYM not known and is ignored.
  @GTFLGS-W, Keyword #SCF_DAMPING not known and is ignored.
  @GTFLGS-W, Keyword #OCCUPATION not known and is ignored.
  There are   38 basis functions.
 @GEOPT-W, Archive file not created for single-point calculation.
  @CHECKOUT-I, Total execution time (CPU/WALL):        0.50/       0.88 seconds.
--executable xjoda finished with status     0 in        2.53 seconds (walltime).
 --invoking executable--
/home/nike/cfour_v2.00beta/cfour_v2.00beta/bin/xvmol
 Serial version of molecule started
********************************************************************************
                    Input from MOL file
********************************************************************************
INTGRL        1    0    1    0    0    0    0    0    0                         
         *** CFOUR Program System (Release V0.1) ***                            
TITLE                                                                           
    1    3 X  Y   Z   0.10E-08              0    0                              
   9999.00      3.00                                                            
          3.00000000    1    3    1    1    1                                   
LI#1  -0.000000000000000   0.000000000000000   2.525607060290000                
   11    5                                                                      
   6269.26280100000       2.054096882600000E-004  0.000000000000000E+000        
  0.000000000000000E+000  0.000000000000000E+000  0.000000000000000E+000        
   940.316124310000       1.591655408900000E-003  0.000000000000000E+000        
  0.000000000000000E+000  0.000000000000000E+000  0.000000000000000E+000        
   214.221075280000       8.286982970700000E-003  0.000000000000000E+000        
  0.000000000000000E+000  0.000000000000000E+000  0.000000000000000E+000        
   60.7598401840000       3.385637424900000E-002  0.000000000000000E+000        
  0.000000000000000E+000  0.000000000000000E+000  0.000000000000000E+000        
   19.9151520320000       0.111032258760000       0.000000000000000E+000        
  0.000000000000000E+000  0.000000000000000E+000  0.000000000000000E+000        
   7.31715097970000       0.274493833290000       0.000000000000000E+000        
  0.000000000000000E+000  0.000000000000000E+000  0.000000000000000E+000        
   2.97246742160000       0.000000000000000E+000  0.237924564110000             
  0.000000000000000E+000  0.000000000000000E+000  0.000000000000000E+000        
   1.26398523140000       0.000000000000000E+000  0.307654119240000             
  0.000000000000000E+000  0.000000000000000E+000  0.000000000000000E+000        
  0.514274899530000       0.000000000000000E+000  0.000000000000000E+000        
   1.00000000000000       0.000000000000000E+000  0.000000000000000E+000        
  7.703088590100000E-002  0.000000000000000E+000  0.000000000000000E+000        
  0.000000000000000E+000   1.00000000000000       0.000000000000000E+000        
  2.893889643300000E-002  0.000000000000000E+000  0.000000000000000E+000        
  0.000000000000000E+000  0.000000000000000E+000   1.00000000000000             
    3    3                                                                      
  0.400000000000000        1.00000000000000       0.000000000000000E+000        
  0.000000000000000E+000                                                        
  6.000000000000000E-002  0.000000000000000E+000   1.00000000000000             
  0.000000000000000E+000                                                        
   3.32700000000000       0.000000000000000E+000  0.000000000000000E+000        
   1.00000000000000                                                             
    1    1                                                                      
  0.131900000000000        1.00000000000000                                     
FINISH                                                                          
 
********************************************************************************
 One- and two-electron integrals over symmetry-adapted AOs are calculated.

  Spherical harmonics are used.
  
   1 types of atoms
   3 symmetry operations

   Reflection in the YZ-plane
   Reflection in the XZ-plane
   Reflection in the XY-plane
  
  Integrals less than  0.10E-13 are neglected.

  Atomic type number  1 :
  -----------------------

    Nuclear charge:                        3
    number of symmetry independent atoms:  1
    highest orbital type:                  d

      1 groups of CGTOs of s type
      1 groups of CGTOs of p type
      1 groups of CGTOs of d type

    nuclear coordinates (in a.u.) are :

    LI#1        0.000000000000000        0.000000000000000        2.525607060290000
  
   Basis function not normalized: 
   Center (as ordered in MOL file):   1
   Angular Momentum type          : s
   Offset within angular momentum :  1
   <chi|chi>                      :    2.5221737246
   Basis function not normalized: 
   Center (as ordered in MOL file):   1
   Angular Momentum type          : s
   Offset within angular momentum :  2
   <chi|chi>                      :    1.8918202518
   Internuclear distances (A) :

     for atom LI#1 (coordinates :   0.00000   0.00000   2.52561)

     LI#1   5     distance is  2.673

   Group multiplication table :

         1   2   3   4   5   6   7   8
         2   1   4   3   6   5   8   7
         3   4   1   2   7   8   5   6
         4   3   2   1   8   7   6   5
         5   6   7   8   1   2   3   4
         6   5   8   7   2   1   4   3
         7   8   5   6   3   4   1   2
         8   7   6   5   4   3   2   1

   Gaussian basis information :

   atom                 exponent      coefficients

 LI#1  1    S   
+                 1    6269.262801   0.0002054   0.0000000   0.0000000   0.0000000   0.0000000
                  2     940.316124   0.0015917   0.0000000   0.0000000   0.0000000   0.0000000
                  3     214.221075   0.0082870   0.0000000   0.0000000   0.0000000   0.0000000
                  4      60.759840   0.0338564   0.0000000   0.0000000   0.0000000   0.0000000
                  5      19.915152   0.1110323   0.0000000   0.0000000   0.0000000   0.0000000
                  6       7.317151   0.2744938   0.0000000   0.0000000   0.0000000   0.0000000
                  7       2.972467   0.0000000   0.2379246   0.0000000   0.0000000   0.0000000
                  8       1.263985   0.0000000   0.3076541   0.0000000   0.0000000   0.0000000
                  9       0.514275   0.0000000   0.0000000   1.0000000   0.0000000   0.0000000
                 10       0.077031   0.0000000   0.0000000   0.0000000   1.0000000   0.0000000
                 11       0.028939   0.0000000   0.0000000   0.0000000   0.0000000   1.0000000

 LI#1  5    S   
+                12    6269.262801   0.0002054   0.0000000   0.0000000   0.0000000   0.0000000
                 13     940.316124   0.0015917   0.0000000   0.0000000   0.0000000   0.0000000
                 14     214.221075   0.0082870   0.0000000   0.0000000   0.0000000   0.0000000
                 15      60.759840   0.0338564   0.0000000   0.0000000   0.0000000   0.0000000
                 16      19.915152   0.1110323   0.0000000   0.0000000   0.0000000   0.0000000
                 17       7.317151   0.2744938   0.0000000   0.0000000   0.0000000   0.0000000
                 18       2.972467   0.0000000   0.2379246   0.0000000   0.0000000   0.0000000
                 19       1.263985   0.0000000   0.3076541   0.0000000   0.0000000   0.0000000
                 20       0.514275   0.0000000   0.0000000   1.0000000   0.0000000   0.0000000
                 21       0.077031   0.0000000   0.0000000   0.0000000   1.0000000   0.0000000
                 22       0.028939   0.0000000   0.0000000   0.0000000   0.0000000   1.0000000

 LI#1  1    X   
+                23       0.400000   1.0000000   0.0000000   0.0000000
                 24       0.060000   0.0000000   1.0000000   0.0000000
                 25       3.327000   0.0000000   0.0000000   1.0000000

 LI#1  5    X   
+                26       0.400000   1.0000000   0.0000000   0.0000000
                 27       0.060000   0.0000000   1.0000000   0.0000000
                 28       3.327000   0.0000000   0.0000000   1.0000000

 LI#1  1    Y   
+                29       0.400000   1.0000000   0.0000000   0.0000000
                 30       0.060000   0.0000000   1.0000000   0.0000000
                 31       3.327000   0.0000000   0.0000000   1.0000000

 LI#1  5    Y   
+                32       0.400000   1.0000000   0.0000000   0.0000000
                 33       0.060000   0.0000000   1.0000000   0.0000000
                 34       3.327000   0.0000000   0.0000000   1.0000000

 LI#1  1    Z   
+                35       0.400000   1.0000000   0.0000000   0.0000000
                 36       0.060000   0.0000000   1.0000000   0.0000000
                 37       3.327000   0.0000000   0.0000000   1.0000000

 LI#1  5    Z   
+                38       0.400000   1.0000000   0.0000000   0.0000000
                 39       0.060000   0.0000000   1.0000000   0.0000000
                 40       3.327000   0.0000000   0.0000000   1.0000000

 LI#1  1    XX  
+                41       0.131900   1.0000000

 LI#1  5    XX  
+                42       0.131900   1.0000000

 LI#1  1    XY  
+                43       0.131900   1.0000000

 LI#1  5    XY  
+                44       0.131900   1.0000000

 LI#1  1    XZ  
+                45       0.131900   1.0000000

 LI#1  5    XZ  
+                46       0.131900   1.0000000

 LI#1  1    YY  
+                47       0.131900   1.0000000

 LI#1  5    YY  
+                48       0.131900   1.0000000

 LI#1  1    YZ  
+                49       0.131900   1.0000000

 LI#1  5    YZ  
+                50       0.131900   1.0000000

 LI#1  1    ZZ  
+                51       0.131900   1.0000000

 LI#1  5    ZZ  
+                52       0.131900   1.0000000
 40 38
  1  2  3  4  5  6  7  8  9 10*** 11 12 13 14 15 16 17 18 19 20 21 22 23 24
 25 26 27 28 29*** 30 31 32 33 34 35 36 37 38
1

             SYMMETRY TRANSFORMATION INFO
             38 SYMMETRY ADAPTED BASIS FUNCTIONS 


          irreducible representation number 1

    1    1  LI#1     1s     2   1   1.0   2   1.0
    2    2  LI#1     1s     2   3   1.0   4   1.0
    3    3  LI#1     1s     2   5   1.0   6   1.0
    4    4  LI#1     1s     2   7   1.0   8   1.0
    5    5  LI#1     1s     2   9   1.0  10   1.0
    6    6  LI#1     2pz    2  23   1.0  24  -1.0
    7    7  LI#1     2pz    2  25   1.0  26  -1.0
    8    8  LI#1     2pz    2  27   1.0  28  -1.0
    9    9  LI#1     3d2-   6  29  -1.0  35  -1.0  39   2.0  30  -1.0  36  -1.0  40   2.0
   10   10  LI#1     3d1+   4  29   1.0  35  -1.0  30   1.0  36  -1.0


          irreducible representation number 2

   11    1  LI#1     2px    2  11   1.0  12   1.0
   12    2  LI#1     2px    2  13   1.0  14   1.0
   13    3  LI#1     2px    2  15   1.0  16   1.0
   14    4  LI#1     3d0    2  33   1.0  34  -1.0


          irreducible representation number 3

   15    1  LI#1     2py    2  17   1.0  18   1.0
   16    2  LI#1     2py    2  19   1.0  20   1.0
   17    3  LI#1     2py    2  21   1.0  22   1.0
   18    4  LI#1     3d2+   2  37   1.0  38  -1.0


          irreducible representation number 4

   19    1  LI#1     3d1-   2  31   1.0  32   1.0


          irreducible representation number 5

   20    1  LI#1     1s     2   1   1.0   2  -1.0
   21    2  LI#1     1s     2   3   1.0   4  -1.0
   22    3  LI#1     1s     2   5   1.0   6  -1.0
   23    4  LI#1     1s     2   7   1.0   8  -1.0
   24    5  LI#1     1s     2   9   1.0  10  -1.0
   25    6  LI#1     2pz    2  23   1.0  24   1.0
   26    7  LI#1     2pz    2  25   1.0  26   1.0
   27    8  LI#1     2pz    2  27   1.0  28   1.0
   28    9  LI#1     3d2-   6  29  -1.0  35  -1.0  39   2.0  30   1.0  36   1.0  40  -2.0
   29   10  LI#1     3d1+   4  29   1.0  35  -1.0  30  -1.0  36   1.0


          irreducible representation number 6

   30    1  LI#1     2px    2  11   1.0  12  -1.0
   31    2  LI#1     2px    2  13   1.0  14  -1.0
   32    3  LI#1     2px    2  15   1.0  16  -1.0
   33    4  LI#1     3d0    2  33   1.0  34   1.0


          irreducible representation number 7

   34    1  LI#1     2py    2  17   1.0  18  -1.0
   35    2  LI#1     2py    2  19   1.0  20  -1.0
   36    3  LI#1     2py    2  21   1.0  22  -1.0
   37    4  LI#1     3d2+   2  37   1.0  38   1.0


          irreducible representation number 8

   38    1  LI#1     3d1-   2  31   1.0  32  -1.0
  Nuclear repulsion energy :    1.7817498497 a.u.
  required memory for a1 array                5034290  words 
  required memory for a2 array                2103164  words 
 @GETMEM-I,  Allocated      69 MB of main memory.
  @MOLECU-I, One electron integrals (CPU/WALL):        0.02/       0.03 seconds.
  @TWOEL-I,       2474 integrals of symmetry type  I I I I
  @TWOEL-I,      11215 integrals of symmetry type  I J I J
  @TWOEL-I,       7462 integrals of symmetry type  I I J J
  @TWOEL-I,      14422 integrals of symmetry type  I J K L
  @TWOEL-I, Total number of 2-e integrals      35573.
  @MOLECU-I, Two electron integrals (CPU/WALL):        0.03/       0.03 seconds.
  @CHECKOUT-I, Total execution time (CPU/WALL):        0.20/       0.32 seconds.
--executable xvmol finished with status     0 in        0.36 seconds (walltime).
 --invoking executable--
/home/nike/cfour_v2.00beta/cfour_v2.00beta/bin/xvmol2ja
 @GETMEM-I,  Allocated   11444 MB of main memory.
  @CHECKOUT-I, Total execution time (CPU/WALL):        0.01/       0.02 seconds.
--executable xvmol2ja finished with status     0 in        0.06 seconds (walltime).
 --invoking executable--
/home/nike/cfour_v2.00beta/cfour_v2.00beta/bin/xvscf
  There are   38 functions in the AO basis.

  There are 8 irreducible representations.

       Irrep        # of functions
         1                 10
         2                  4
         3                  4
         4                  1
         5                 10
         6                  4
         7                  4
         8                  1


  Parameters for SCF calculation: 
        SCF reference function:  RHF  
  Maximum number of iterations: ****
     Full symmetry point group: DXh 
     Computational point group: D2h 
        Initial density matrix: MOREAD                 
     SCF convergence tolerance: 10**(-12)
  DIIS convergence acceleration:  ON
          Latest start for DIIS:   5
                     DIIS order:   6

  Memory information:      92656 words required.
  Fock matrices are constructed from AO integral file.
 @GETMEM-I,  Allocated       0 MB of main memory.
  Initialization and symmetry analysis required      0.019 seconds.

  @INITGES-I, Occupancies from core Hamiltonian:

          Alpha population by irrep:   2    0    0    0    1    0    0    0
           Beta population by irrep:   2    0    0    0    1    0    0    0


 total no. of electrons in initial guess :  0.000000000000000E+000
  --------------------------------------------------------------------
  Iteration         Total Energy            Largest Density Difference
  --------------------------------------------------------------------
       0             1.781749849671109              0.0000000000D+00
   current occupation vector 
     2  0  0  0  1  0  0  0
     2  0  0  0  1  0  0  0
  processed                   2474  ao basis integrals from 
                     5  buffers.
  processed                   7462  ao basis integrals from 
                    13  buffers.
  processed                  11215  ao basis integrals from 
                    19  buffers.
       1           -14.045063486422800              0.6498161936D+00
   current occupation vector 
     2  0  0  0  1  0  0  0
     2  0  0  0  1  0  0  0
  processed                   2474  ao basis integrals from 
                     5  buffers.
  processed                   7462  ao basis integrals from 
                    13  buffers.
  processed                  11215  ao basis integrals from 
                    19  buffers.
       2           -14.852109953787194              0.4350168140D+00
   current occupation vector 
     2  0  0  0  1  0  0  0
     2  0  0  0  1  0  0  0
  processed                   2474  ao basis integrals from 
                     5  buffers.
  processed                   7462  ao basis integrals from 
                    13  buffers.
  processed                  11215  ao basis integrals from 
                    19  buffers.
       3           -14.869005831675638              0.1800780757D+00
   current occupation vector 
     2  0  0  0  1  0  0  0
     2  0  0  0  1  0  0  0
  processed                   2474  ao basis integrals from 
                     5  buffers.
  processed                   7462  ao basis integrals from 
                    13  buffers.
  processed                  11215  ao basis integrals from 
                    19  buffers.
       4           -14.870776420924861              0.5834905882D-01
   current occupation vector 
     2  0  0  0  1  0  0  0
     2  0  0  0  1  0  0  0
 
 sum over diagonal and offdiagdiagonal of C(T)*S*C for irrep
                     1
 -1.221245327087672E-014  2.350288525935356E-014
 reorthoganalization of MOs is carried out
 sum over diagonal and offdiagdiagonal of C(T)*S*C for irrep
                     1
 -2.220446049250313E-016 -2.123878197697641E-016
 
 sum over diagonal and offdiagdiagonal of C(T)*S*C for irrep
                     2
  3.885780586188048E-015 -1.417526499653082E-016
 reorthoganalization of MOs is carried out
 sum over diagonal and offdiagdiagonal of C(T)*S*C for irrep
                     2
  0.000000000000000E+000  2.152830281572723E-016
 
 sum over diagonal and offdiagdiagonal of C(T)*S*C for irrep
                     3
  3.885780586188048E-015 -1.417526499653082E-016
 reorthoganalization of MOs is carried out
 sum over diagonal and offdiagdiagonal of C(T)*S*C for irrep
                     3
  0.000000000000000E+000  2.152830281572723E-016
 
 sum over diagonal and offdiagdiagonal of C(T)*S*C for irrep
                     4
 -2.220446049250313E-016  0.000000000000000E+000
 reorthoganalization of MOs is carried out
 sum over diagonal and offdiagdiagonal of C(T)*S*C for irrep
                     4
 -2.220446049250313E-016  0.000000000000000E+000
 
 sum over diagonal and offdiagdiagonal of C(T)*S*C for irrep
                     5
  4.807265696626928E-014 -2.300344576379389E-014
 reorthoganalization of MOs is carried out
 sum over diagonal and offdiagdiagonal of C(T)*S*C for irrep
                     5
 -9.992007221626409E-016  8.036316571265597E-017
 
 sum over diagonal and offdiagdiagonal of C(T)*S*C for irrep
                     6
  6.328271240363392E-015  6.249527681063657E-015
 reorthoganalization of MOs is carried out
 sum over diagonal and offdiagdiagonal of C(T)*S*C for irrep
                     6
 -6.661338147750939E-016  1.266200172601190E-016
 
 sum over diagonal and offdiagdiagonal of C(T)*S*C for irrep
                     7
  6.328271240363392E-015  6.249527681063657E-015
 reorthoganalization of MOs is carried out
 sum over diagonal and offdiagdiagonal of C(T)*S*C for irrep
                     7
 -6.661338147750939E-016  1.266200172601190E-016
 
 sum over diagonal and offdiagdiagonal of C(T)*S*C for irrep
                     8
  0.000000000000000E+000  0.000000000000000E+000
 reorthoganalization of MOs is carried out
 sum over diagonal and offdiagdiagonal of C(T)*S*C for irrep
                     8
  0.000000000000000E+000  0.000000000000000E+000
  processed                   2474  ao basis integrals from 
                     5  buffers.
  processed                   7462  ao basis integrals from 
                    13  buffers.
  processed                  11215  ao basis integrals from 
                    19  buffers.
       5           -14.870906303661078              0.1915957331D-01
   current occupation vector 
     2  0  0  0  1  0  0  0
     2  0  0  0  1  0  0  0
  processed                   2474  ao basis integrals from 
                     5  buffers.
  processed                   7462  ao basis integrals from 
                    13  buffers.
  processed                  11215  ao basis integrals from 
                    19  buffers.
       6           -14.870912435576168              0.3027151050D-02
   current occupation vector 
     2  0  0  0  1  0  0  0
     2  0  0  0  1  0  0  0
  processed                   2474  ao basis integrals from 
                     5  buffers.
  processed                   7462  ao basis integrals from 
                    13  buffers.
  processed                  11215  ao basis integrals from 
                    19  buffers.
       7           -14.870912561902726              0.2128391935D-03
   current occupation vector 
     2  0  0  0  1  0  0  0
     2  0  0  0  1  0  0  0
  processed                   2474  ao basis integrals from 
                     5  buffers.
  processed                   7462  ao basis integrals from 
                    13  buffers.
  processed                  11215  ao basis integrals from 
                    19  buffers.
       8           -14.870912562495105              0.4443084441D-04
   current occupation vector 
     2  0  0  0  1  0  0  0
     2  0  0  0  1  0  0  0
  processed                   2474  ao basis integrals from 
                     5  buffers.
  processed                   7462  ao basis integrals from 
                    13  buffers.
  processed                  11215  ao basis integrals from 
                    19  buffers.
       9           -14.870912562499766              0.3616007725D-05
   current occupation vector 
     2  0  0  0  1  0  0  0
     2  0  0  0  1  0  0  0
 
 sum over diagonal and offdiagdiagonal of C(T)*S*C for irrep
                     1
 -1.121325254871408E-014  1.941565403255515E-014
 reorthoganalization of MOs is carried out
 sum over diagonal and offdiagdiagonal of C(T)*S*C for irrep
                     1
 -4.440892098500626E-016 -5.308169479487399E-016
 
 sum over diagonal and offdiagdiagonal of C(T)*S*C for irrep
                     2
 -2.886579864025407E-015  2.382773845256466E-015
 reorthoganalization of MOs is carried out
 sum over diagonal and offdiagdiagonal of C(T)*S*C for irrep
                     2
 -2.220446049250313E-016  2.143042493037614E-016
 
 sum over diagonal and offdiagdiagonal of C(T)*S*C for irrep
                     3
 -2.886579864025407E-015  2.382773845256466E-015
 reorthoganalization of MOs is carried out
 sum over diagonal and offdiagdiagonal of C(T)*S*C for irrep
                     3
 -2.220446049250313E-016  2.143042493037614E-016
 
 sum over diagonal and offdiagdiagonal of C(T)*S*C for irrep
                     4
 -2.220446049250313E-016  0.000000000000000E+000
 reorthoganalization of MOs is carried out
 sum over diagonal and offdiagdiagonal of C(T)*S*C for irrep
                     4
 -2.220446049250313E-016  0.000000000000000E+000
 
 sum over diagonal and offdiagdiagonal of C(T)*S*C for irrep
                     5
  5.151434834260726E-014 -1.828321995019299E-014
 reorthoganalization of MOs is carried out
 sum over diagonal and offdiagdiagonal of C(T)*S*C for irrep
                     5
  1.554312234475219E-015 -4.878692239749937E-015
 
 sum over diagonal and offdiagdiagonal of C(T)*S*C for irrep
                     6
  2.109423746787797E-015  6.642874437282101E-015
 reorthoganalization of MOs is carried out
 sum over diagonal and offdiagdiagonal of C(T)*S*C for irrep
                     6
  2.220446049250313E-016 -1.475691167584437E-016
 
 sum over diagonal and offdiagdiagonal of C(T)*S*C for irrep
                     7
  3.441691376337985E-015  7.640613188490036E-015
 reorthoganalization of MOs is carried out
 sum over diagonal and offdiagdiagonal of C(T)*S*C for irrep
                     7
 -5.551115123125783E-016 -1.617596232130900E-017
 
 sum over diagonal and offdiagdiagonal of C(T)*S*C for irrep
                     8
  0.000000000000000E+000  0.000000000000000E+000
 reorthoganalization of MOs is carried out
 sum over diagonal and offdiagdiagonal of C(T)*S*C for irrep
                     8
  0.000000000000000E+000  0.000000000000000E+000
  processed                   2474  ao basis integrals from 
                     5  buffers.
  processed                   7462  ao basis integrals from 
                    13  buffers.
  processed                  11215  ao basis integrals from 
                    19  buffers.
      10           -14.870912562499898              0.5160233631D-06
   current occupation vector 
     2  0  0  0  1  0  0  0
     2  0  0  0  1  0  0  0
  processed                   2474  ao basis integrals from 
                     5  buffers.
  processed                   7462  ao basis integrals from 
                    13  buffers.
  processed                  11215  ao basis integrals from 
                    19  buffers.
      11           -14.870912562499898              0.1211207401D-07
   current occupation vector 
     2  0  0  0  1  0  0  0
     2  0  0  0  1  0  0  0
  processed                   2474  ao basis integrals from 
                     5  buffers.
  processed                   7462  ao basis integrals from 
                    13  buffers.
  processed                  11215  ao basis integrals from 
                    19  buffers.
      12           -14.870912562499919              0.2538120075D-08
   current occupation vector 
     2  0  0  0  1  0  0  0
     2  0  0  0  1  0  0  0
  processed                   2474  ao basis integrals from 
                     5  buffers.
  processed                   7462  ao basis integrals from 
                    13  buffers.
  processed                  11215  ao basis integrals from 
                    19  buffers.
      13           -14.870912562499894              0.3848839303D-09
   current occupation vector 
     2  0  0  0  1  0  0  0
     2  0  0  0  1  0  0  0
  processed                   2474  ao basis integrals from 
                     5  buffers.
  processed                   7462  ao basis integrals from 
                    13  buffers.
  processed                  11215  ao basis integrals from 
                    19  buffers.
      14           -14.870912562499898              0.8310768740D-10
   current occupation vector 
     2  0  0  0  1  0  0  0
     2  0  0  0  1  0  0  0
 
 sum over diagonal and offdiagdiagonal of C(T)*S*C for irrep
                     1
 -1.065814103640150E-014  2.217418001127674E-014
 reorthoganalization of MOs is carried out
 sum over diagonal and offdiagdiagonal of C(T)*S*C for irrep
                     1
 -8.881784197001252E-016  1.401975128217010E-016
 
 sum over diagonal and offdiagdiagonal of C(T)*S*C for irrep
                     2
 -4.440892098500626E-015 -3.042011046742759E-016
 reorthoganalization of MOs is carried out
 sum over diagonal and offdiagdiagonal of C(T)*S*C for irrep
                     2
 -4.440892098500626E-016  2.883563151219709E-016
 
 sum over diagonal and offdiagdiagonal of C(T)*S*C for irrep
                     3
 -4.440892098500626E-015 -3.042011046742759E-016
 reorthoganalization of MOs is carried out
 sum over diagonal and offdiagdiagonal of C(T)*S*C for irrep
                     3
 -4.440892098500626E-016  2.883563151219709E-016
 
 sum over diagonal and offdiagdiagonal of C(T)*S*C for irrep
                     4
 -2.220446049250313E-016  0.000000000000000E+000
 reorthoganalization of MOs is carried out
 sum over diagonal and offdiagdiagonal of C(T)*S*C for irrep
                     4
 -2.220446049250313E-016  0.000000000000000E+000
 
 sum over diagonal and offdiagdiagonal of C(T)*S*C for irrep
                     5
  4.640732242933154E-014 -2.695155560372847E-014
 reorthoganalization of MOs is carried out
 sum over diagonal and offdiagdiagonal of C(T)*S*C for irrep
                     5
 -1.554312234475219E-015 -6.775788591789560E-015
 
 sum over diagonal and offdiagdiagonal of C(T)*S*C for irrep
                     6
  1.776356839400250E-015  7.195333373499353E-015
 reorthoganalization of MOs is carried out
 sum over diagonal and offdiagdiagonal of C(T)*S*C for irrep
                     6
 -3.330669073875470E-016 -1.237387119707264E-016
 
 sum over diagonal and offdiagdiagonal of C(T)*S*C for irrep
                     7
  1.776356839400250E-015  7.195333373499353E-015
 reorthoganalization of MOs is carried out
 sum over diagonal and offdiagdiagonal of C(T)*S*C for irrep
                     7
 -3.330669073875470E-016 -1.237387119707264E-016
 
 sum over diagonal and offdiagdiagonal of C(T)*S*C for irrep
                     8
  0.000000000000000E+000  0.000000000000000E+000
 reorthoganalization of MOs is carried out
 sum over diagonal and offdiagdiagonal of C(T)*S*C for irrep
                     8
  0.000000000000000E+000  0.000000000000000E+000
  processed                   2474  ao basis integrals from 
                     5  buffers.
  processed                   7462  ao basis integrals from 
                    13  buffers.
  processed                  11215  ao basis integrals from 
                    19  buffers.
      15           -14.870912562499901              0.1092823054D-10
   current occupation vector 
     2  0  0  0  1  0  0  0
     2  0  0  0  1  0  0  0
  processed                   2474  ao basis integrals from 
                     5  buffers.
  processed                   7462  ao basis integrals from 
                    13  buffers.
  processed                  11215  ao basis integrals from 
                    19  buffers.
      16           -14.870912562499887              0.1858124765D-11
   current occupation vector 
     2  0  0  0  1  0  0  0
     2  0  0  0  1  0  0  0

  SCF has converged.

 Density matrix saved to file den.dat
 total electron number:   6.00000000000000     
  processed                   2474  ao basis integrals from 
                     5  buffers.
  processed                   7462  ao basis integrals from 
                    13  buffers.
  processed                  11215  ao basis integrals from 
                    19  buffers.
     E(SCF)=       -14.870912562499905              0.1241784453D-12


  ORBITAL EIGENVECTORS

  SYMMETRY BLOCK 1 (ALPHA)

                          MO #  1       MO #  2       MO #  3       MO #  4

    BASIS/ORB E           -2.45410      -0.18196       0.07284       0.15387
                        ----------    ----------    ----------    ----------
    1; LI#1                0.17088       0.02822       0.00810       0.02584
    2; LI#1                0.46412       0.09823       0.02226       0.06693
    3; LI#1                0.15384       0.09305       0.04857       0.16437
    4; LI#1                0.00514      -0.26824      -0.33216      -1.43832
    5; LI#1               -0.00148      -0.30675       0.53381       1.03288
    6; LI#1                0.00258       0.03375       0.06872      -0.01943
    7; LI#1               -0.00075       0.09735       0.53207      -0.41368
    8; LI#1                0.00081       0.00287       0.00728      -0.00332
    9; LI#1                0.00024      -0.00441       0.00848       0.00026
   10; LI#1                0.00000       0.00000       0.00000       0.00000


                          MO #  5       MO #  6       MO #  7       MO #  8

    BASIS/ORB E            0.36382       0.43898       0.79344       1.69224
                        ----------    ----------    ----------    ----------
    1; LI#1                0.00000       0.00017       0.01043       0.07590
    2; LI#1                0.00000       0.01366       0.08590       0.87695
    3; LI#1                0.00000      -0.04188      -0.09466      -1.39645
    4; LI#1                0.00000       0.48822       0.52726       0.68304
    5; LI#1                0.00000      -0.31580      -0.27841      -0.29388
    6; LI#1                0.00000       0.23486      -0.78720       0.11091
    7; LI#1                0.00000      -0.02976       0.52406      -0.03686
    8; LI#1                0.00000       0.01066      -0.02067       0.00634
    9; LI#1                0.00000      -0.18524      -0.13875       0.02801
   10; LI#1                0.32467       0.00000       0.00000       0.00000


                          MO #  9       MO # 10

    BASIS\ORB E            6.35090      14.93598
                        ----------    ----------
    1; LI#1                0.00541       1.03034
    2; LI#1                0.01157      -1.34163
    3; LI#1               -0.03254       0.79260
    4; LI#1               -0.06031      -0.25939
    5; LI#1                0.03074       0.11129
    6; LI#1                0.30825      -0.02430
    7; LI#1               -0.11831       0.00164
    8; LI#1               -0.74647       0.00741
    9; LI#1                0.02033      -0.00624
   10; LI#1                0.00000       0.00000


  SYMMETRY BLOCK 2 (ALPHA)

                          MO # 11       MO # 12       MO # 13       MO # 14

    BASIS/ORB E            0.06098       0.37970       0.68473       6.31772
                        ----------    ----------    ----------    ----------
   11; LI#1                0.05433       0.05986       0.75242       0.27600
   12; LI#1                0.56832      -0.14539      -0.27030      -0.06103
   13; LI#1                0.00645       0.00179       0.02418      -0.74416
   14; LI#1                0.01571      -0.60132       0.07219       0.00797


  SYMMETRY BLOCK 3 (ALPHA)

                          MO # 15       MO # 16       MO # 17       MO # 18

    BASIS/ORB E            0.06098       0.37970       0.68473       6.31772
                        ----------    ----------    ----------    ----------
   15; LI#1                0.05433       0.05986       0.75242       0.27600
   16; LI#1                0.56832      -0.14539      -0.27030      -0.06103
   17; LI#1                0.00645       0.00179       0.02418      -0.74416
   18; LI#1                0.01571      -0.60132       0.07219       0.00797


  SYMMETRY BLOCK 4 (ALPHA)

                          MO # 19

    BASIS\ORB E            0.36382
                        ----------
   19; LI#1                0.64933


  SYMMETRY BLOCK 5 (ALPHA)

                          MO # 20       MO # 21       MO # 22       MO # 23

    BASIS/ORB E           -2.45377       0.01350       0.14507       0.25289
                        ----------    ----------    ----------    ----------
   20; LI#1                0.17095       0.01635       0.02019       0.03047
   21; LI#1                0.46428       0.05845       0.06801       0.07472
   22; LI#1                0.15413       0.05191       0.07724       0.22215
   23; LI#1                0.00668      -0.05110      -0.36449      -1.89003
   24; LI#1               -0.00083      -1.30241       3.25219      -0.97938
   25; LI#1                0.00244      -0.02503      -0.02795      -0.01027
   26; LI#1               -0.00214       0.04044      -1.95114       2.03579
   27; LI#1                0.00082      -0.00221      -0.00390       0.00363
   28; LI#1                0.00006      -0.01404       0.05993      -0.01082
   29; LI#1                0.00000       0.00000       0.00000       0.00000


                          MO # 24       MO # 25       MO # 26       MO # 27

    BASIS/ORB E            0.44465       0.47231       0.84886       1.74400
                        ----------    ----------    ----------    ----------
   20; LI#1                0.00000       0.01431       0.01836       0.07339
   21; LI#1                0.00000       0.01037       0.09121       0.89825
   22; LI#1                0.00000       0.21900       0.05259      -1.54532
   23; LI#1                0.00000      -2.58245      -1.58601       2.00359
   24; LI#1                0.00000      -2.37179      -0.82353       0.38443
   25; LI#1                0.00000      -0.25538       0.74313      -0.14195
   26; LI#1                0.00000       3.41896       1.45408      -1.35864
   27; LI#1                0.00000      -0.01204       0.02767      -0.00995
   28; LI#1                0.00000      -0.37938      -0.25795       0.13097
   29; LI#1                0.39184       0.00000       0.00000       0.00000


                          MO # 28       MO # 29

    BASIS\ORB E            6.39419      15.00782
                        ----------    ----------
   20; LI#1                0.00669       1.03317
   21; LI#1                0.02198      -1.36093
   22; LI#1               -0.07978       0.85395
   23; LI#1                0.29925      -0.67181
   24; LI#1                0.06125      -0.11110
   25; LI#1               -0.31115       0.03588
   26; LI#1               -0.18275       0.43799
   27; LI#1                0.74729      -0.01145
   28; LI#1                0.04103      -0.03940
   29; LI#1                0.00000       0.00000


  SYMMETRY BLOCK 6 (ALPHA)

                          MO # 30       MO # 31       MO # 32       MO # 33

    BASIS/ORB E            0.12913       0.56644       0.68372       6.31880
                        ----------    ----------    ----------    ----------
   30; LI#1                0.04884       0.09479       0.74944       0.27594
   31; LI#1                0.92053      -0.81140      -0.37736      -0.09608
   32; LI#1                0.00705       0.00095       0.02442      -0.74414
   33; LI#1                0.02980       1.18198      -0.11206       0.00079


  SYMMETRY BLOCK 7 (ALPHA)

                          MO # 34       MO # 35       MO # 36       MO # 37

    BASIS/ORB E            0.12913       0.56644       0.68372       6.31880
                        ----------    ----------    ----------    ----------
   34; LI#1                0.04884       0.09479       0.74944       0.27594
   35; LI#1                0.92053      -0.81140      -0.37736      -0.09608
   36; LI#1                0.00705       0.00095       0.02442      -0.74414
   37; LI#1                0.02980       1.18198      -0.11206       0.00079


  SYMMETRY BLOCK 8 (ALPHA)

                          MO # 38

    BASIS\ORB E            0.44465
                        ----------
   38; LI#1                0.78368


 @PUTMOS-I, Writing converged MOs to NEWMOS. 
 @PUTMOS-I, Symmetry   1 Full Blocks  2 Partial Blocksize   2
 @PUTMOS-I, Symmetry   2 Full Blocks  1 Partial Blocksize   0
 @PUTMOS-I, Symmetry   3 Full Blocks  1 Partial Blocksize   0
 @PUTMOS-I, Symmetry   4 Full Blocks  0 Partial Blocksize   1
 @PUTMOS-I, Symmetry   5 Full Blocks  2 Partial Blocksize   2
 @PUTMOS-I, Symmetry   6 Full Blocks  1 Partial Blocksize   0
 @PUTMOS-I, Symmetry   7 Full Blocks  1 Partial Blocksize   0
 @PUTMOS-I, Symmetry   8 Full Blocks  0 Partial Blocksize   1
--------------------------------------------------------------------------------
Eigenvalue     -2.454099     -2.453774     -0.181960      0.013504      0.060975
 Symmetry        SGg+          SGu+          SGg+          SGu+          PIu     
--------------------------------------------------------------------------------
   1 S         0.1708763     0.1709493     0.0282232     0.0163521     0.0000000
   1 S         0.4641217     0.4642816     0.0982323     0.0584547     0.0000000
   1 S         0.1538379     0.1541261     0.0930469     0.0519051     0.0000000
   1 S         0.0051447     0.0066811    -0.2682435    -0.0510982     0.0000000
   1 S        -0.0014837    -0.0008267    -0.3067505    -1.3024139     0.0000000
   1 PX        0.0000000     0.0000000     0.0000000     0.0000000     0.0543301
   1 PY        0.0000000     0.0000000     0.0000000     0.0000000     0.0000000
   1 PZ        0.0025781     0.0024413     0.0337527    -0.0250318     0.0000000
   1 PX        0.0000000     0.0000000     0.0000000     0.0000000     0.5683193
   1 PY        0.0000000     0.0000000     0.0000000     0.0000000     0.0000000
   1 PZ       -0.0007463    -0.0021359     0.0973485     0.0404424     0.0000000
   1 PX        0.0000000     0.0000000     0.0000000     0.0000000     0.0064531
   1 PY        0.0000000     0.0000000     0.0000000     0.0000000     0.0000000
   1 PZ        0.0008147     0.0008227     0.0028715    -0.0022107     0.0000000
   1 DX2      -0.0002354    -0.0000578     0.0044113     0.0140384     0.0000000
   1 DXY       0.0000000     0.0000000     0.0000000     0.0000000     0.0000000
   1 DXZ       0.0000000     0.0000000     0.0000000     0.0000000     0.0157120
   1 DY2      -0.0002354    -0.0000578     0.0044113     0.0140384     0.0000000
   1 DYZ       0.0000000     0.0000000     0.0000000     0.0000000     0.0000000
   1 DZZ       0.0004707     0.0001156    -0.0088225    -0.0280769     0.0000000
   2 S         0.1708763    -0.1709493     0.0282232    -0.0163521     0.0000000
   2 S         0.4641217    -0.4642816     0.0982323    -0.0584547     0.0000000
   2 S         0.1538379    -0.1541261     0.0930469    -0.0519051     0.0000000
   2 S         0.0051447    -0.0066811    -0.2682435     0.0510982     0.0000000
   2 S        -0.0014837     0.0008267    -0.3067505     1.3024139     0.0000000
   2 PX        0.0000000     0.0000000     0.0000000     0.0000000     0.0543301
   2 PY        0.0000000     0.0000000     0.0000000     0.0000000     0.0000000
   2 PZ       -0.0025781     0.0024413    -0.0337527    -0.0250318     0.0000000
   2 PX        0.0000000     0.0000000     0.0000000     0.0000000     0.5683193
   2 PY        0.0000000     0.0000000     0.0000000     0.0000000     0.0000000
   2 PZ        0.0007463    -0.0021359    -0.0973485     0.0404424     0.0000000
   2 PX        0.0000000     0.0000000     0.0000000     0.0000000     0.0064531
   2 PY        0.0000000     0.0000000     0.0000000     0.0000000     0.0000000
   2 PZ       -0.0008147     0.0008227    -0.0028715    -0.0022107     0.0000000
   2 DX2      -0.0002354     0.0000578     0.0044113    -0.0140384     0.0000000
   2 DXY       0.0000000     0.0000000     0.0000000     0.0000000     0.0000000
   2 DXZ       0.0000000     0.0000000     0.0000000     0.0000000    -0.0157120
   2 DY2      -0.0002354     0.0000578     0.0044113    -0.0140384     0.0000000
   2 DYZ       0.0000000     0.0000000     0.0000000     0.0000000     0.0000000
   2 DZZ       0.0004707    -0.0001156    -0.0088225     0.0280769     0.0000000
--------------------------------------------------------------------------------
Eigenvalue      0.060975      0.072845      0.129132      0.129132      0.145067
 Symmetry        PIu           SGg+          PIg           PIg           SGu+    
--------------------------------------------------------------------------------
   1 S         0.0000000     0.0080973     0.0000000     0.0000000     0.0201875
   1 S         0.0000000     0.0222621     0.0000000     0.0000000     0.0680123
   1 S         0.0000000     0.0485671     0.0000000     0.0000000     0.0772359
   1 S         0.0000000    -0.3321642     0.0000000     0.0000000    -0.3644852
   1 S         0.0000000     0.5338084     0.0000000     0.0000000     3.2521891
   1 PX        0.0000000     0.0000000     0.0488435     0.0000000     0.0000000
   1 PY        0.0543301     0.0000000     0.0000000     0.0488435     0.0000000
   1 PZ        0.0000000     0.0687241     0.0000000     0.0000000    -0.0279470
   1 PX        0.0000000     0.0000000     0.9205324     0.0000000     0.0000000
   1 PY        0.5683193     0.0000000     0.0000000     0.9205324     0.0000000
   1 PZ        0.0000000     0.5320718     0.0000000     0.0000000    -1.9511359
   1 PX        0.0000000     0.0000000     0.0070517     0.0000000     0.0000000
   1 PY        0.0064531     0.0000000     0.0000000     0.0070517     0.0000000
   1 PZ        0.0000000     0.0072792     0.0000000     0.0000000    -0.0039035
   1 DX2       0.0000000    -0.0084808     0.0000000     0.0000000    -0.0599344
   1 DXY       0.0000000     0.0000000     0.0000000     0.0000000     0.0000000
   1 DXZ       0.0000000     0.0000000     0.0297961     0.0000000     0.0000000
   1 DY2       0.0000000    -0.0084808     0.0000000     0.0000000    -0.0599344
   1 DYZ       0.0157120     0.0000000     0.0000000     0.0297961     0.0000000
   1 DZZ       0.0000000     0.0169616     0.0000000     0.0000000     0.1198687
   2 S         0.0000000     0.0080973     0.0000000     0.0000000    -0.0201875
   2 S         0.0000000     0.0222621     0.0000000     0.0000000    -0.0680123
   2 S         0.0000000     0.0485671     0.0000000     0.0000000    -0.0772359
   2 S         0.0000000    -0.3321642     0.0000000     0.0000000     0.3644852
   2 S         0.0000000     0.5338084     0.0000000     0.0000000    -3.2521891
   2 PX        0.0000000     0.0000000    -0.0488435     0.0000000     0.0000000
   2 PY        0.0543301     0.0000000     0.0000000    -0.0488435     0.0000000
   2 PZ        0.0000000    -0.0687241     0.0000000     0.0000000    -0.0279470
   2 PX        0.0000000     0.0000000    -0.9205324     0.0000000     0.0000000
   2 PY        0.5683193     0.0000000     0.0000000    -0.9205324     0.0000000
   2 PZ        0.0000000    -0.5320718     0.0000000     0.0000000    -1.9511359
   2 PX        0.0000000     0.0000000    -0.0070517     0.0000000     0.0000000
   2 PY        0.0064531     0.0000000     0.0000000    -0.0070517     0.0000000
   2 PZ        0.0000000    -0.0072792     0.0000000     0.0000000    -0.0039035
   2 DX2       0.0000000    -0.0084808     0.0000000     0.0000000     0.0599344
   2 DXY       0.0000000     0.0000000     0.0000000     0.0000000     0.0000000
   2 DXZ       0.0000000     0.0000000     0.0297961     0.0000000     0.0000000
   2 DY2       0.0000000    -0.0084808     0.0000000     0.0000000     0.0599344
   2 DYZ      -0.0157120     0.0000000     0.0000000     0.0297961     0.0000000
   2 DZZ       0.0000000     0.0169616     0.0000000     0.0000000    -0.1198687
--------------------------------------------------------------------------------
Eigenvalue      0.153873      0.252891      0.363819      0.363819      0.379696
 Symmetry        SGg+          SGu+          DEg           DEg           PIu     
--------------------------------------------------------------------------------
   1 S         0.0258361     0.0304749     0.0000000     0.0000000     0.0000000
   1 S         0.0669310     0.0747183     0.0000000     0.0000000     0.0000000
   1 S         0.1643714     0.2221521     0.0000000     0.0000000     0.0000000
   1 S        -1.4383228    -1.8900339     0.0000000     0.0000000     0.0000000
   1 S         1.0328754    -0.9793810     0.0000000     0.0000000     0.0000000
   1 PX        0.0000000     0.0000000     0.0000000     0.0000000     0.0598600
   1 PY        0.0000000     0.0000000     0.0000000     0.0000000     0.0000000
   1 PZ       -0.0194317    -0.0102696     0.0000000     0.0000000     0.0000000
   1 PX        0.0000000     0.0000000     0.0000000     0.0000000    -0.1453900
   1 PY        0.0000000     0.0000000     0.0000000     0.0000000     0.0000000
   1 PZ       -0.4136814     2.0357866     0.0000000     0.0000000     0.0000000
   1 PX        0.0000000     0.0000000     0.0000000     0.0000000     0.0017908
   1 PY        0.0000000     0.0000000     0.0000000     0.0000000     0.0000000
   1 PZ       -0.0033155     0.0036263     0.0000000     0.0000000     0.0000000
   1 DX2      -0.0002634     0.0108196     0.0000000     0.3246655     0.0000000
   1 DXY       0.0000000     0.0000000     0.6493310     0.0000000     0.0000000
   1 DXZ       0.0000000     0.0000000     0.0000000     0.0000000    -0.6013167
   1 DY2      -0.0002634     0.0108196     0.0000000    -0.3246655     0.0000000
   1 DYZ       0.0000000     0.0000000     0.0000000     0.0000000     0.0000000
   1 DZZ       0.0005267    -0.0216391     0.0000000     0.0000000     0.0000000
   2 S         0.0258361    -0.0304749     0.0000000     0.0000000     0.0000000
   2 S         0.0669310    -0.0747183     0.0000000     0.0000000     0.0000000
   2 S         0.1643714    -0.2221521     0.0000000     0.0000000     0.0000000
   2 S        -1.4383228     1.8900339     0.0000000     0.0000000     0.0000000
   2 S         1.0328754     0.9793810     0.0000000     0.0000000     0.0000000
   2 PX        0.0000000     0.0000000     0.0000000     0.0000000     0.0598600
   2 PY        0.0000000     0.0000000     0.0000000     0.0000000     0.0000000
   2 PZ        0.0194317    -0.0102696     0.0000000     0.0000000     0.0000000
   2 PX        0.0000000     0.0000000     0.0000000     0.0000000    -0.1453900
   2 PY        0.0000000     0.0000000     0.0000000     0.0000000     0.0000000
   2 PZ        0.4136814     2.0357866     0.0000000     0.0000000     0.0000000
   2 PX        0.0000000     0.0000000     0.0000000     0.0000000     0.0017908
   2 PY        0.0000000     0.0000000     0.0000000     0.0000000     0.0000000
   2 PZ        0.0033155     0.0036263     0.0000000     0.0000000     0.0000000
   2 DX2      -0.0002634    -0.0108196     0.0000000     0.3246655     0.0000000
   2 DXY       0.0000000     0.0000000     0.6493310     0.0000000     0.0000000
   2 DXZ       0.0000000     0.0000000     0.0000000     0.0000000     0.6013167
   2 DY2      -0.0002634    -0.0108196     0.0000000    -0.3246655     0.0000000
   2 DYZ       0.0000000     0.0000000     0.0000000     0.0000000     0.0000000
   2 DZZ       0.0005267     0.0216391     0.0000000     0.0000000     0.0000000
--------------------------------------------------------------------------------
Eigenvalue      0.379696      0.438975      0.444647      0.444647      0.472314
 Symmetry        PIu           SGg+          DEu           DEu           SGu+    
--------------------------------------------------------------------------------
   1 S         0.0000000     0.0001663     0.0000000     0.0000000     0.0143052
   1 S         0.0000000     0.0136619     0.0000000     0.0000000     0.0103653
   1 S         0.0000000    -0.0418840     0.0000000     0.0000000     0.2190048
   1 S         0.0000000     0.4882246     0.0000000     0.0000000    -2.5824462
   1 S         0.0000000    -0.3158042     0.0000000     0.0000000    -2.3717850
   1 PX        0.0000000     0.0000000     0.0000000     0.0000000     0.0000000
   1 PY        0.0598600     0.0000000     0.0000000     0.0000000     0.0000000
   1 PZ        0.0000000     0.2348631     0.0000000     0.0000000    -0.2553785
   1 PX        0.0000000     0.0000000     0.0000000     0.0000000     0.0000000
   1 PY       -0.1453900     0.0000000     0.0000000     0.0000000     0.0000000
   1 PZ        0.0000000    -0.0297561     0.0000000     0.0000000     3.4189585
   1 PX        0.0000000     0.0000000     0.0000000     0.0000000     0.0000000
   1 PY        0.0017908     0.0000000     0.0000000     0.0000000     0.0000000
   1 PZ        0.0000000     0.0106639     0.0000000     0.0000000    -0.0120383
   1 DX2       0.0000000     0.1852376     0.0000000     0.3918398     0.3793751
   1 DXY       0.0000000     0.0000000     0.7836797     0.0000000     0.0000000
   1 DXZ       0.0000000     0.0000000     0.0000000     0.0000000     0.0000000
   1 DY2       0.0000000     0.1852376     0.0000000    -0.3918398     0.3793751
   1 DYZ      -0.6013167     0.0000000     0.0000000     0.0000000     0.0000000
   1 DZZ       0.0000000    -0.3704753     0.0000000     0.0000000    -0.7587502
   2 S         0.0000000     0.0001663     0.0000000     0.0000000    -0.0143052
   2 S         0.0000000     0.0136619     0.0000000     0.0000000    -0.0103653
   2 S         0.0000000    -0.0418840     0.0000000     0.0000000    -0.2190048
   2 S         0.0000000     0.4882246     0.0000000     0.0000000     2.5824462
   2 S         0.0000000    -0.3158042     0.0000000     0.0000000     2.3717850
   2 PX        0.0000000     0.0000000     0.0000000     0.0000000     0.0000000
   2 PY        0.0598600     0.0000000     0.0000000     0.0000000     0.0000000
   2 PZ        0.0000000    -0.2348631     0.0000000     0.0000000    -0.2553785
   2 PX        0.0000000     0.0000000     0.0000000     0.0000000     0.0000000
   2 PY       -0.1453900     0.0000000     0.0000000     0.0000000     0.0000000
   2 PZ        0.0000000     0.0297561     0.0000000     0.0000000     3.4189585
   2 PX        0.0000000     0.0000000     0.0000000     0.0000000     0.0000000
   2 PY        0.0017908     0.0000000     0.0000000     0.0000000     0.0000000
   2 PZ        0.0000000    -0.0106639     0.0000000     0.0000000    -0.0120383
   2 DX2       0.0000000     0.1852376     0.0000000    -0.3918398    -0.3793751
   2 DXY       0.0000000     0.0000000    -0.7836797     0.0000000     0.0000000
   2 DXZ       0.0000000     0.0000000     0.0000000     0.0000000     0.0000000
   2 DY2       0.0000000     0.1852376     0.0000000     0.3918398    -0.3793751
   2 DYZ       0.6013167     0.0000000     0.0000000     0.0000000     0.0000000
   2 DZZ       0.0000000    -0.3704753     0.0000000     0.0000000     0.7587502
--------------------------------------------------------------------------------
Eigenvalue      0.566436      0.566436      0.683722      0.683722      0.684729
 Symmetry        PIg           PIg           PIg           PIg           PIu     
--------------------------------------------------------------------------------
   1 S         0.0000000     0.0000000     0.0000000     0.0000000     0.0000000
   1 S         0.0000000     0.0000000     0.0000000     0.0000000     0.0000000
   1 S         0.0000000     0.0000000     0.0000000     0.0000000     0.0000000
   1 S         0.0000000     0.0000000     0.0000000     0.0000000     0.0000000
   1 S         0.0000000     0.0000000     0.0000000     0.0000000     0.0000000
   1 PX        0.0947910     0.0000000     0.7494445     0.0000000     0.7524168
   1 PY        0.0000000     0.0947910     0.0000000     0.7494445     0.0000000
   1 PZ        0.0000000     0.0000000     0.0000000     0.0000000     0.0000000
   1 PX       -0.8113999     0.0000000    -0.3773559     0.0000000    -0.2702977
   1 PY        0.0000000    -0.8113999     0.0000000    -0.3773559     0.0000000
   1 PZ        0.0000000     0.0000000     0.0000000     0.0000000     0.0000000
   1 PX        0.0009494     0.0000000     0.0244183     0.0000000     0.0241789
   1 PY        0.0000000     0.0009494     0.0000000     0.0244183     0.0000000
   1 PZ        0.0000000     0.0000000     0.0000000     0.0000000     0.0000000
   1 DX2       0.0000000     0.0000000     0.0000000     0.0000000     0.0000000
   1 DXY       0.0000000     0.0000000     0.0000000     0.0000000     0.0000000
   1 DXZ       1.1819800     0.0000000    -0.1120564     0.0000000     0.0721859
   1 DY2       0.0000000     0.0000000     0.0000000     0.0000000     0.0000000
   1 DYZ       0.0000000     1.1819800     0.0000000    -0.1120564     0.0000000
   1 DZZ       0.0000000     0.0000000     0.0000000     0.0000000     0.0000000
   2 S         0.0000000     0.0000000     0.0000000     0.0000000     0.0000000
[...]
   The total correlation energy is -0.100421906643 a.u.
  Current DIIS expansion coefficients : 
 [   1]-0.0446506950 [   2]-0.2955409039 [   3] 1.2982824633 [   4]-0.0024960359
 [   5] 0.0444051714
  Convergence information after    13 iterations: 
  Largest element of residual vector : -0.17946717E-06.
  Largest element of DIIS residual   : -0.10555375E-06.
  W(mnij) AB contribution =  0.0291478091 a.u.
  W(abef) AB contribution =  0.0375990954 a.u.
  W(mbej) AB contribution = -0.1081951930 a.u.
   After  14 iterations, amplitude changes are:
    -------------------------------------------------------------------
                 Spin      RMS          Max.      Max. change for
     Amplitude   Case     Change       Change       i    j    a    b
    -------------------------------------------------------------------
        T1        AA    0.0000000023-0.0000000472    2         4
        T2        AA    0.0000000000-0.0000000008    2    1   18   16
        T2        AB    0.0000000001-0.0000000550    2    2    4    4
    -------------------------------------------------------------------
   The AA contribution to the correlation energy is:   -0.0004868 a.u.
   The AB contribution to the correlation energy is:   -0.0994482 a.u.
   The total correlation energy is -0.100421902684 a.u.
   The total correlation energy is -0.100421902684 a.u.
  Current DIIS expansion coefficients : 
 [   1] 0.0377209705 [   2] 0.0049411368 [   3]-0.4110536884 [   4] 1.3796895365
 [   5]-0.0112979555
  Convergence information after    14 iterations: 
  Largest element of residual vector : -0.55029439E-07.
  Largest element of DIIS residual   : -0.40043966E-07.
  W(mnij) AB contribution =  0.0291478041 a.u.
  W(abef) AB contribution =  0.0375990904 a.u.
  W(mbej) AB contribution = -0.1081951724 a.u.
   After  15 iterations, amplitude changes are:
    -------------------------------------------------------------------
                 Spin      RMS          Max.      Max. change for
     Amplitude   Case     Change       Change       i    j    a    b
    -------------------------------------------------------------------
        T1        AA    0.0000000012-0.0000000247    2         4
        T2        AA    0.0000000000-0.0000000002    3    2   26    5
        T2        AB    0.0000000000-0.0000000215    2    2    4    4
    -------------------------------------------------------------------
   The AA contribution to the correlation energy is:   -0.0004868 a.u.
   The AB contribution to the correlation energy is:   -0.0994482 a.u.
   The total correlation energy is -0.100421901934 a.u.
   The total correlation energy is -0.100421901934 a.u.
  Current DIIS expansion coefficients : 
 [   1]-0.0224740215 [   2] 0.0895712112 [   3]-0.1773046335 [   4]-0.2241896809
 [   5] 1.3343971247
  Convergence information after    15 iterations: 
  Largest element of residual vector : -0.24674277E-07.
  Largest element of DIIS residual   : -0.16098651E-07.
   Largest T1 amplitudes for spin case AA:
   i       a                 i       a                 i       a    
-----------------------------------------------------------------------------
[  2       4    ] 0.01200 [  2       5    ] 0.01173 [  2       7    ]-0.00234
[  2       9    ] 0.00144 [  3      23    ]-0.00083 [  1       9    ]-0.00076
[  3      27    ]-0.00074 [  1       5    ]-0.00073 [  3      21    ]-0.00069
[  3      22    ]-0.00068 [  1      11    ] 0.00037 [  3      29    ] 0.00037
[  1       8    ]-0.00033 [  3      25    ]-0.00029 [  3      26    ]-0.00022
-----------------------------------------------------------------------------
   Norm of T1AA vector (       25 symmetry allowed elements):  0.0171178387.
-----------------------------------------------------------------------------
   Largest T2 amplitudes for spin case AB:
       _       _                 _       _                 _       _
   i   j   a   b             i   j   a   b             i   j   a   b
-----------------------------------------------------------------------------
[  2   2  12  12]-0.16609 [  2   2  16  16]-0.16609 [  2   2   4   4]-0.09879
[  2   2  21  21]-0.09453 [  2   2  23  21]-0.04616 [  2   2  21  23]-0.04616
[  2   2  17  16]-0.04509 [  2   2  16  17]-0.04509 [  2   2  13  12]-0.04509
[  2   2  12  13]-0.04509 [  2   2  22  21]-0.03917 [  2   2  21  22]-0.03917
[  2   2   7   4]-0.03576 [  2   2   4   7]-0.03576 [  2   2  23  23]-0.02873
-----------------------------------------------------------------------------
   Norm of T2AB vector (     1895 symmetry allowed elements):  0.3206987568.
-----------------------------------------------------------------------------
  W(mnij) AB contribution =  0.0291478022 a.u.
  W(abef) AB contribution =  0.0375990879 a.u.
  W(mbej) AB contribution = -0.1081951636 a.u.
   After  16 iterations, amplitude changes are:
    -------------------------------------------------------------------
                 Spin      RMS          Max.      Max. change for
     Amplitude   Case     Change       Change       i    j    a    b
    -------------------------------------------------------------------
        T1        AA    0.0000000005-0.0000000093    2         4
        T2        AA    0.0000000000-0.0000000001    3    2   26    5
        T2        AB    0.0000000000-0.0000000104    2    2   21   21
    -------------------------------------------------------------------
   The AA contribution to the correlation energy is:   -0.0004868 a.u.
   The AB contribution to the correlation energy is:   -0.0994482 a.u.
   The total correlation energy is -0.100421901406 a.u.
   The total correlation energy is -0.100421901406 a.u.
  Current DIIS expansion coefficients : 
 [   1] 1.2901934979 [   2] 0.0025083983 [   3] 0.0012439246 [   4]-0.0133147649
 [   5]-0.2806310559
  Convergence information after    16 iterations: 
  Largest element of residual vector : -0.10362440E-07.
  Largest element of DIIS residual   : -0.77118729E-08.
  W(mnij) AB contribution =  0.0291478019 a.u.
  W(abef) AB contribution =  0.0375990874 a.u.
  W(mbej) AB contribution = -0.1081951618 a.u.
   After  17 iterations, amplitude changes are:
    -------------------------------------------------------------------
                 Spin      RMS          Max.      Max. change for
     Amplitude   Case     Change       Change       i    j    a    b
    -------------------------------------------------------------------
        T1        AA    0.0000000002-0.0000000038    2         4
        T2        AA    0.0000000000-0.0000000000    2    1    8    5
        T2        AB    0.0000000000-0.0000000048    2    2   21   21
    -------------------------------------------------------------------
   The AA contribution to the correlation energy is:   -0.0004868 a.u.
   The AB contribution to the correlation energy is:   -0.0994482 a.u.
   The total correlation energy is -0.100421901277 a.u.
   The total correlation energy is -0.100421901277 a.u.
  Current DIIS expansion coefficients : 
 [   1]-0.2136435519 [   2] 1.3120387847 [   3]-0.0066752442 [   4] 0.0638243226
 [   5]-0.1555443112
  Convergence information after    17 iterations: 
  Largest element of residual vector : -0.47990664E-08.
  Largest element of DIIS residual   : -0.22727993E-08.
  W(mnij) AB contribution =  0.0291478018 a.u.
  W(abef) AB contribution =  0.0375990871 a.u.
  W(mbej) AB contribution = -0.1081951609 a.u.
   After  18 iterations, amplitude changes are:
    -------------------------------------------------------------------
                 Spin      RMS          Max.      Max. change for
     Amplitude   Case     Change       Change       i    j    a    b
    -------------------------------------------------------------------
        T1        AA    0.0000000000-0.0000000008    2         4
        T2        AA    0.0000000000-0.0000000000    2    1    8    5
        T2        AB    0.0000000000-0.0000000017    2    2   21   21
    -------------------------------------------------------------------
   The AA contribution to the correlation energy is:   -0.0004868 a.u.
   The AB contribution to the correlation energy is:   -0.0994482 a.u.
   The total correlation energy is -0.100421901216 a.u.
   The total correlation energy is -0.100421901216 a.u.
  Current DIIS expansion coefficients : 
 [   1]-0.1146668181 [   2]-0.0340362566 [   3] 1.1290341344 [   4] 0.0025723855
 [   5] 0.0170965547
  Convergence information after    18 iterations: 
  Largest element of residual vector : -0.16897739E-08.
  Largest element of DIIS residual   : -0.88793186E-09.
  W(mnij) AB contribution =  0.0291478018 a.u.
  W(abef) AB contribution =  0.0375990871 a.u.
  W(mbej) AB contribution = -0.1081951607 a.u.
   After  19 iterations, amplitude changes are:
    -------------------------------------------------------------------
                 Spin      RMS          Max.      Max. change for
     Amplitude   Case     Change       Change       i    j    a    b
    -------------------------------------------------------------------
        T1        AA    0.0000000000-0.0000000001    2         4
        T2        AA    0.0000000000 0.0000000000    2    1    8    4
        T2        AB    0.0000000000-0.0000000004    2    2   21   21
    -------------------------------------------------------------------
   The AA contribution to the correlation energy is:   -0.0004868 a.u.
   The AB contribution to the correlation energy is:   -0.0994482 a.u.
   The total correlation energy is -0.100421901201 a.u.
   The total correlation energy is -0.100421901201 a.u.
  Current DIIS expansion coefficients : 
 [   1] 0.0160709778 [   2]-0.0466221400 [   3]-0.1178714224 [   4] 1.1459131054
 [   5] 0.0025094792
  Convergence information after    19 iterations: 
  Largest element of residual vector : -0.44884493E-09.
  Largest element of DIIS residual   : -0.30026559E-09.
  Amplitude equations converged in    19iterations.
   The AA contribution to the correlation energy is:   -0.0004868 a.u.
   The AB contribution to the correlation energy is:   -0.0994482 a.u.
   The total correlation energy is -0.100421901201 a.u.
   The total correlation energy is -0.100421901201 a.u.
   The CC iterations have converged.

   Largest T1 amplitudes for spin case AA:
   i       a                 i       a                 i       a    
-----------------------------------------------------------------------------
[  2       4    ] 0.01200 [  2       5    ] 0.01173 [  2       7    ]-0.00234
[  2       9    ] 0.00144 [  3      23    ]-0.00083 [  1       9    ]-0.00076
[  3      27    ]-0.00074 [  1       5    ]-0.00073 [  3      21    ]-0.00069
[  3      22    ]-0.00068 [  1      11    ] 0.00037 [  3      29    ] 0.00037
[  1       8    ]-0.00033 [  3      25    ]-0.00029 [  3      26    ]-0.00022
-----------------------------------------------------------------------------
   Norm of T1AA vector (       25 symmetry allowed elements):  0.0171178305.
-----------------------------------------------------------------------------
   Largest T2 amplitudes for spin case AB:
       _       _                 _       _                 _       _
   i   j   a   b             i   j   a   b             i   j   a   b
-----------------------------------------------------------------------------
[  2   2  12  12]-0.16609 [  2   2  16  16]-0.16609 [  2   2   4   4]-0.09879
[  2   2  21  21]-0.09453 [  2   2  23  21]-0.04616 [  2   2  21  23]-0.04616
[  2   2  17  16]-0.04509 [  2   2  16  17]-0.04509 [  2   2  13  12]-0.04509
[  2   2  12  13]-0.04509 [  2   2  22  21]-0.03917 [  2   2  21  22]-0.03917
[  2   2   7   4]-0.03576 [  2   2   4   7]-0.03576 [  2   2  23  23]-0.02873
-----------------------------------------------------------------------------
   Norm of T2AB vector (     1895 symmetry allowed elements):  0.3206987549.
-----------------------------------------------------------------------------
       Summary of iterative solution of CC equations 
      -----------------------------------------------------------
                       Correlation           Total
       Iteration         Energy              Energy
      -----------------------------------------------------------
            0        -0.081033179609     -14.951945742109  DIIS 
            1        -0.094037720368     -14.964950282868  DIIS 
            2        -0.097563974473     -14.968476536973  DIIS 
            3        -0.100158559251     -14.971071121751  DIIS 
            4        -0.100325012779     -14.971237575279  DIIS 
            5        -0.100421125190     -14.971333687690  DIIS 
            6        -0.100423782337     -14.971336344837  DIIS 
            7        -0.100422099532     -14.971334662032  DIIS 
            8        -0.100421723767     -14.971334286266  DIIS 
            9        -0.100421970670     -14.971334533170  DIIS 
           10        -0.100422054429     -14.971334616929  DIIS 
           11        -0.100421986064     -14.971334548563  DIIS 
           12        -0.100421929849     -14.971334492348  DIIS 
           13        -0.100421906643     -14.971334469143  DIIS 
           14        -0.100421902684     -14.971334465183  DIIS 
           15        -0.100421901934     -14.971334464434  DIIS 
           16        -0.100421901406     -14.971334463906  DIIS 
           17        -0.100421901277     -14.971334463777  DIIS 
           18        -0.100421901216     -14.971334463716  DIIS 
           19        -0.100421901201     -14.971334463701  DIIS 
      -----------------------------------------------------------
      A miracle has come to pass. The CC iterations have converged.
 @DIMT3-I, Dimensions of T3 amplitudes : 
               # abc          # ijk       Symmetry    Spin 
                      897              0     1          1
                      824              0     2          1
                      824              0     3          1
                      736              0     4          1
                      880              1     5          1
                      824              0     6          1
                      824              0     7          1
                      736              0     8          1
                     2963              4     1          2
                     2608              0     2          2
                     2608              0     3          2
                     2242              0     4          2
                     2946              5     5          2
                     2608              0     6          2
                     2608              0     7          2
                     2242              0     8          2
                     2963              4     1          3
                     2608              0     2          3
                     2608              0     3          3
                     2242              0     4          3
                     2946              5     5          3
                     2608              0     6          3
                     2608              0     7          3
                     2242              0     8          3
                      897              0     1          4
                      824              0     2          4
                      824              0     3          4
                      736              0     4          4
                      880              1     5          4
                      824              0     6          4
                      824              0     7          4
                      736              0     8          4
 @DIMT3-I, Dimensions of T3 amplitudes : 
               # abc          # ijk       Symmetry    Spin 
                      897              0     1          1
                      824              0     2          1
                      824              0     3          1
                      736              0     4          1
                      880              1     5          1
                      824              0     6          1
                      824              0     7          1
                      736              0     8          1
                     2963              4     1          2
                     2608              0     2          2
                     2608              0     3          2
                     2242              0     4          2
                     2946              5     5          2
                     2608              0     6          2
                     2608              0     7          2
                     2242              0     8          2
                     2963              4     1          3
                     2608              0     2          3
                     2608              0     3          3
                     2242              0     4          3
                     2946              5     5          3
                     2608              0     6          3
                     2608              0     7          3
                     2242              0     8          3
                      897              0     1          4
                      824              0     2          4
                      824              0     3          4
                      736              0     4          4
                      880              1     5          4
                      824              0     6          4
                      824              0     7          4
                      736              0     8          4
 @TRPS-I, Welcome to TRPS. Watch your RUs ! 
 @TRPS-I, Method is CCSD(T) 
 @TRPS-I, Calculation type is energy 
 @TRPS-I, Reference function information : 
          Reference function is Hartree-Fock 
          Reference function is RHF Hartree-Fock 
 @TRPS-I, INT1 is true 
 @TRPS-I, INT2 is false 
 @TRPS-I, Lengths of ijka integrals. #1         77
                                     #2         77
                                     #3        229
                                     #4        229
                                    Max        229
 @INITRP-I, Initializing W intermediate lists. 
 @SETOOOV-I, Some OOOV lists are being transposed. 
 @TRPS-I, Available memory in integer words   1499959040
          Number of pre-allocated words for TRPS2         3556
          Number of free words for TRPS2   1499955484
 @TRPS2-I, Spin case AAB 
 @TRPS2-I, Number of free integer words 1499955484
           Number of free double  words 1499955484
           Ratio                                 1
 @TRPS2-I, E4TBAA      -0.000198022657
  @TRPS2-I, E4TAAA  -3.738314845379192E-009
 @TRPS2-I, E5ST A    0.000000850353830
 @TRPS2-I, E5ST B    0.000000511141288
 @SETOOOV-I, Some OOOV lists are being transposed. 
 @CCENRG-I, CCSD/QCISD energy will now be evaluated. 
 @CCENRG-I, Correlation energies. ECCAA       -0.000486832675
                                  ECCBB        0.000000000000
                                  ECCAB       -0.099448235852
                                  Total       -0.100421901201
 @CCENRG-I, Reference   energy     -14.870912562500
            CCSD/QCISD energy      -14.971334463701
          E4T (T(CCSD)) = -0.000396052790
          E5ST          =  0.000002722990
          E4ST          =  0.000000000000
          In other words  
          <T3[2](Dagger) D3  T3[2]> = -0.000396052790
          <T1   (Dagger) Q1 WT3[2]> =  0.000002722990
          <T2   (Dagger) Q2 FT3[2]> =  0.000000000000
        E(CCSD)           =     -14.971334463701
        E(CCSD + T(CCSD)) =     -14.971730516491
        E(CCSD(T))        =     -14.971727793500
  @CHECKOUT-I, Total execution time (CPU/WALL):        0.49/       0.76 seconds.
--executable xvcc finished with status     0 in        0.81 seconds (walltime).
  The final electronic energy is       -14.971727793500445 a.u. 
  This computation required                            5.52 seconds (walltime).
