 --invoking executable--
/home/nike/cfour_v2.00beta/bin/xjoda


   *************************************************************************
         <<<     CCCCCC     CCCCCC   |||     CCCCCC     CCCCCC   >>>
       <<<      CCC        CCC       |||    CCC        CCC         >>>
      <<<      CCC        CCC        |||   CCC        CCC            >>>
    <<<        CCC        CCC        |||   CCC        CCC              >>>
      <<<      CCC        CCC        |||   CCC        CCC            >>>
       <<<      CCC        CCC       |||    CCC        CCC         >>>
         <<<     CCCCCC     CCCCCC   |||     CCCCCC     CCCCCC   >>>
   *************************************************************************

     ****************************************************************
     * CFOUR Coupled-Cluster techniques for Computational Chemistry *
     ****************************************************************
 

   Department of Chemistry                Institut fuer Physikalische Chemie
   University of Texas at Austin          Universitaet Mainz
   Austin, TX  78712, USA                 D-55099 Mainz, Germany
 
                       Version 2.00beta
 
                     wob116                                            
                     Sun Sep 18 18:33:06 EDT 2016                      
                     integer*8 version is running
 
********************************************************************************
*                          Input from ZMAT file                                *
********************************************************************************
TITLE                                                                           
Ne                                                                              
                                                                                
*ACES2(CALC=CCSDTQ                                                              
CC_PROG=MRCC                                                                    
cctol=9                                                                         
CC_MAXCYC=999                                                                   
REFERENCE=RHF                                                                   
MULT=1                                                                          
ABCDTYPE=STANDARD                                                               
MEM=32                                                                          
MEM_UNIT=GB                                                                     
RELATIVISTIC=X2C1E                                                              
CONTRACTION=UNCONTRACTED                                                        
BASIS=SPECIAL)                                                                  
                                                                                
NE:cc-pCVTZ                                                                     
                                                                                
********************************************************************************
  @GTFLGS-W, Keyword cctol not known and is ignored.
    -------------------------------------------------------------------
                    CFOUR Control Parameters 
    -------------------------------------------------------------------
        External           Internal           Value            Units
          Name               Name
    -------------------------------------------------------------------
       ABCDTYPE             IABCDT         STANDARD     [  0]   ***   
       ANHARMONIC           IANHAR         OFF          [  0]   ***   
       ANH_ALGORIT          IANALG         STANDARD     [  0]   ***   
       ANH_DERIVAT          IANDER         SECOND       [  1]   ***   
       ANH_STEPSIZ          ICUBST             50000          x 10-6  
       ANH_SYMMETR          IANHSM         ABELIAN      [  0]   ***   
       AO_LADDERS           IAOLAD         SINGLEPASS   [  1]   ***   
       BASIS                IBASIS         SPECIAL      [  0]   ***   
       BREIT                IBREIT         OFF          [  0]   ***   
       BRUCK_CONV           IBRTOL          10D-  4             ***   
       BRUECKNER            IBRKNR             OFF      [  0]   ***   
       BUFFERSIZE           IBUFFS            600               ***   
       CACHE_RECS           ICHREC             10               ***   
       CALCLEVEL            ICLLVL           CCSDTQ     [ 46]   ***   
       CCORBOPT             ICCORB             OFF      [  0] x 0.01  
       CC_CONV              ICCCNV          10D-  7             ***   
       CC_EXPORDER          ICCEOR              5               ***   
       CC_EXTRAPOL          ICCEXT             DIIS     [  1]   ***   
       CC_MAXCYC            ICCCYC            999              cycles 
       CC_PROGRAM           ICCPRO         MRCC         [  2]   ***   
       CHARGE               ICHRGE              0               ***   
       CHOLESKY             ICHOLE         OFF          [  0]   ***   
       CIS_CONV             ICISTL              5               ***   
       COMM_SIZE            IPSIZE            ***               ***   
       CONSTANT             ICONST         OLD          [  1]   ***   
       CONTINUUM            ICONTU         NONE         [  0]   ***   
       CONTRACTION          ICNTYP         UNCONTRACTED [  2]   ***   
       COORDINATES          ICOORD         INTERNAL     [  0]   ***   
       CPHF_CONVER          ICPHFT          10D- 16             ***   
       CPHF_MAXCYC          ICPHFC             64              cycles 
       CUBIC                ICUBIC         OFF          [  0]   ***   
       CURVILINEAR          ICURVY            OFF       [  0]   ***   
       DBOC                 IDBOC          OFF          [  0]   ***   
       DCT                  IDCT           OFF          [  0]   ***   
       DERIV_LEV            IDRLVL            ZERO      [  0]   ***   
       DIAG_MRCC            IEOMST          10D-  0             ***   
       DIFF_TYPE            IDIFTY         RELAXED      [  0]   ***   
       DIRECT               IDIRCT         OFF          [  0]   ***   
       DROPMO               IDRPMO      NONE         
       ECP                  IECP           OFF          [  0]   ***   
       EIGENVECTOR          IVEC                1               ***   
       EL_ANHARM            IELANH         OFF          [  0]   ***   
       EOMFOLLOW            IEOMSR         ENERGY       [  0]   ***   
       EOM_MRCC             IMRCCE         NEW          [  1]   ***   
       EOM_NONIT            EOMNON         OFF          [  0]   ***   
       EOM_NSING            IEOMSI          10D-  0             ***   
       EOM_NSTATES          IMRCCD         DAVIDSON     [  0]   ***   
       EOM_NTRIP            IEOMTR          10D-  0             ***   
       EOM_ORDER            IEXORD         ENERGY       [  0]   ***   
       ESTATE_CONV          IEXTOL          10D-  5             ***   
       ESTATE_DIAG          IEXDIG         ITERATIVE    [  0]   ***   
       ESTATE_LOCK          IESLOC         ON           [  1]   ***   
       ESTATE_MAXC          IEXMXC             20               ***   
       ESTATE_PROP          IEXPRP         OFF          [  0]   ***   
       EVAL_HESS            IRECAL              0            # of cyc.
       EXCITATION           IEXCIT              0               ***   
       EXCITE               IEXCIT         NONE         [  0]   ***   
       FCGRADNEW            IFCGNW         OFF          [  0]   ***   
       FC_FIELD             IFINFC              0             x 10-6  
       FD_CALTYPE           IFDCAL         GRADONLY     [  0]   ***   
       FD_PROJECT           IFDPRJ         OFF          [  1]   ***   
       FD_STEPSIZE          IDISFD              0            10-4 bohr
       FD_USEGROUP          IFDGRP         FULL         [  0]   ***   
       FILE_RECSIZ          IFLREC              4096           words  
       FINITE_PERT          IFIPER              0             x 10-6  
       FIXGEOM              IFIXGM         OFF          [  0]   ***   
       FOCK                 IFOCK          AO           [  1]   ***   
       FREQ_ALGORI          IVIALG         STANDARD     [  0]   ***   
       FROZEN_CORE          IFROCO         OFF          [  0]   ***   
       FROZEN_VIRT          IFROVI         OFF          [  0]   ***   
       GAMMA_ABCD           IGABCD         STORE        [  0]   ***   
       GAMMA_ABCI           IGABCI         STORE        [  0]   ***   
       GENBAS_1             IGNBS1              0               ***   
       GENBAS_2             IGNBS2              0               ***   
       GENBAS_3             IGNBS3              0               ***   
       GENBAS_4             IGNBS4              0               ***   
       GEO_CONV             ICONTL              5              H/bohr 
       GEO_MAXCYC           IOPTCY             50               ***   
       GEO_MAXSTEP          IMXSTP            300            millibohr
       GEO_METHOD           INR            SINGLE_POINT [  5]   ***   
       GIAO                 IGIAO          OFF          [  1]   ***   
       GIMIC                IGIMIC         OFF          [  0]   ***   
       GRID                 IGRID          OFF          [  0]   ***   
       GRID_ALGO            IGALGO         SERIAL       [  0]   ***   
       GUESS                IGUESS            MOREAD    [  0]   ***   
       HBAR                 IHBAR              OFF      [  0]   ***   
       HESS_TYPE            IHESTP         SCF          [  0]   ***   
       HF2_FILE             IHF2Fl         USE          [  1]   ***   
       HFSTABILITY          ISTABL         OFF          [  0]   ***   
       INCORE               INCORE             OFF      [  0]   ***   
       INPUT_MRCC           IMRCC          ON           [  1]   ***   
       INTEGRALS            INTTYP             VMOL     [  1]   ***   
       JODA_PRINT           IJPRNT              0               ***   
       LINDEP_TOL           ILINDP              8               ***   
       LINEQ_CONV           IZTACN          10D-  7           cycles  
       LINEQ_EXPOR          ILMAXD              5               ***   
       LINEQ_MAXCY          ILMAXC             50               ***   
       LINEQ_TYPE           ILTYPE         DIIS         [  1]   ***   
       LOCK_ORBOCC          ILOCOC             OFF      [  0]   ***   
       MEMORY_SIZE          IMEMSZ         *********           words  
       MEM_UNIT             IMEMU          GB           [  3]   ***   
       MRCC                 IMRCCC         OFF          [  0]   ***   
       MULTIPLICTY          IMULTP              1               ***   
       NEGEVAL              IDIE             ABORT      [  0]   ***   
       NEWNORM              INEWNO         OFF          [  0]   ***   
       NON-HF               INONHF             OFF      [  0]   ***   
       NTOP_TAMP            ITOPT2             15               ***   
       NUC_MODEL            INUCMO         POINT        [  0]   ***   
       OCCUPATION           IOCCU   ESTIMATED BY SCF 
       OPEN-SHELL           IOPEN          SPIN-ORBITAL [  0]   ***   
       ORBITALS             IORBTP           STANDARD   [  0]   ***   
       PARALLEL             IPARAL         ON           [  1]   ***   
       PARA_INT             IPINTS         ON           [  1]   ***   
       PARA_PRINT           IPPRIN              0               ***   
       PERT_ORB             IPTORB         STANDARD     [  0]   ***   
       POINTS               IGRDFD              0               ***   
       PRINT                IPRNT               0               ***   
       PROPS                IPROPS             OFF      [  0]   ***   
       PROP_INTEGR          IINTYP         INTERNAL     [  0]   ***   
       PSI                  IPSI           OFF          [  0]   ***   
       QUARTIC              IQUART         OFF          [  0]   ***   
       RAMAN_INT            IRAMIN         OFF          [  0]   ***   
       RAMAN_ORB            IRAMRE         UNRELAXED    [  0]   ***   
       RDO                  IRDOFM             OFF      [  0]   ***   
       REFERENCE            IREFNC             RHF      [  0]   ***   
       RELATIVIST           IRELAT         X2C1E        [ 11]   ***   
       RELAX_DENS           IRDENS             OFF      [  0]   ***   
       RESET_FLAGS          IRESET             OFF      [  0]   ***   
       RESTART_CC           ICCRES         OFF          [  0]   ***   
       ROT_EVEC             ROTVEC              0               ***   
       SAVE_INTS            ISVINT             OFF      [  0]   ***   
       SCALE_ON             ISTCRT              0               ***   
       SCF_CONV             ISCFCV          10D-  7             ***   
       SCF_DAMPING          IDAMP               0             x 10-3  
       SCF_EXPORDE          IRPPOR              6               ***   
       SCF_EXPSTAR          IRPPLS              8               ***   
       SCF_EXTRAPO          IRPP                ON      [  1]   ***   
       SCF_MAXCYC           ISCFCY            150              cycles 
       SCF_NOSTOP           ISCFST         OFF          [  0]   ***   
       SCF_PRINT            ISCFPR              0               ***   
       SD_FIELD             IFINSD              0             x 10-6  
       SEQUENCE             ISEQUE         OFF          [  0]   ***   
       SOPERT               IPERSO         OFF          [  0]   ***   
       SPHERICAL            IDFGHI             ON       [  1]   ***   
       SPINORBIT            ISOCAL         OFF          [  0]   ***   
       SPINROTATIO          ISRCON         OFF          [  0]   ***   
       SPIN_FLIP            ISPFLP         OFF          [  0]   ***   
       SPIN_ORBIT           ISPORB         OFF          [  0]   ***   
       SPIN_SCAL            ISCSMP         OFF          [  0]   ***   
       SUBGROUP             ISUBGP         DEFAULT      [  0]   ***   
       SUBGRPAXIS           ISBXYZ         X            [  0]   ***   
       SYMMETRY             ISYM             ON         [  0]   ***   
       SYM_CHECK            ISYMCK         OVERRIDE     [  1]   ***   
       T3_EXTRAPOL          IT3EXT         OFF          [  0]   ***   
       TAMP_SUM             IEVERY              5               ***   
       TESTSUITE            ITESTS         OFF          [  0]   ***   
       THERMOCH             ITHERM         OFF          [  0]   ***   
       TOL_CHOLESK          ITOLCH          10D-  4             ***   
       TRANGRAD             IRESRM         OFF          [  0]   ***   
       TRANS_INV            ITRAIN         USE          [  0]   ***   
       TREAT_PERT           ITREAT         SIMULTANEOUS [  0]   ***   
       UIJ_THRESHO          IUIJTH              1               ***   
       UNITS                IUNITS         ANGSTROM     [  0]   ***   
       UNOS                 IUNOS          OFF          [  0]   ***   
       UPDATE_HESS          IHUPDT         ON           [  1]   ***   
       VIBPHASE             ISETPH         STANDARD     [  0]   ***   
       VIBRATION            IVIB              NO        [  0]   ***   
       VIB_ALGORIT          IGEALG         STANDARD     [  0]   ***   
       VNATORB              IVNORB         OFF          [  0]   ***   
       VTRAN                IVTRAN         FULL/PARTIAL [  0]   ***   
       XFIELD               IXEFLD              0             x 10-6  
       XFORM_TOL            IXFTOL          10D- 11             ***   
       YFIELD               IYEFLD              0             x 10-6  
       ZFIELD               IZEFLD              0             x 10-6  
    -------------------------------------------------------------------
   1 entries found in Z-matrix 
   Job Title : TITLE                                                                           
  1  NE        10    19.99244
 factor:   60.1997200000000     
   Rotational constants (in cm-1): 

   Rotational constants (in MHz): 

********************************************************************************
   The full molecular point group is I h .
   The largest Abelian subgroup of the full molecular point group is D2h .
   The computational point group is D2h .
********************************************************************************
  @GTFLGS-W, Keyword cctol not known and is ignored.
  Uncontracted basis cc-pCVTZ   is used.
  Uncontracted basis cc-pCVTZ   is used.
  There are   55 basis functions.
 @GEOPT-W, Archive file not created for single-point calculation.
  @CHECKOUT-I, Total execution time (CPU/WALL):        0.24/       1.10 seconds.
--executable xjoda finished with status     0 in        1.17 seconds (walltime).
 --invoking executable--
/home/nike/cfour_v2.00beta/bin/xvmol
 Serial version of molecule started
********************************************************************************
                    Input from MOL file
********************************************************************************
INTGRL        1    0    1    0    0    0    0    0    0                         
         *** CFOUR Program System (Release V0.1) ***                            
TITLE                                                                           
    1    3 X  Y   Z   0.10E-08              0    0                              
   9999.00      3.00                                                            
         10.00000000    1    4    2    2    1    1                              
NE#1   0.000000000000000   0.000000000000000   0.000000000000000                
    6    6                                                                      
   24350.0000000000        1.00000000000000       0.000000000000000E+000        
  0.000000000000000E+000  0.000000000000000E+000  0.000000000000000E+000        
  0.000000000000000E+000                                                        
   3650.00000000000       0.000000000000000E+000   1.00000000000000             
  0.000000000000000E+000  0.000000000000000E+000  0.000000000000000E+000        
  0.000000000000000E+000                                                        
   829.600000000000       0.000000000000000E+000  0.000000000000000E+000        
   1.00000000000000       0.000000000000000E+000  0.000000000000000E+000        
  0.000000000000000E+000                                                        
   234.000000000000       0.000000000000000E+000  0.000000000000000E+000        
  0.000000000000000E+000   1.00000000000000       0.000000000000000E+000        
  0.000000000000000E+000                                                        
   75.6100000000000       0.000000000000000E+000  0.000000000000000E+000        
  0.000000000000000E+000  0.000000000000000E+000   1.00000000000000             
  0.000000000000000E+000                                                        
   26.7300000000000       0.000000000000000E+000  0.000000000000000E+000        
  0.000000000000000E+000  0.000000000000000E+000  0.000000000000000E+000        
   1.00000000000000                                                             
    6    6                                                                      
   9.92700000000000        1.00000000000000       0.000000000000000E+000        
  0.000000000000000E+000  0.000000000000000E+000  0.000000000000000E+000        
  0.000000000000000E+000                                                        
   2.83600000000000       0.000000000000000E+000   1.00000000000000             
  0.000000000000000E+000  0.000000000000000E+000  0.000000000000000E+000        
  0.000000000000000E+000                                                        
   1.10200000000000       0.000000000000000E+000  0.000000000000000E+000        
   1.00000000000000       0.000000000000000E+000  0.000000000000000E+000        
  0.000000000000000E+000                                                        
  0.378200000000000       0.000000000000000E+000  0.000000000000000E+000        
  0.000000000000000E+000   1.00000000000000       0.000000000000000E+000        
  0.000000000000000E+000                                                        
   12.0830000000000       0.000000000000000E+000  0.000000000000000E+000        
  0.000000000000000E+000  0.000000000000000E+000   1.00000000000000             
  0.000000000000000E+000                                                        
   31.9470000000000       0.000000000000000E+000  0.000000000000000E+000        
  0.000000000000000E+000  0.000000000000000E+000  0.000000000000000E+000        
   1.00000000000000                                                             
    5    5                                                                      
   54.7000000000000        1.00000000000000       0.000000000000000E+000        
  0.000000000000000E+000  0.000000000000000E+000  0.000000000000000E+000        
   12.4300000000000       0.000000000000000E+000   1.00000000000000             
  0.000000000000000E+000  0.000000000000000E+000  0.000000000000000E+000        
   3.67900000000000       0.000000000000000E+000  0.000000000000000E+000        
   1.00000000000000       0.000000000000000E+000  0.000000000000000E+000        
   1.14300000000000       0.000000000000000E+000  0.000000000000000E+000        
  0.000000000000000E+000   1.00000000000000       0.000000000000000E+000        
  0.330000000000000       0.000000000000000E+000  0.000000000000000E+000        
  0.000000000000000E+000  0.000000000000000E+000   1.00000000000000             
    2    2                                                                      
   22.8270000000000        1.00000000000000       0.000000000000000E+000        
   87.0170000000000       0.000000000000000E+000   1.00000000000000             
    3    3                                                                      
   4.01400000000000        1.00000000000000       0.000000000000000E+000        
  0.000000000000000E+000                                                        
   1.09600000000000       0.000000000000000E+000   1.00000000000000             
  0.000000000000000E+000                                                        
   23.1680000000000       0.000000000000000E+000  0.000000000000000E+000        
   1.00000000000000                                                             
    1    1                                                                      
   2.54400000000000        1.00000000000000                                     
FINISH                                                                          
 
********************************************************************************
 One- and two-electron integrals over symmetry-adapted AOs are calculated.

  Spherical harmonics are used.
  
  Integrals less than  0.10E-13 are neglected.

  Nuclear repulsion energy :    0.0000000000 a.u.
  required memory for a1 array                5051678  words 
  required memory for a2 array                2210512  words 
 @GETMEM-I,  Allocated      70 MB of main memory.
  @MOLECU-I, One electron integrals (CPU/WALL):        0.02/       0.03 seconds.
  @TWOEL-I,       9094 integrals of symmetry type  I I I I
  @TWOEL-I,      44581 integrals of symmetry type  I J I J
  @TWOEL-I,      27813 integrals of symmetry type  I I J J
  @TWOEL-I,      50596 integrals of symmetry type  I J K L
  @TWOEL-I, Total number of 2-e integrals     132084.
  @MOLECU-I, Two electron integrals (CPU/WALL):        0.11/       0.18 seconds.
  @CHECKOUT-I, Total execution time (CPU/WALL):        0.15/       0.65 seconds.
--executable xvmol finished with status     0 in        0.74 seconds (walltime).
 --invoking executable--
/home/nike/cfour_v2.00beta/bin/xvmol2ja
 @GETMEM-I,  Allocated   30517 MB of main memory.
  @CHECKOUT-I, Total execution time (CPU/WALL):        0.01/       0.09 seconds.
--executable xvmol2ja finished with status     0 in        0.17 seconds (walltime).
  a 
 --invoking executable--
/home/nike/cfour_v2.00beta/bin/xvdint
 @GETMEM-I,  Allocated   30517 MB of main memory.
 One- and two-electron integral derivatives are calculated
 Spherical gaussians are used.
 
      Evaluated one-electron integrals:   dipole integrals
  keyword missing for gradient integrals in sfree
  pVp integrals for spin-free DHF
  derivative pVp integrals for spin-free DHF
  Evaluation of 1e integral derivatives required   63.65 seconds.
  Evaluation of 2e integral derivatives required    0.00 seconds.


  @CHECKOUT-I, Total execution time (CPU/WALL):       63.65/      64.84 seconds.
--executable xvdint finished with status     0 in       67.00 seconds (walltime).
 --invoking executable--
/home/nike/cfour_v2.00beta/bin/xvpropx2c
 @GETMEM-I,  Allocated   30517 MB of main memory.
  @CHECKOUT-I, Total execution time (CPU/WALL):        0.00/       0.06 seconds.
--executable xvpropx2c finished with status     0 in        0.84 seconds (walltime).
 --invoking executable--
/home/nike/cfour_v2.00beta/bin/xvscf
  There are   55 functions in the AO basis.

  There are 8 irreducible representations.

       Irrep        # of functions
         1                 18
         2                  9
         3                  9
         4                  3
         5                  9
         6                  3
         7                  3
         8                  1


  Parameters for SCF calculation: 
        SCF reference function:  RHF  
  Maximum number of iterations:  150
     Full symmetry point group: I h 
     Computational point group: D2h 
        Initial density matrix: MOREAD                 
     SCF convergence tolerance: 10**(- 7)
  DIIS convergence acceleration:  ON
          Latest start for DIIS:   8
                     DIIS order:   6

  Memory information:     161134 words required.
  Fock matrices are constructed from AO integral file.
 @GETMEM-I,  Allocated       1 MB of main memory.
  Initialization and symmetry analysis required      0.003 seconds.

  @INITGES-I, Occupancies from core Hamiltonian:

          Alpha population by irrep:   2    1    1    0    1    0    0    0
           Beta population by irrep:   2    1    1    0    1    0    0    0


 total no. of electrons in initial guess :  0.000000000000000E+000
  --------------------------------------------------------------------
  Iteration         Total Energy            Largest Density Difference
  --------------------------------------------------------------------
       0             0.000000000000000              0.0000000000D+00
   current occupation vector 
     2  1  1  0  1  0  0  0
     2  1  1  0  1  0  0  0
       1          -112.421914819382664              0.1288988040D+01
   current occupation vector 
     2  1  1  0  1  0  0  0
     2  1  1  0  1  0  0  0
       2          -121.487464764549159              0.1787944945D+01
   current occupation vector 
     2  1  1  0  1  0  0  0
     2  1  1  0  1  0  0  0
       3          -126.644068902276075              0.1753610042D+01
   current occupation vector 
     2  1  1  0  1  0  0  0
     2  1  1  0  1  0  0  0
       4          -128.011924184352864              0.4924806120D+00
   current occupation vector 
     2  1  1  0  1  0  0  0
     2  1  1  0  1  0  0  0
       5          -128.503394952214705              0.3857141249D+00
   current occupation vector 
     2  1  1  0  1  0  0  0
     2  1  1  0  1  0  0  0
       6          -128.626314961570557              0.1411858910D+00
   current occupation vector 
     2  1  1  0  1  0  0  0
     2  1  1  0  1  0  0  0
       7          -128.659549761704710              0.8485449200D-01
   current occupation vector 
     2  1  1  0  1  0  0  0
     2  1  1  0  1  0  0  0
       8          -128.670789622707304              0.2480219037D-01
   current occupation vector 
     2  1  1  0  1  0  0  0
     2  1  1  0  1  0  0  0
       9          -128.670789662791606              0.7946802104D-04
   current occupation vector 
     2  1  1  0  1  0  0  0
     2  1  1  0  1  0  0  0
      10          -128.670789663190845              0.1428538428D-04
   current occupation vector 
     2  1  1  0  1  0  0  0
     2  1  1  0  1  0  0  0
      11          -128.670789663188629              0.3112042569D-06
   current occupation vector 
     2  1  1  0  1  0  0  0
     2  1  1  0  1  0  0  0

  SCF has converged.

 Density matrix saved to file den.dat
 total electron number:   9.99999999999994     
     E(SCF)=      -128.670789663190533              0.2081899847D-07

  Eigenvector printing suppressed.

 @PUTMOS-I, Writing converged MOs to NEWMOS. 
 @PUTMOS-I, Symmetry   1 Full Blocks  4 Partial Blocksize   2
 @PUTMOS-I, Symmetry   2 Full Blocks  2 Partial Blocksize   1
 @PUTMOS-I, Symmetry   3 Full Blocks  2 Partial Blocksize   1
 @PUTMOS-I, Symmetry   4 Full Blocks  0 Partial Blocksize   3
 @PUTMOS-I, Symmetry   5 Full Blocks  2 Partial Blocksize   1
 @PUTMOS-I, Symmetry   6 Full Blocks  0 Partial Blocksize   3
 @PUTMOS-I, Symmetry   7 Full Blocks  0 Partial Blocksize   3
 @PUTMOS-I, Symmetry   8 Full Blocks  0 Partial Blocksize   1


 
  ORBITAL EIGENVALUES (ALPHA)  (1H = 27.2113838 eV)

       MO #        E(hartree)               E(eV)           FULLSYM    COMPSYM
       ----   --------------------   --------------------   -------   ---------
    1     1         -32.8080145771        -892.7514770167      Ag        Ag (1)
    2     2          -1.9322310648         -52.5786811321      Ag        Ag (1)
    3    28          -0.8450427935         -22.9947837984       u       B1u (3)
    4    19          -0.8450427935         -22.9947837984       u         u (2)
    5    40          -0.8450427935         -22.9947837984       u         u (5)
  +++++++++++++++++++++++++++++++++++++++++++++++++++++++++++++++++++++++++++++
    6    29           1.0867115338          29.5709246463       u       B1u (3)
    7    41           1.0867115338          29.5709246463       u         u (5)
    8    20           1.0867115338          29.5709246463       u         u (2)
    9     3           1.1419692279          31.0745629703      Ag        Ag (1)
   10     4           2.8103849571          76.4744637477      Hg         g (1)
   11    37           2.8103849571          76.4744637477      Hg       B2u (4)
   12    52           2.8103849571          76.4744637477      Hg       B1u (7)
   13    49           2.8103849571          76.4744637477      Hg       B3u (6)
   14     5           2.8103849571          76.4744637478      Hg         g (1)
   15    30           5.6060480499         152.5483251956       u         u (3)
   16    42           5.6060480499         152.5483251956       u         u (5)
   17    21           5.6060480499         152.5483251956       u         u (2)
   18     6           6.6111861017         179.8995225149      Ag        Ag (1)
   19    55           9.6451373575         262.4575346262       u        Ag (8)
   20    22           9.6451373575         262.4575346262       u       B2u (2)
   21    43           9.6451373575         262.4575346262       u       B3u (5)
   22    23           9.6451373575         262.4575346262       u       B3u (2)
   23    31           9.6451373575         262.4575346262       u         u (3)
   24    44           9.6451373575         262.4575346262       u         u (5)
   25    32           9.6451373575         262.4575346262       u         u (3)
   26     7          11.2200470674         305.3130072250      Hu        Ag (1)
   27     8          11.2200470674         305.3130072250      Hu         g (1)
   28    38          11.2200470674         305.3130072250      Hu         u (4)
   29    53          11.2200470674         305.3130072250      Hu       B1u (7)
   30    50          11.2200470674         305.3130072250      Hu         u (6)
   31    33          22.1787593665         603.5147337650       u         u (3)
   32    45          22.1787593665         603.5147337650       u         u (5)
   33    24          22.1787593665         603.5147337650       u         u (2)
   34     9          23.5443292648         640.6737803991      Ag        Ag (1)
   35    10          61.9249933277        1685.0647614654      Ag        Ag (1)
   36    11          64.2304582814        1747.7996532013      H          g (1)
   37    12          64.2304582814        1747.7996532015      H          g (1)
   38    51          64.2304582814        1747.7996532015      H          u (6)
   39    39          64.2304582814        1747.7996532015      H          u (4)
   40    54          64.2304582814        1747.7996532015      H        B1u (7)
   41    46          67.1532184106        1827.3320008915       u         u (5)
   42    25          67.1532184106        1827.3320008915       u         u (2)
   43    34          67.1532184106        1827.3320008916       u         u (3)
   44    13         135.8338769909        3696.2277625013      Ag        Ag (1)
   45    47         174.4862862655        4748.0133068228       u         u (5)
   46    26         174.4862862655        4748.0133068230       u         u (2)
   47    35         174.4862862655        4748.0133068230       u         u (3)
   48    14         279.5965954615        7608.2102737498      Ag        Ag (1)
   49    48         400.2139198505       10890.3745829902       u         u (5)
   50    27         400.2139198505       10890.3745829905       u         u (2)
   51    36         400.2139198505       10890.3745829906       u         u (3)
   52    15         644.9260730539       17549.3309091253      Ag        Ag (1)
   53    16        1887.3098727665       51356.3133343326      Ag        Ag (1)
   54    17        6665.2557306675      181370.8319428497      Ag        Ag (1)
   55    18       26354.3683720967      717138.8330957240      Ag        Ag (1)


  VSCF finished.

  @CHECKOUT-I, Total execution time (CPU/WALL):        0.11/       1.04 seconds.
--executable xvscf finished with status     0 in        1.11 seconds (walltime).
 --invoking executable--
/home/nike/cfour_v2.00beta/bin/xvtran
 @GETMEM-I,  Allocated   30517 MB of main memory.
  Full RHF integral transformation
  Transformation of IIII integrals :
  1 pass through the AO integral file was required.
        9094 AO integrals were read.
       17085 MO integrals were written to HF2.
  Transformation of IIJJ integrals :
  1 pass through the AO integral file was required.
       27813 AO integrals were read.
       33834 MO integrals were written to HF2.
  Transformation of IJIJ integrals :
  1 pass through the AO integral file was required.
       44581 AO integrals were read.
       54601 MO integrals were written to HF2.
  Transformation of IJKL integrals :
  1 pass through the AO integral file was required.
       50596 AO integrals were read.
       54479 MO integrals were written to HF2.
  Summary of active molecular orbitals: 
------------------------------------------------------------------------
 
  Index      Eigenvalue    Symmetry    Index      Eigenvalue    Symmetry
------------------------------------------------------------------------
     1       -32.8080146        1        29       400.2139199        2
     2        -1.9322311        1        30         1.0867115        3
     3        -0.8450428        2        31         5.6060480        3
     4        -0.8450428        3        32         9.6451374        3
     5        -0.8450428        5        33         9.6451374        3
     6         1.1419692        1        34        22.1787594        3
     7         2.8103850        1        35        67.1532184        3
     8         2.8103850        1        36       174.4862863        3
     9         6.6111861        1        37       400.2139199        3
    10        11.2200471        1        38         2.8103850        4
    11        11.2200471        1        39        11.2200471        4
    12        23.5443293        1        40        64.2304583        4
    13        61.9249933        1        41         1.0867115        5
    14        64.2304583        1        42         5.6060480        5
    15        64.2304583        1        43         9.6451374        5
    16       135.8338770        1        44         9.6451374        5
    17       279.5965955        1        45        22.1787594        5
    18       644.9260731        1        46        67.1532184        5
    19      1887.3098728        1        47       174.4862863        5
    20      6665.2557307        1        48       400.2139199        5
    21     26354.3683721        1        49         2.8103850        6
    22         1.0867115        2        50        11.2200471        6
    23         5.6060480        2        51        64.2304583        6
    24         9.6451374        2        52         2.8103850        7
    25         9.6451374        2        53        11.2200471        7
    26        22.1787594        2        54        64.2304583        7
    27        67.1532184        2        55         9.6451374        8
    28       174.4862863        2
------------------------------------------------------------------------
  @CHECKOUT-I, Total execution time (CPU/WALL):        0.09/       0.47 seconds.
--executable xvtran finished with status     0 in        0.53 seconds (walltime).
 --invoking executable--
/home/nike/cfour_v2.00beta/bin/xintprc
 @GETMEM-I,  Allocated   30517 MB of main memory.
  @GMOIAA-I, Processing MO integrals for spin case AA.
  @GMOIAA-I, Generation of integral list completed.
                      TYPE                NUMBER
                      ----               --------
                      PPPP                108609
                      PPPH                 43203
                      PPHH                  4533
                      PHPH                  2992
                      PHHH                   629
                      HHHH                    33

                     TOTAL                159999

  @FORMT2-I, Second-order MP correlation energies:
            ------------------------------------------------
            E(SCF)                  =   -128.670789663191 a.u.
            E2(AA)                  =     -0.040529528837 a.u.
            E2(AB)                  =     -0.253115071225 a.u.
            E2(TOT)                 =     -0.334174128898 a.u.
            Total MP2 energy        =   -129.004963792088 a.u.
            ------------------------------------------------
   Largest T2 amplitudes for spin case AB:
       _       _                 _       _                 _       _
   i   j   a   b             i   j   a   b             i   j   a   b
-----------------------------------------------------------------------------
[  3   3  22  22]-0.03404 [  5   5  41  41]-0.03404 [  4   4  30  30]-0.03404
[  5   3  41  22]-0.02683 [  3   5  22  41]-0.02683 [  4   3  30  22]-0.02683
[  3   4  22  30]-0.02683 [  5   4  41  30]-0.02683 [  4   5  30  41]-0.02683
[  2   3   6  22]-0.01924 [  3   2  22   6]-0.01924 [  5   2  41   6]-0.01924
[  2   5   6  41]-0.01924 [  4   2  30   6]-0.01924 [  2   4   6  30]-0.01924
-----------------------------------------------------------------------------
   Norm of T2AB vector (     9176 symmetry allowed elements):  0.1579534026.
-----------------------------------------------------------------------------
  @CHECKOUT-I, Total execution time (CPU/WALL):        0.09/       1.26 seconds.
--executable xintprc finished with status     0 in        1.34 seconds (walltime).
 --invoking executable--
/home/nike/cfour_v2.00beta/bin/xint
 @GETMEM-I,  Allocated   30517 MB of main memory.
  itot is                      0
 using new mrcc fort.57
 fort.56
     4     1     0     0     1     0     0     1     0     1     1     1     0     0     0     7     0     0           0.00000     0 30518     0     0
ex.lev,nsing,ntrip, rest,CC/CI, dens,conver, symm, diag,  CS ,spatial,  HF ,ndoub,nacto,nactv, tol ,maxex, sacc, freq, dboc, mem
  @CHECKOUT-I, Total execution time (CPU/WALL):        1.50/       2.35 seconds.
--executable xint finished with status     0 in        2.45 seconds (walltime).
 --invoking executable--
/home/nike/MRCC/dmrcc
 **********************************************************************
                          MRCC program system
 **********************************************************************
 
                              Written by
    Mihaly Kallay, Zoltan Rolik, Jozsef Csontos, Istvan Ladjanszki,
       Lorant Szegedy, Bence Ladoczki, Gyula Samu, Klara Petrov,
        Mate Farkas, Peter Nagy, David Mester, and Bence Hegely
 
        Department of Physical Chemistry and Materials Science
            Budapest University of Technology and Economics
                  Budapest P.O.Box 91, H-1521 Hungary
 
                              www.mrcc.hu

 ************************ 2016-09-18 18:34:21 *************************
 Executing goldstone...

 Generation of CC equations in terms of H and T...
 Generation of antisymmetrized Goldstone diagrams...
 Number of diagrams in T^1 equations:    15
 Number of diagrams in T^2 equations:    38
 Number of diagrams in T^3 equations:    53
 Number of diagrams in T^4 equations:    74
 Translation of diagrams to factorized equations...
 Optimizing intermediate calculation...
 Number of floating-point operations per iteration step:   6.9003E+11
 Probable CPU time per iteration step (hours):      6.90
 Required memory (Mbytes):     832.9
 Number of intermediates:                                 105
 Number of intermediates to be stored:                     44
 Length of intermediate file (Mbytes):     199.9

 ************************ 2016-09-18 18:34:25 *************************
 Executing xmrcc...

 **********************************************************************
 CC(                     4 ) calculation 
 
 
 Allocation of 832.9 Mbytes of memory...
 Number of spinorbitals:                   110
 Number of alpha electrons:                        5
 Number of beta electrons:                         5
 Spin multiplicity:                     1
 z-component of spin:  0.0
 Spatial symmetry:                      1
 Convergence criterion:  1.0E-07
 Construction of occupation graphs...
 Number of                     0 -fold excitations:                      1
 Number of                     1 -fold excitations:                    112
 Number of                     2 -fold excitations:                  12524
 Number of                     3 -fold excitations:                 829346
 Number of                     4 -fold excitations:               31262706
 Total number of configurations:               32104689
 Calculation of coupling coefficients...
 Length of intermediate file (Mbytes):     135.2
 
 ======================================================================
 
 Memory requirements /Mbyte/: 
               Minimal        Optimal
 Real*8:       4740.8558      4740.8558
 Integer:        95.6757
 Total:        4836.5315      4836.5315
 

 ************************ 2016-09-18 18:34:42 *************************
 Executing mrcc...

 **********************************************************************
 CCSDTQ calculation                                                     
 
 
 OpenMP parallel version is running.
 Number of CPUs:  32
 Allocation of 4740.9 Mbytes of memory...
 Number of spinorbitals: 110
 Number of alpha electrons:  5
 Number of beta  electrons:  5
 Spin multiplicity: 1
 z-component of spin:  0.0
 Spatial symmetry: 1
 Convergence criterion:  1.0E-07
 Construction of occupation graphs...
 Number of 0-fold excitations: 1
 Number of 1-fold excitations: 112
 Number of 2-fold excitations: 12524
 Number of 3-fold excitations: 829346
 Number of 4-fold excitations: 31262706
 Total number of determinants: 32104689
 Calculation of coupling coefficients...
 Initial cluster amplitudes are generated.
 Length of intermediate file (Mbytes):     135.2
 Reading integral list from unit 55...
 Sorting integrals...
 Energy of reference determinant [au]:    -128.670789663191
 Calculation of MP denominators...
 
 Starting CC iteration...
 ======================================================================
 Norm of residual vector:     3.92748410
 CPU time [min]:  1032.233                   Wall time [min]:    42.018
 
 Iteration  1  CC energy:  -129.00496379  Energy decrease:   0.33417413
 ======================================================================
 Norm of residual vector:     0.41354228
 CPU time [min]:  2095.587                   Wall time [min]:    85.588
 
 Iteration  2  CC energy:  -129.00404661  Energy decrease:   0.00091718
 ======================================================================
 Norm of residual vector:     0.07620143
 CPU time [min]:  3329.769                   Wall time [min]:   136.177
 
 Iteration  3  CC energy:  -129.01165439  Energy decrease:   0.00760778
 ======================================================================
 Norm of residual vector:     0.01562592
 CPU time [min]:  4378.040                   Wall time [min]:   177.837
 
 Iteration  4  CC energy:  -129.01233553  Energy decrease:   0.00068114
 ======================================================================
 Norm of residual vector:     0.00486666
 CPU time [min]:  5467.681                   Wall time [min]:   221.586
 
 Iteration  5  CC energy:  -129.01211409  Energy decrease:   0.00022143
 ======================================================================
 Norm of residual vector:     0.00100333
 CPU time [min]:  6503.076                   Wall time [min]:   263.151
 
 Iteration  6  CC energy:  -129.01212304  Energy decrease:   0.00000895
 ======================================================================
 Norm of residual vector:     0.00018930
 CPU time [min]:  7658.491                   Wall time [min]:   309.461
 
 Iteration  7  CC energy:  -129.01212504  Energy decrease:   0.00000200
 ======================================================================
 Norm of residual vector:     0.00003399
 CPU time [min]:  8638.476                   Wall time [min]:   356.610
 
 Iteration  8  CC energy:  -129.01212434  Energy decrease:   0.00000070
 ======================================================================
 Norm of residual vector:     0.00000679
 CPU time [min]:  9562.511                   Wall time [min]:   393.608
 
 Iteration  9  CC energy:  -129.01212449  Energy decrease:   0.00000015
 ======================================================================
 Norm of residual vector:     0.00000130
 CPU time [min]: 10444.264                   Wall time [min]:   428.751
 
 Iteration 10  CC energy:  -129.01212449  Energy decrease:   4.0795E-09
 ======================================================================
 Norm of residual vector:     0.00000021
 CPU time [min]: 11389.697                   Wall time [min]:   466.809
 
 Iteration 11  CC energy:  -129.01212449  Energy decrease:   0.00000001
 ======================================================================
 Norm of residual vector:     0.00000004
 CPU time [min]: 12282.627                   Wall time [min]:   501.639
 
 Iteration 12  CC energy:  -129.01212449  Energy decrease:   4.1811E-10
 ======================================================================
 
 Iteration has converged in 12 steps.
 
 Final results:
 Total CCSDTQ energy [au]:          -129.012124485993
 Total MP2 energy [au]:             -129.004963792088
 
 ************************ 2016-09-19 02:56:21 *************************
                      Normal termination of mrcc.
 **********************************************************************
--executable dmrcc finished with status     0 in    30120.36 seconds (walltime).
  The final electronic energy is      -129.012124485992501 a.u. 
  This computation required                        30196.31 seconds (walltime).
--- SharcNET Job Epilogue ---
Job completed successfully.
               jobid: 1229464
               resid: 2715538
         exit status: 0
      allocated time: 30197.4
           user time: 612626
         system time: 124435
peak rss=29635330048; peak vsz=32126361600 (bytes)
atime=30197.4; utime=612626; stime=124435; exit=0
