 --invoking executable--
/project1/nike/cfour_v2.00beta_May2019xnmol_noLABBASIS/bin/xjoda


   *************************************************************************
         <<<     CCCCCC     CCCCCC   |||     CCCCCC     CCCCCC   >>>
       <<<      CCC        CCC       |||    CCC        CCC         >>>
      <<<      CCC        CCC        |||   CCC        CCC            >>>
    <<<        CCC        CCC        |||   CCC        CCC              >>>
      <<<      CCC        CCC        |||   CCC        CCC            >>>
       <<<      CCC        CCC       |||    CCC        CCC         >>>
         <<<     CCCCCC     CCCCCC   |||     CCCCCC     CCCCCC   >>>
   *************************************************************************

     ****************************************************************
     * CFOUR Coupled-Cluster techniques for Computational Chemistry *
     ****************************************************************
 

   Department of Chemistry                Institut fuer Physikalische Chemie
   University of Texas at Austin          Universitaet Mainz
   Austin, TX  78712, USA                 D-55099 Mainz, Germany
 
                       Version 2.00beta
 
                     req195                                            
                     Tue Mar 10 00:16:08 EDT 2020                      
                     integer*8 version is running
 
********************************************************************************
*                          Input from ZMAT file                                *
********************************************************************************
TITLE                                                                           
Br                                                                              
Br 1 R                                                                          
                                                                                
R=4.31051669082                                                                 
                                                                                
*ACES2(CALC=CCSD(T)                                                             
UNITS=BOHR                                                                      
#GEOM=2.2810272*10/5.29177210903_in2013JMSLeRoy                                 
#COORD=CARTESIAN                                                                
COORD=INTERNAL                                                                  
PRINT=4                                                                         
JODA_PRINT=4                                                                    
INPUT_MRCC=OFF                                                                  
#CC_PROG=MRCC                                                                   
FROZEN_CORE=ON                                                                  
#DROPMO=1>5                                                                     
CONTRACTION=GENERAL                                                             
#CONTRACTION=SEGMENTED                                                          
RELATIVISTIC=OFF                                                                
#EXCITE=EOMEE                                                                   
#ESTATE_CONV=5                                                                  
#ESTATE_SYM=2/2/2/2/2/2/2/2                                                     
XFORM_TOL=18                                                                    
SAVE_INTS=ON                                                                    
SCF_EXPORDER=6                                                                  
SCF_EXPSTART=5                                                                  
#SCF_DAMPING=1000                                                               
SCF_EXTRAPOLATION=ON                                                            
SCF_CONV=13                                                                     
SCF_MAXCYC=9999                                                                 
CC_CONV=9                                                                       
CC_MAXCYC=999                                                                   
T3_EXTRAPOL=ON                                                                  
REFERENCE=ROHF                                                                  
CHARGE=+1                                                                       
MULT=2                                                                          
ABCDTYPE=STANDARD                                                               
#OCCUPATION=3-2-2-0-1-0-0-0/3-1-1-0-1-0-0-0                                     
MEM=4                                                                           
MEM_UNIT=GB                                                                     
BASIS=SPECIAL)                                                                  
                                                                                
BR:def2-TZVPP                                                                   
BR:def2-TZVPP                                                                   
                                                                                
********************************************************************************
  @GTFLGS-W, Keyword #GEOM not known and is ignored.
  @GTFLGS-W, Keyword #COORD not known and is ignored.
  @GTFLGS-W, Keyword #CC_PROG not known and is ignored.
  @GTFLGS-W, Keyword #DROPMO not known and is ignored.
  @GTFLGS-W, Keyword #CONTRACTION not known and is ignored.
  @GTFLGS-W, Keyword #EXCITE not known and is ignored.
  @GTFLGS-W, Keyword #ESTATE_CONV not known and is ignored.
  @GTFLGS-W, Keyword #ESTATE_SYM not known and is ignored.
  @GTFLGS-W, Keyword #SCF_DAMPING not known and is ignored.
  @GTFLGS-W, Keyword #OCCUPATION not known and is ignored.
    -------------------------------------------------------------------
                    CFOUR Control Parameters 
    -------------------------------------------------------------------
        External           Internal           Value            Units
          Name               Name
    -------------------------------------------------------------------
       ABCDTYPE             IABCDT         STANDARD     [  0]   ***   
       ANHARMONIC           IANHAR         OFF          [  0]   ***   
       ANH_ALGORIT          IANALG         STANDARD     [  0]   ***   
       ANH_DERIVAT          IANDER         SECOND       [  1]   ***   
       ANH_STEPSIZ          ICUBST             50000          x 10-6  
       ANH_SYMMETR          IANHSM         ABELIAN      [  0]   ***   
       AO_LADDERS           IAOLAD         SINGLEPASS   [  1]   ***   
       BASIS                IBASIS         SPECIAL      [  0]   ***   
       BREIT                IBREIT         OFF          [  0]   ***   
       BRUCK_CONV           IBRTOL          10D-  4             ***   
       BRUECKNER            IBRKNR             OFF      [  0]   ***   
       BUFFERSIZE           IBUFFS            600               ***   
       CACHE_RECS           ICHREC             10               ***   
       CALCLEVEL            ICLLVL           CCSD(T)    [ 22]   ***   
       CCORBOPT             ICCORB             OFF      [  0] x 0.01  
       CC_CONV              ICCCNV          10D-  9             ***   
       CC_EXPORDER          ICCEOR              5               ***   
       CC_EXTRAPOL          ICCEXT             DIIS     [  1]   ***   
       CC_MAXCYC            ICCCYC            999              cycles 
       CC_PROGRAM           ICCPRO         VCC          [  0]   ***   
       CHARGE               ICHRGE              1               ***   
       CHOLESKY             ICHOLE         OFF          [  0]   ***   
       CIS_CONV             ICISTL              5               ***   
       COMM_SIZE            IPSIZE            ***               ***   
       CONSTANT             ICONST         OLD          [  1]   ***   
       CONTINUUM            ICONTU         NONE         [  0]   ***   
       CONTRACTION          ICNTYP          GENERAL     [  1]   ***   
       COORDINATES          ICOORD         INTERNAL     [  0]   ***   
       CPHF_CONVER          ICPHFT          10D- 16             ***   
       CPHF_MAXCYC          ICPHFC             64              cycles 
       CUBIC                ICUBIC         OFF          [  0]   ***   
       CURVILINEAR          ICURVY            OFF       [  0]   ***   
       DBOC                 IDBOC          OFF          [  0]   ***   
       DCT                  IDCT           OFF          [  0]   ***   
       DERIV_LEV            IDRLVL            ZERO      [  0]   ***   
       DIAG_MRCC            IEOMST          10D-  0             ***   
       DIFF_TYPE            IDIFTY         RELAXED      [  0]   ***   
       DIRECT               IDIRCT         OFF          [  0]   ***   
       DROPMO               IDRPMO      NONE         
       ECP                  IECP           OFF          [  0]   ***   
       EIGENVECTOR          IVEC                1               ***   
       EL_ANHARM            IELANH         OFF          [  0]   ***   
       EOMFOLLOW            IEOMSR         ENERGY       [  0]   ***   
       EOM_MRCC             IMRCCE         NEW          [  1]   ***   
       EOM_NONIT            EOMNON         OFF          [  0]   ***   
       EOM_NSING            IEOMSI          10D-  0             ***   
       EOM_NSTATES          IMRCCD         DAVIDSON     [  0]   ***   
       EOM_NTRIP            IEOMTR          10D-  0             ***   
       EOM_ORDER            IEXORD         ENERGY       [  0]   ***   
       ESTATE_CONV          IEXTOL          10D-  5             ***   
       ESTATE_DIAG          IEXDIG         ITERATIVE    [  0]   ***   
       ESTATE_LOCK          IESLOC         ON           [  1]   ***   
       ESTATE_MAXC          IEXMXC             20               ***   
       ESTATE_PROP          IEXPRP         OFF          [  0]   ***   
       EVAL_HESS            IRECAL              0            # of cyc.
       EXCITATION           IEXCIT              0               ***   
       EXCITE               IEXCIT         NONE         [  0]   ***   
       FCGRADNEW            IFCGNW         OFF          [  0]   ***   
       FC_FIELD             IFINFC              0             x 10-6  
       FD_CALTYPE           IFDCAL         GRADONLY     [  0]   ***   
       FD_PROJECT           IFDPRJ         OFF          [  1]   ***   
       FD_STEPSIZE          IDISFD              0            10-4 bohr
       FD_USEGROUP          IFDGRP         FULL         [  0]   ***   
       FILE_RECSIZ          IFLREC              4096           words  
       FINITE_PERT          IFIPER              0             x 10-6  
       FIXGEOM              IFIXGM         OFF          [  0]   ***   
       FOCK                 IFOCK          AO           [  1]   ***   
       FREQ_ALGORI          IVIALG         STANDARD     [  0]   ***   
       FROZEN_CORE          IFROCO         ON           [  1]   ***   
       FROZEN_VIRT          IFROVI         OFF          [  0]   ***   
       GAMMA_ABCD           IGABCD         STORE        [  0]   ***   
       GAMMA_ABCI           IGABCI         STORE        [  0]   ***   
       GENBAS_1             IGNBS1              0               ***   
       GENBAS_2             IGNBS2              0               ***   
       GENBAS_3             IGNBS3              0               ***   
       GENBAS_4             IGNBS4              0               ***   
       GEO_CONV             ICONTL              5              H/bohr 
       GEO_MAXCYC           IOPTCY             50               ***   
       GEO_MAXSTEP          IMXSTP            300            millibohr
       GEO_METHOD           INR            SINGLE_POINT [  5]   ***   
       GIAO                 IGIAO          OFF          [  1]   ***   
       GIMIC                IGIMIC         OFF          [  0]   ***   
       GRID                 IGRID          OFF          [  0]   ***   
       GRID_ALGO            IGALGO         SERIAL       [  0]   ***   
       GUESS                IGUESS            MOREAD    [  0]   ***   
       HBAR                 IHBAR              OFF      [  0]   ***   
       HESS_TYPE            IHESTP         SCF          [  0]   ***   
       HF2_FILE             IHF2Fl         USE          [  1]   ***   
       HFSTABILITY          ISTABL         OFF          [  0]   ***   
       INCORE               INCORE             OFF      [  0]   ***   
       INPUT_MRCC           IMRCC          OFF          [  0]   ***   
       INTEGRALS            INTTYP             VMOL     [  1]   ***   
       JODA_PRINT           IJPRNT              4               ***   
       LINDEP_TOL           ILINDP              8               ***   
       LINEQ_CONV           IZTACN          10D-  7           cycles  
       LINEQ_EXPOR          ILMAXD              5               ***   
       LINEQ_MAXCY          ILMAXC             50               ***   
       LINEQ_TYPE           ILTYPE         DIIS         [  1]   ***   
       LOCK_ORBOCC          ILOCOC             OFF      [  0]   ***   
       MEMORY_SIZE          IMEMSZ         500000000           words  
       MEM_UNIT             IMEMU          GB           [  3]   ***   
       MRCC                 IMRCCC         OFF          [  0]   ***   
       MULTIPLICTY          IMULTP              2               ***   
       NEGEVAL              IDIE             ABORT      [  0]   ***   
       NEWNORM              INEWNO         OFF          [  0]   ***   
       NON-HF               INONHF              ON      [  1]   ***   
       NTOP_TAMP            ITOPT2             15               ***   
       NUC_MODEL            INUCMO         POINT        [  0]   ***   
       OCCUPATION           IOCCU   ESTIMATED BY SCF 
       OPEN-SHELL           IOPEN          SPIN-ORBITAL [  0]   ***   
       ORBITALS             IORBTP         SEMICANONICAL[  1]   ***   
       PARALLEL             IPARAL         ON           [  1]   ***   
       PARA_INT             IPINTS         ON           [  1]   ***   
       PARA_PRINT           IPPRIN              0               ***   
       PERT_ORB             IPTORB         STANDARD     [  0]   ***   
       POINTS               IGRDFD              0               ***   
       PRINT                IPRNT               4               ***   
       PROPS                IPROPS             OFF      [  0]   ***   
       PROP_INTEGR          IINTYP         INTERNAL     [  0]   ***   
       PSI                  IPSI           OFF          [  0]   ***   
       QUARTIC              IQUART         OFF          [  0]   ***   
       RAMAN_INT            IRAMIN         OFF          [  0]   ***   
       RAMAN_ORB            IRAMRE         UNRELAXED    [  0]   ***   
       RDO                  IRDOFM             OFF      [  0]   ***   
       REFERENCE            IREFNC             ROHF     [  2]   ***   
       RELATIVIST           IRELAT         OFF          [  0]   ***   
       RELAX_DENS           IRDENS             OFF      [  0]   ***   
       RESET_FLAGS          IRESET             OFF      [  0]   ***   
       RESTART_CC           ICCRES         OFF          [  0]   ***   
       ROT_EVEC             ROTVEC              0               ***   
       SAVE_INTS            ISVINT              ON      [  1]   ***   
       SCALE_ON             ISTCRT              0               ***   
       SCF_CONV             ISCFCV          10D- 13             ***   
       SCF_DAMPING          IDAMP               0             x 10-3  
       SCF_EXPORDE          IRPPOR              6               ***   
       SCF_EXPSTAR          IRPPLS              5               ***   
       SCF_EXTRAPO          IRPP                ON      [  1]   ***   
       SCF_MAXCYC           ISCFCY            ***              cycles 
       SCF_NOSTOP           ISCFST         OFF          [  0]   ***   
       SCF_PRINT            ISCFPR              0               ***   
       SD_FIELD             IFINSD              0             x 10-6  
       SEQUENCE             ISEQUE         OFF          [  0]   ***   
       SOPERT               IPERSO         OFF          [  0]   ***   
       SPHERICAL            IDFGHI             ON       [  1]   ***   
       SPINORBIT            ISOCAL         OFF          [  0]   ***   
       SPINROTATIO          ISRCON         OFF          [  0]   ***   
       SPIN_FLIP            ISPFLP         OFF          [  0]   ***   
       SPIN_ORBIT           ISPORB         OFF          [  0]   ***   
       SPIN_SCAL            ISCSMP         OFF          [  0]   ***   
       SUBGROUP             ISUBGP         DEFAULT      [  0]   ***   
       SUBGRPAXIS           ISBXYZ         X            [  0]   ***   
       SYMMETRY             ISYM             ON         [  0]   ***   
       SYM_CHECK            ISYMCK         OVERRIDE     [  1]   ***   
       T3_EXTRAPOL          IT3EXT         ON           [  1]   ***   
       TAMP_SUM             IEVERY              5               ***   
       TESTSUITE            ITESTS         OFF          [  0]   ***   
       THERMOCH             ITHERM         OFF          [  0]   ***   
       TOL_CHOLESK          ITOLCH          10D-  4             ***   
       TRANGRAD             IRESRM         OFF          [  0]   ***   
       TRANS_INV            ITRAIN         USE          [  0]   ***   
       TREAT_PERT           ITREAT         SIMULTANEOUS [  0]   ***   
       UIJ_THRESHO          IUIJTH              1               ***   
       UNITS                IUNITS         BOHR         [  1]   ***   
       UNOS                 IUNOS          OFF          [  0]   ***   
       UPDATE_HESS          IHUPDT         ON           [  1]   ***   
       VIBPHASE             ISETPH         STANDARD     [  0]   ***   
       VIBRATION            IVIB              NO        [  0]   ***   
       VIB_ALGORIT          IGEALG         STANDARD     [  0]   ***   
       VNATORB              IVNORB         OFF          [  0]   ***   
       VTRAN                IVTRAN         FULL/PARTIAL [  0]   ***   
       XFIELD               IXEFLD              0             x 10-6  
       XFORM_TOL            IXFTOL          10D- 18             ***   
       YFIELD               IYEFLD              0             x 10-6  
       ZFIELD               IZEFLD              0             x 10-6  
    -------------------------------------------------------------------
   2 entries found in Z-matrix 
   Job Title : TITLE                                                                           
 Variable names read by FETCHZ
  1           
  2           
  3           
  4 R         
  5           
  6           
 Atomic symbols read by FETCHZ
  1 Br   
  2 Br   
 Connectivity matrix read by FETCHZ
  1   0
  2   0
  3   0
  4   1
  5   0
  6   0
   There are  1 unique internal coordinates.
   Of these,  0 will be optimized.
   User supplied Z-matrix: 
--------------------------------------------------------------------------------
       SYMBOL    BOND      LENGTH    ANGLE     ANGLE     DIHED     ANGLE
                  TO      (ANGST)    WRT      (DEG)      WRT      (DEG)
--------------------------------------------------------------------------------
        Br   
        Br         1         R    
                  *Initial values for internal coordinates* 
                      Name             Value
                        R               4.3105166908
--------------------------------------------------------------------------------
  1  BR        35    78.91834
  2  BR        35    78.91834
   78.9183361000
   78.9183361000
 After translation to center of mass coordinates 
        0.000000000000    0.000000000000   -2.155258345410
        0.000000000000    0.000000000000    2.155258345410
  Inertia tensor (amu*bohr**2)
  733.17321    0.00000    0.00000
    0.00000  733.17321    0.00000
    0.00000    0.00000    0.00000
    Inertia tensor:
      733.173208344901    0.000000000000    0.000000000000
        0.000000000000  733.173208344901    0.000000000000
        0.000000000000    0.000000000000    0.000000000000
    Principal axis orientation for molecular system: 
        0.000000000000    0.000000000000    2.155258345410
        0.000000000000    0.000000000000   -2.155258345410
    Diagonalized inertia tensor:
      733.173208344901    0.000000000000    0.000000000000
        0.000000000000  733.173208344901    0.000000000000
        0.000000000000    0.000000000000    0.000000000000
    Eigenvectors of inertia tensor: 
        1.000000000000    0.000000000000    0.000000000000
        0.000000000000    1.000000000000    0.000000000000
        0.000000000000    0.000000000000   -1.000000000000
 factor:   60.1997200000000     
   Rotational constants (in cm-1): 
          0.0821084558             0.0821084558
   Rotational constants (in MHz): 
       2461.5499247226          2461.5499247226
  @SYMMETRY-I, Handedness of inertial frame:-1.00000
  @SYMMETRY-I, Sense of inertial frame y-axis will be changed.
  @SYMMETRY-I, The symmetry group is 2-fold degenerate.
  @SYMMETRY-I, The molecule belongs to a point group with doubly degenerate representations.
  @SYMMETRY-I, The molecule is linear.
   Principal axis orientation for molecule:
        0.000000000000    0.000000000000    2.155258345410
        0.000000000000    0.000000000000   -2.155258345410
   Reflection in plane  3 is a valid symmetry operation.
   Rotation about  3 is a valid symmetry operation 
   Reflection in plane  2 is a valid symmetry operation.
   Rotation about  2 is a valid symmetry operation 
   Reflection in plane  1 is a valid symmetry operation.
   Rotation about  1 is a valid symmetry operation 
   The molecule possesses an inversion center. 
  Symmetry bits:    7   7   1
********************************************************************************
   The full molecular point group is DXh .
   The largest Abelian subgroup of the full molecular point group is D2h .
   The computational point group is D2h .
********************************************************************************
--------------------------------------------------------------------------------
   Analysis of internal coordinates specified by Z-matrix 
--------------------------------------------------------------------------------
   *The nuclear repulsion energy is  284.188668752600336 a.u.
   *There is   1 degree of freedom within the tot. symm. molecular subspace.
   *Z-matrix requests optimization of   0 coordinates.
   *The optimization is constrained.
   *The following   1 parameters can have non-zero 
    derivatives within the totally symmetric subspace:
             R    [ 1]
   *The following   0 parameters are to be optimized:

   *The following coordinates must be varied in an  unconstrained optimization.
             R    [ 1]
--------------------------------------------------------------------------------
 ----------------------------------------------------------------
 Z-matrix   Atomic            Coordinates (in bohr)
  Symbol    Number           X              Y              Z
 ----------------------------------------------------------------
     BR       35         0.00000000     0.00000000     2.15525835
     BR       35         0.00000000     0.00000000    -2.15525835
 ----------------------------------------------------------------
   Interatomic distance matrix (Angstroms) 
 
                 BR            BR   
                [ 1]        [ 2]
  BR   [ 1]     0.00000
  BR   [ 2]     2.28103     0.00000
  Inertia tensor (amu*bohr**2)
  733.17321    0.00000    0.00000
    0.00000  733.17321    0.00000
    0.00000    0.00000    0.00000
   Rotational constants (in cm-1): 
          0.0821084558             0.0000000000
   Rotational constants (in MHz): 
       2461.5499247226             0.0000000000
  @GTFLGS-W, Keyword #GEOM not known and is ignored.
  @GTFLGS-W, Keyword #COORD not known and is ignored.
  @GTFLGS-W, Keyword #CC_PROG not known and is ignored.
  @GTFLGS-W, Keyword #DROPMO not known and is ignored.
  @GTFLGS-W, Keyword #CONTRACTION not known and is ignored.
  @GTFLGS-W, Keyword #EXCITE not known and is ignored.
  @GTFLGS-W, Keyword #ESTATE_CONV not known and is ignored.
  @GTFLGS-W, Keyword #ESTATE_SYM not known and is ignored.
  @GTFLGS-W, Keyword #SCF_DAMPING not known and is ignored.
  @GTFLGS-W, Keyword #OCCUPATION not known and is ignored.
  There are  28 frozen-core orbitals.
  There are  28 frozen-core orbitals.
  There are   96 basis functions.
 @GEOPT-W, Archive file not created for single-point calculation.
  @CHECKOUT-I, Total execution time (CPU/WALL):        0.33/       0.71 seconds.
--executable xjoda finished with status     0 in        0.78 seconds (walltime).
 --invoking executable--
/project1/nike/cfour_v2.00beta_May2019xnmol_noLABBASIS/bin/xvmol
Running with 1 threads/proc

********************************************************************************
                   INPUT FROM MOL FILE                                          
********************************************************************************
INTGRL        1    0    1    0    0    0    0    0    0
         *** CFOUR Program System (Release V0.1) *** 
TITLE
    1    3 X  Y   Z   0.10E-08              0    0
   9999.00      3.00
         35.00000000    1    4    1    1    1    1
BR#1   0.000000000000000   0.000000000000000   2.155258345410000
   17    6
   565073.252560000       2.366031469000000E-004  0.000000000000000E+000
  0.000000000000000E+000  0.000000000000000E+000  0.000000000000000E+000
  0.000000000000000E+000
   84701.7231790000       1.834833250800000E-003  0.000000000000000E+000
  0.000000000000000E+000  0.000000000000000E+000  0.000000000000000E+000
  0.000000000000000E+000
   19276.2719000000       9.546584986000001E-003  0.000000000000000E+000
  0.000000000000000E+000  0.000000000000000E+000  0.000000000000000E+000
  0.000000000000000E+000
   5456.42845760000       3.887714215300000E-002  0.000000000000000E+000
  0.000000000000000E+000  0.000000000000000E+000  0.000000000000000E+000
  0.000000000000000E+000
   1776.95035000000       0.127183142310000       0.000000000000000E+000
  0.000000000000000E+000  0.000000000000000E+000  0.000000000000000E+000
  0.000000000000000E+000
   639.193982760000       0.304376621910000       0.000000000000000E+000
  0.000000000000000E+000  0.000000000000000E+000  0.000000000000000E+000
  0.000000000000000E+000
   248.788239610000       0.444909404970000       0.000000000000000E+000
  0.000000000000000E+000  0.000000000000000E+000  0.000000000000000E+000
  0.000000000000000E+000
   98.6783054940000       0.243816430580000       0.000000000000000E+000
  0.000000000000000E+000  0.000000000000000E+000  0.000000000000000E+000
  0.000000000000000E+000
   606.078245680000       0.000000000000000E+000 -2.652715870900000E-002
  0.000000000000000E+000  0.000000000000000E+000  0.000000000000000E+000
  0.000000000000000E+000
   188.455984840000       0.000000000000000E+000 -0.124845848090000     
  0.000000000000000E+000  0.000000000000000E+000  0.000000000000000E+000
  0.000000000000000E+000
   31.4971445060000       0.000000000000000E+000  0.564686835590000     
  0.000000000000000E+000  0.000000000000000E+000  0.000000000000000E+000
  0.000000000000000E+000
   13.7360083200000       0.000000000000000E+000  0.555552685640000     
  0.000000000000000E+000  0.000000000000000E+000  0.000000000000000E+000
  0.000000000000000E+000
   21.2032127660000       0.000000000000000E+000  0.000000000000000E+000
 -0.249409204930000       0.000000000000000E+000  0.000000000000000E+000
  0.000000000000000E+000
   3.76164201780000       0.000000000000000E+000  0.000000000000000E+000
  0.712131197430000       0.000000000000000E+000  0.000000000000000E+000
  0.000000000000000E+000
   1.77359339620000       0.000000000000000E+000  0.000000000000000E+000
  0.000000000000000E+000   1.00000000000000       0.000000000000000E+000
  0.000000000000000E+000
  0.451974136640000       0.000000000000000E+000  0.000000000000000E+000
  0.000000000000000E+000  0.000000000000000E+000   1.00000000000000     
  0.000000000000000E+000
  0.166133770990000       0.000000000000000E+000  0.000000000000000E+000
  0.000000000000000E+000  0.000000000000000E+000  0.000000000000000E+000
   1.00000000000000     
   13    5
   3019.69557230000       2.497104979800000E-003  0.000000000000000E+000
  0.000000000000000E+000  0.000000000000000E+000  0.000000000000000E+000
   715.354811260000       2.041926759600000E-002  0.000000000000000E+000
  0.000000000000000E+000  0.000000000000000E+000  0.000000000000000E+000
   229.983287510000       9.689714830899999E-002  0.000000000000000E+000
  0.000000000000000E+000  0.000000000000000E+000  0.000000000000000E+000
   86.1678446150000       0.280539012520000       0.000000000000000E+000
  0.000000000000000E+000  0.000000000000000E+000  0.000000000000000E+000
   34.6678708020000       0.446063904730000       0.000000000000000E+000
  0.000000000000000E+000  0.000000000000000E+000  0.000000000000000E+000
   14.1138703070000       0.244100739230000       0.000000000000000E+000
  0.000000000000000E+000  0.000000000000000E+000  0.000000000000000E+000
   57.0856530820000       0.000000000000000E+000 -2.185595071000000E-002
  0.000000000000000E+000  0.000000000000000E+000  0.000000000000000E+000
   8.81938458400000       0.000000000000000E+000  0.327070753200000     
  0.000000000000000E+000  0.000000000000000E+000  0.000000000000000E+000
   3.93403028720000       0.000000000000000E+000  0.578552295200000     
  0.000000000000000E+000  0.000000000000000E+000  0.000000000000000E+000
   1.79988303840000       0.000000000000000E+000  0.335709876980000     
  0.000000000000000E+000  0.000000000000000E+000  0.000000000000000E+000
  0.668994105120000       0.000000000000000E+000  0.000000000000000E+000
   1.00000000000000       0.000000000000000E+000  0.000000000000000E+000
  0.271362382310000       0.000000000000000E+000  0.000000000000000E+000
  0.000000000000000E+000   1.00000000000000       0.000000000000000E+000
  0.100837902430000       0.000000000000000E+000  0.000000000000000E+000
  0.000000000000000E+000  0.000000000000000E+000   1.00000000000000     
    8    4
   168.853702570000       8.966398198799999E-003  0.000000000000000E+000
  0.000000000000000E+000  0.000000000000000E+000
   49.9779499190000       6.206205931600000E-002  0.000000000000000E+000
  0.000000000000000E+000  0.000000000000000E+000
   18.2749133380000       0.214747323840000       0.000000000000000E+000
  0.000000000000000E+000  0.000000000000000E+000
   7.24556946310000       0.403353367460000       0.000000000000000E+000
  0.000000000000000E+000  0.000000000000000E+000
   2.85623150250000       0.422088130800000       0.000000000000000E+000
  0.000000000000000E+000  0.000000000000000E+000
   1.04596211440000       0.000000000000000E+000  0.178748132670000     
  0.000000000000000E+000  0.000000000000000E+000
  0.568656550000000       0.000000000000000E+000  0.000000000000000E+000
   1.00000000000000       0.000000000000000E+000
  0.220314900000000       0.000000000000000E+000  0.000000000000000E+000
  0.000000000000000E+000   1.00000000000000     
    1    1
  0.570833120000000        1.00000000000000     
FINISH
                                                                                
********************************************************************************

ONE- AND TWO-ELECTRON INTEGRALS OVER SYMMETRY-ADAPTED AOS ARE CALCULATED.


    BASIS FUNCTION NOT NORMALIZED:
    CENTER (AS ORDERED IN MOL FILE): ?
    ANGULAR MOMENTUM TYPE:           S
    OFFSET WITHIN ANGULAR MOMENTUM:  1
    <CHI|CHI>:                       1.0454795098

    BASIS FUNCTION NOT NORMALIZED:
    CENTER (AS ORDERED IN MOL FILE): ?
    ANGULAR MOMENTUM TYPE:           S
    OFFSET WITHIN ANGULAR MOMENTUM:  2
    <CHI|CHI>:                       1.0569176006

    BASIS FUNCTION NOT NORMALIZED:
    CENTER (AS ORDERED IN MOL FILE): ?
    ANGULAR MOMENTUM TYPE:           S
    OFFSET WITHIN ANGULAR MOMENTUM:  3
    <CHI|CHI>:                       0.3543606425

    BASIS FUNCTION NOT NORMALIZED:
    CENTER (AS ORDERED IN MOL FILE): ?
    ANGULAR MOMENTUM TYPE:           P
    OFFSET WITHIN ANGULAR MOMENTUM:  1
    <CHI|CHI>:                       0.8566885477

    BASIS FUNCTION NOT NORMALIZED:
    CENTER (AS ORDERED IN MOL FILE): ?
    ANGULAR MOMENTUM TYPE:           P
    OFFSET WITHIN ANGULAR MOMENTUM:  2
    <CHI|CHI>:                       1.2839749870

    BASIS FUNCTION NOT NORMALIZED:
    CENTER (AS ORDERED IN MOL FILE): ?
    ANGULAR MOMENTUM TYPE:           D
    OFFSET WITHIN ANGULAR MOMENTUM:  1
    <CHI|CHI>:                       0.8298436536

    BASIS FUNCTION NOT NORMALIZED:
    CENTER (AS ORDERED IN MOL FILE): ?
    ANGULAR MOMENTUM TYPE:           D
    OFFSET WITHIN ANGULAR MOMENTUM:  2
    <CHI|CHI>:                       0.0319508949
CARTESIAN GAUSSIANS ARE USED.

1 TYPES OF ATOMS
3 SYMMETRY OPERATIONS

REFLECTION IN THE YZ-PLANE
REFLECTION IN THE XZ-PLANE
REFLECTION IN THE XY-PLANE

INTEGRALS LESS THAN 1e-14 ARE NEGLECTED.

ATOMIC TYPE NUMBER 1:
---------------------

    NUCLEAR CHARGE:                       35
    NUMBER OF SYMMETRY INDEPENDENT ATOMS: 1
    HIGHEST ORBITAL TYPE:                 F

    1 GROUPS OF CGTOS OF S TYPE
    1 GROUPS OF CGTOS OF P TYPE
    1 GROUPS OF CGTOS OF D TYPE
    1 GROUPS OF CGTOS OF F TYPE

    NUCLEAR COORDINATES (IN A.U.) ARE:

    BR#1   0.000000000000000   0.000000000000000   2.155258345410000

INTERNUCLEAR DISTANCES (A):

    FOR ATOM BR#1 (COORDINATES:   0.00000   0.00000   2.15526)

    BR#1 5 DISTANCE IS   2.28103

GROUP MULTIPLICATION TABLE:

    1 2 3 4 5 6 7 8
    2 1 4 3 6 5 8 7
    3 4 1 2 7 8 5 6
    4 3 2 1 8 7 6 5
    5 6 7 8 1 2 3 4
    6 5 8 7 2 1 4 3
    7 8 5 6 3 4 1 2
    8 7 6 5 4 3 2 1

GAUSSIAN BASIS INFORMATION:

ATOM                EXPONENT       COEFFICIENTS

BR#1  1  S   
                  1  565073.252560   3.3990019   0.0000000   0.0000000   0.0000000   0.0000000   0.0000000
                  2   84701.723179   6.3499180   0.0000000   0.0000000   0.0000000   0.0000000   0.0000000
                  3   19276.271900  10.8859831   0.0000000   0.0000000   0.0000000   0.0000000   0.0000000
                  4    5456.428458  17.2039436   0.0000000   0.0000000   0.0000000   0.0000000   0.0000000
                  5    1776.950350  24.2626565   0.0000000   0.0000000   0.0000000   0.0000000   0.0000000
                  6     639.193983  26.9704461   0.0000000   0.0000000   0.0000000   0.0000000   0.0000000
                  7     248.788240  19.4265778   0.0000000   0.0000000   0.0000000   0.0000000   0.0000000
                  8      98.678305   5.3208567   0.0000000   0.0000000   0.0000000   0.0000000   0.0000000
                  9     606.078246   0.0000000  -2.2463467   0.0000000   0.0000000   0.0000000   0.0000000
                 10     188.455985   0.0000000  -4.4022133   0.0000000   0.0000000   0.0000000   0.0000000
                 11      31.497145   0.0000000   5.2047584   0.0000000   0.0000000   0.0000000   0.0000000
                 12      13.736008   0.0000000   2.7479586   0.0000000   0.0000000   0.0000000   0.0000000
                 13      21.203213   0.0000000   0.0000000  -2.9505371   0.0000000   0.0000000   0.0000000
                 14       3.761642   0.0000000   0.0000000   2.3029285   0.0000000   0.0000000   0.0000000
                 15       1.773593   0.0000000   0.0000000   0.0000000   1.0953443   0.0000000   0.0000000
                 16       0.451974   0.0000000   0.0000000   0.0000000   0.0000000   0.3928668   0.0000000
                 17       0.166134   0.0000000   0.0000000   0.0000000   0.0000000   0.0000000   0.1854614

BR#1  5  S   
                 18  565073.252560   3.3990019   0.0000000   0.0000000   0.0000000   0.0000000   0.0000000
                 19   84701.723179   6.3499180   0.0000000   0.0000000   0.0000000   0.0000000   0.0000000
                 20   19276.271900  10.8859831   0.0000000   0.0000000   0.0000000   0.0000000   0.0000000
                 21    5456.428458  17.2039436   0.0000000   0.0000000   0.0000000   0.0000000   0.0000000
                 22    1776.950350  24.2626565   0.0000000   0.0000000   0.0000000   0.0000000   0.0000000
                 23     639.193983  26.9704461   0.0000000   0.0000000   0.0000000   0.0000000   0.0000000
                 24     248.788240  19.4265778   0.0000000   0.0000000   0.0000000   0.0000000   0.0000000
                 25      98.678305   5.3208567   0.0000000   0.0000000   0.0000000   0.0000000   0.0000000
                 26     606.078246   0.0000000  -2.2463467   0.0000000   0.0000000   0.0000000   0.0000000
                 27     188.455985   0.0000000  -4.4022133   0.0000000   0.0000000   0.0000000   0.0000000
                 28      31.497145   0.0000000   5.2047584   0.0000000   0.0000000   0.0000000   0.0000000
                 29      13.736008   0.0000000   2.7479586   0.0000000   0.0000000   0.0000000   0.0000000
                 30      21.203213   0.0000000   0.0000000  -2.9505371   0.0000000   0.0000000   0.0000000
                 31       3.761642   0.0000000   0.0000000   2.3029285   0.0000000   0.0000000   0.0000000
                 32       1.773593   0.0000000   0.0000000   0.0000000   1.0953443   0.0000000   0.0000000
                 33       0.451974   0.0000000   0.0000000   0.0000000   0.0000000   0.3928668   0.0000000
                 34       0.166134   0.0000000   0.0000000   0.0000000   0.0000000   0.0000000   0.1854614

BR#1  1  X   
                 35    3019.695572  86.0833899   0.0000000   0.0000000   0.0000000   0.0000000
                 36     715.354811 116.3377462   0.0000000   0.0000000   0.0000000   0.0000000
                 37     229.983288 133.6472264   0.0000000   0.0000000   0.0000000   0.0000000
                 38      86.167845 113.4235950   0.0000000   0.0000000   0.0000000   0.0000000
                 39      34.667871  57.7875990   0.0000000   0.0000000   0.0000000   0.0000000
                 40      14.113870  10.2838410   0.0000000   0.0000000   0.0000000   0.0000000
                 41      57.085653   0.0000000  -4.3141002   0.0000000   0.0000000   0.0000000
                 42       8.819385   0.0000000   6.2531863   0.0000000   0.0000000   0.0000000
                 43       3.934030   0.0000000   4.0322881   0.0000000   0.0000000   0.0000000
                 44       1.799883   0.0000000   0.8804025   0.0000000   0.0000000   0.0000000
                 45       0.668994   0.0000000   0.0000000   0.8624183   0.0000000   0.0000000
                 46       0.271362   0.0000000   0.0000000   0.0000000   0.2791754   0.0000000
                 47       0.100838   0.0000000   0.0000000   0.0000000   0.0000000   0.0809972

BR#1  5  X   
                 48    3019.695572  86.0833899   0.0000000   0.0000000   0.0000000   0.0000000
                 49     715.354811 116.3377462   0.0000000   0.0000000   0.0000000   0.0000000
                 50     229.983288 133.6472264   0.0000000   0.0000000   0.0000000   0.0000000
                 51      86.167845 113.4235950   0.0000000   0.0000000   0.0000000   0.0000000
                 52      34.667871  57.7875990   0.0000000   0.0000000   0.0000000   0.0000000
                 53      14.113870  10.2838410   0.0000000   0.0000000   0.0000000   0.0000000
                 54      57.085653   0.0000000  -4.3141002   0.0000000   0.0000000   0.0000000
                 55       8.819385   0.0000000   6.2531863   0.0000000   0.0000000   0.0000000
                 56       3.934030   0.0000000   4.0322881   0.0000000   0.0000000   0.0000000
                 57       1.799883   0.0000000   0.8804025   0.0000000   0.0000000   0.0000000
                 58       0.668994   0.0000000   0.0000000   0.8624183   0.0000000   0.0000000
                 59       0.271362   0.0000000   0.0000000   0.0000000   0.2791754   0.0000000
                 60       0.100838   0.0000000   0.0000000   0.0000000   0.0000000   0.0809972

BR#1  1  Y   
                 61    3019.695572  86.0833899   0.0000000   0.0000000   0.0000000   0.0000000
                 62     715.354811 116.3377462   0.0000000   0.0000000   0.0000000   0.0000000
                 63     229.983288 133.6472264   0.0000000   0.0000000   0.0000000   0.0000000
                 64      86.167845 113.4235950   0.0000000   0.0000000   0.0000000   0.0000000
                 65      34.667871  57.7875990   0.0000000   0.0000000   0.0000000   0.0000000
                 66      14.113870  10.2838410   0.0000000   0.0000000   0.0000000   0.0000000
                 67      57.085653   0.0000000  -4.3141002   0.0000000   0.0000000   0.0000000
                 68       8.819385   0.0000000   6.2531863   0.0000000   0.0000000   0.0000000
                 69       3.934030   0.0000000   4.0322881   0.0000000   0.0000000   0.0000000
                 70       1.799883   0.0000000   0.8804025   0.0000000   0.0000000   0.0000000
                 71       0.668994   0.0000000   0.0000000   0.8624183   0.0000000   0.0000000
                 72       0.271362   0.0000000   0.0000000   0.0000000   0.2791754   0.0000000
                 73       0.100838   0.0000000   0.0000000   0.0000000   0.0000000   0.0809972

BR#1  5  Y   
                 74    3019.695572  86.0833899   0.0000000   0.0000000   0.0000000   0.0000000
                 75     715.354811 116.3377462   0.0000000   0.0000000   0.0000000   0.0000000
                 76     229.983288 133.6472264   0.0000000   0.0000000   0.0000000   0.0000000
                 77      86.167845 113.4235950   0.0000000   0.0000000   0.0000000   0.0000000
                 78      34.667871  57.7875990   0.0000000   0.0000000   0.0000000   0.0000000
                 79      14.113870  10.2838410   0.0000000   0.0000000   0.0000000   0.0000000
                 80      57.085653   0.0000000  -4.3141002   0.0000000   0.0000000   0.0000000
                 81       8.819385   0.0000000   6.2531863   0.0000000   0.0000000   0.0000000
                 82       3.934030   0.0000000   4.0322881   0.0000000   0.0000000   0.0000000
                 83       1.799883   0.0000000   0.8804025   0.0000000   0.0000000   0.0000000
                 84       0.668994   0.0000000   0.0000000   0.8624183   0.0000000   0.0000000
                 85       0.271362   0.0000000   0.0000000   0.0000000   0.2791754   0.0000000
                 86       0.100838   0.0000000   0.0000000   0.0000000   0.0000000   0.0809972

BR#1  1  Z   
                 87    3019.695572  86.0833899   0.0000000   0.0000000   0.0000000   0.0000000
                 88     715.354811 116.3377462   0.0000000   0.0000000   0.0000000   0.0000000
                 89     229.983288 133.6472264   0.0000000   0.0000000   0.0000000   0.0000000
                 90      86.167845 113.4235950   0.0000000   0.0000000   0.0000000   0.0000000
                 91      34.667871  57.7875990   0.0000000   0.0000000   0.0000000   0.0000000
                 92      14.113870  10.2838410   0.0000000   0.0000000   0.0000000   0.0000000
                 93      57.085653   0.0000000  -4.3141002   0.0000000   0.0000000   0.0000000
                 94       8.819385   0.0000000   6.2531863   0.0000000   0.0000000   0.0000000
                 95       3.934030   0.0000000   4.0322881   0.0000000   0.0000000   0.0000000
                 96       1.799883   0.0000000   0.8804025   0.0000000   0.0000000   0.0000000
                 97       0.668994   0.0000000   0.0000000   0.8624183   0.0000000   0.0000000
                 98       0.271362   0.0000000   0.0000000   0.0000000   0.2791754   0.0000000
                 99       0.100838   0.0000000   0.0000000   0.0000000   0.0000000   0.0809972

BR#1  5  Z   
                100    3019.695572  86.0833899   0.0000000   0.0000000   0.0000000   0.0000000
                101     715.354811 116.3377462   0.0000000   0.0000000   0.0000000   0.0000000
                102     229.983288 133.6472264   0.0000000   0.0000000   0.0000000   0.0000000
                103      86.167845 113.4235950   0.0000000   0.0000000   0.0000000   0.0000000
                104      34.667871  57.7875990   0.0000000   0.0000000   0.0000000   0.0000000
                105      14.113870  10.2838410   0.0000000   0.0000000   0.0000000   0.0000000
                106      57.085653   0.0000000  -4.3141002   0.0000000   0.0000000   0.0000000
                107       8.819385   0.0000000   6.2531863   0.0000000   0.0000000   0.0000000
                108       3.934030   0.0000000   4.0322881   0.0000000   0.0000000   0.0000000
                109       1.799883   0.0000000   0.8804025   0.0000000   0.0000000   0.0000000
                110       0.668994   0.0000000   0.0000000   0.8624183   0.0000000   0.0000000
                111       0.271362   0.0000000   0.0000000   0.0000000   0.2791754   0.0000000
                112       0.100838   0.0000000   0.0000000   0.0000000   0.0000000   0.0809972

BR#1  1  XX  
                113     168.853703 221.9389343   0.0000000   0.0000000   0.0000000
                114      49.977950 182.4569424   0.0000000   0.0000000   0.0000000
                115      18.274913 108.5541738   0.0000000   0.0000000   0.0000000
                116       7.245569  40.3909948   0.0000000   0.0000000   0.0000000
                117       2.856232   8.2892177   0.0000000   0.0000000   0.0000000
                118       1.045962   0.0000000   3.0840613   0.0000000   0.0000000
                119       0.568657   0.0000000   0.0000000   1.0615921   0.0000000
                120       0.220315   0.0000000   0.0000000   0.0000000   0.2019746

BR#1  5  XX  
                121     168.853703 221.9389343   0.0000000   0.0000000   0.0000000
                122      49.977950 182.4569424   0.0000000   0.0000000   0.0000000
                123      18.274913 108.5541738   0.0000000   0.0000000   0.0000000
                124       7.245569  40.3909948   0.0000000   0.0000000   0.0000000
                125       2.856232   8.2892177   0.0000000   0.0000000   0.0000000
                126       1.045962   0.0000000   3.0840613   0.0000000   0.0000000
                127       0.568657   0.0000000   0.0000000   1.0615921   0.0000000
                128       0.220315   0.0000000   0.0000000   0.0000000   0.2019746

BR#1  1  XY  
                129     168.853703 221.9389343   0.0000000   0.0000000   0.0000000
                130      49.977950 182.4569424   0.0000000   0.0000000   0.0000000
                131      18.274913 108.5541738   0.0000000   0.0000000   0.0000000
                132       7.245569  40.3909948   0.0000000   0.0000000   0.0000000
                133       2.856232   8.2892177   0.0000000   0.0000000   0.0000000
                134       1.045962   0.0000000   3.0840613   0.0000000   0.0000000
                135       0.568657   0.0000000   0.0000000   1.0615921   0.0000000
                136       0.220315   0.0000000   0.0000000   0.0000000   0.2019746

BR#1  5  XY  
                137     168.853703 221.9389343   0.0000000   0.0000000   0.0000000
                138      49.977950 182.4569424   0.0000000   0.0000000   0.0000000
                139      18.274913 108.5541738   0.0000000   0.0000000   0.0000000
                140       7.245569  40.3909948   0.0000000   0.0000000   0.0000000
                141       2.856232   8.2892177   0.0000000   0.0000000   0.0000000
                142       1.045962   0.0000000   3.0840613   0.0000000   0.0000000
                143       0.568657   0.0000000   0.0000000   1.0615921   0.0000000
                144       0.220315   0.0000000   0.0000000   0.0000000   0.2019746

BR#1  1  XZ  
                145     168.853703 221.9389343   0.0000000   0.0000000   0.0000000
                146      49.977950 182.4569424   0.0000000   0.0000000   0.0000000
                147      18.274913 108.5541738   0.0000000   0.0000000   0.0000000
                148       7.245569  40.3909948   0.0000000   0.0000000   0.0000000
                149       2.856232   8.2892177   0.0000000   0.0000000   0.0000000
                150       1.045962   0.0000000   3.0840613   0.0000000   0.0000000
                151       0.568657   0.0000000   0.0000000   1.0615921   0.0000000
                152       0.220315   0.0000000   0.0000000   0.0000000   0.2019746

BR#1  5  XZ  
                153     168.853703 221.9389343   0.0000000   0.0000000   0.0000000
                154      49.977950 182.4569424   0.0000000   0.0000000   0.0000000
                155      18.274913 108.5541738   0.0000000   0.0000000   0.0000000
                156       7.245569  40.3909948   0.0000000   0.0000000   0.0000000
                157       2.856232   8.2892177   0.0000000   0.0000000   0.0000000
                158       1.045962   0.0000000   3.0840613   0.0000000   0.0000000
                159       0.568657   0.0000000   0.0000000   1.0615921   0.0000000
                160       0.220315   0.0000000   0.0000000   0.0000000   0.2019746

BR#1  1  YY  
                161     168.853703 221.9389343   0.0000000   0.0000000   0.0000000
                162      49.977950 182.4569424   0.0000000   0.0000000   0.0000000
                163      18.274913 108.5541738   0.0000000   0.0000000   0.0000000
                164       7.245569  40.3909948   0.0000000   0.0000000   0.0000000
                165       2.856232   8.2892177   0.0000000   0.0000000   0.0000000
                166       1.045962   0.0000000   3.0840613   0.0000000   0.0000000
                167       0.568657   0.0000000   0.0000000   1.0615921   0.0000000
                168       0.220315   0.0000000   0.0000000   0.0000000   0.2019746

BR#1  5  YY  
                169     168.853703 221.9389343   0.0000000   0.0000000   0.0000000
                170      49.977950 182.4569424   0.0000000   0.0000000   0.0000000
                171      18.274913 108.5541738   0.0000000   0.0000000   0.0000000
                172       7.245569  40.3909948   0.0000000   0.0000000   0.0000000
                173       2.856232   8.2892177   0.0000000   0.0000000   0.0000000
                174       1.045962   0.0000000   3.0840613   0.0000000   0.0000000
                175       0.568657   0.0000000   0.0000000   1.0615921   0.0000000
                176       0.220315   0.0000000   0.0000000   0.0000000   0.2019746

BR#1  1  YZ  
                177     168.853703 221.9389343   0.0000000   0.0000000   0.0000000
                178      49.977950 182.4569424   0.0000000   0.0000000   0.0000000
                179      18.274913 108.5541738   0.0000000   0.0000000   0.0000000
                180       7.245569  40.3909948   0.0000000   0.0000000   0.0000000
                181       2.856232   8.2892177   0.0000000   0.0000000   0.0000000
                182       1.045962   0.0000000   3.0840613   0.0000000   0.0000000
                183       0.568657   0.0000000   0.0000000   1.0615921   0.0000000
                184       0.220315   0.0000000   0.0000000   0.0000000   0.2019746

BR#1  5  YZ  
                185     168.853703 221.9389343   0.0000000   0.0000000   0.0000000
                186      49.977950 182.4569424   0.0000000   0.0000000   0.0000000
                187      18.274913 108.5541738   0.0000000   0.0000000   0.0000000
                188       7.245569  40.3909948   0.0000000   0.0000000   0.0000000
                189       2.856232   8.2892177   0.0000000   0.0000000   0.0000000
                190       1.045962   0.0000000   3.0840613   0.0000000   0.0000000
                191       0.568657   0.0000000   0.0000000   1.0615921   0.0000000
                192       0.220315   0.0000000   0.0000000   0.0000000   0.2019746

BR#1  1  ZZ  
                193     168.853703 221.9389343   0.0000000   0.0000000   0.0000000
                194      49.977950 182.4569424   0.0000000   0.0000000   0.0000000
                195      18.274913 108.5541738   0.0000000   0.0000000   0.0000000
                196       7.245569  40.3909948   0.0000000   0.0000000   0.0000000
                197       2.856232   8.2892177   0.0000000   0.0000000   0.0000000
                198       1.045962   0.0000000   3.0840613   0.0000000   0.0000000
                199       0.568657   0.0000000   0.0000000   1.0615921   0.0000000
                200       0.220315   0.0000000   0.0000000   0.0000000   0.2019746

BR#1  5  ZZ  
                201     168.853703 221.9389343   0.0000000   0.0000000   0.0000000
                202      49.977950 182.4569424   0.0000000   0.0000000   0.0000000
                203      18.274913 108.5541738   0.0000000   0.0000000   0.0000000
                204       7.245569  40.3909948   0.0000000   0.0000000   0.0000000
                205       2.856232   8.2892177   0.0000000   0.0000000   0.0000000
                206       1.045962   0.0000000   3.0840613   0.0000000   0.0000000
                207       0.568657   0.0000000   0.0000000   1.0615921   0.0000000
                208       0.220315   0.0000000   0.0000000   0.0000000   0.2019746

BR#1  1  F300
                209       0.570833   1.6149002

BR#1  5  F300
                210       0.570833   1.6149002

BR#1  1  F210
                211       0.570833   1.6149002

BR#1  5  F210
                212       0.570833   1.6149002

BR#1  1  F201
                213       0.570833   1.6149002

BR#1  5  F201
                214       0.570833   1.6149002

BR#1  1  F120
                215       0.570833   1.6149002

BR#1  5  F120
                216       0.570833   1.6149002

BR#1  1  F111
                217       0.570833   1.6149002

BR#1  5  F111
                218       0.570833   1.6149002

BR#1  1  F102
                219       0.570833   1.6149002

BR#1  5  F102
                220       0.570833   1.6149002

BR#1  1  F030
                221       0.570833   1.6149002

BR#1  5  F030
                222       0.570833   1.6149002

BR#1  1  F021
                223       0.570833   1.6149002

BR#1  5  F021
                224       0.570833   1.6149002

BR#1  1  F012
                225       0.570833   1.6149002

BR#1  5  F012
                226       0.570833   1.6149002

BR#1  1  F003
                227       0.570833   1.6149002

BR#1  5  F003
                228       0.570833   1.6149002

SYMMETRY TRANSFORMATION INTO 96 SYMMETRY-ADAPTED BASIS FUNCTIONS

    IRREDUCIBLE REPRESENTATION NUMBER 1

    1    1 BR#1 S      1   1.0   2   1.0
    2    2 BR#1 S      3   1.0   4   1.0
    3    3 BR#1 S      5   1.0   6   1.0
    4    4 BR#1 S      7   1.0   8   1.0
    5    5 BR#1 S      9   1.0  10   1.0
    6    6 BR#1 S     11   1.0  12   1.0
    7    7 BR#1 Z     33   1.0  34  -1.0
    8    8 BR#1 Z     35   1.0  36  -1.0
    9    9 BR#1 Z     37   1.0  38  -1.0
   10   10 BR#1 Z     39   1.0  40  -1.0
   11   11 BR#1 Z     41   1.0  42  -1.0
   12   12 BR#1 XX    43  -1.0  44  -1.0  67  -1.0  68  -1.0  83   2.0  84   2.0
   13   13 BR#1 XX    45  -1.0  46  -1.0  69  -1.0  70  -1.0  85   2.0  86   2.0
   14   14 BR#1 XX    47  -1.0  48  -1.0  71  -1.0  72  -1.0  87   2.0  88   2.0
   15   15 BR#1 XX    49  -1.0  50  -1.0  73  -1.0  74  -1.0  89   2.0  90   2.0
   16   16 BR#1 YY    43   1.0  44   1.0  67  -1.0  68  -1.0
   17   17 BR#1 YY    45   1.0  46   1.0  69  -1.0  70  -1.0
   18   18 BR#1 YY    47   1.0  48   1.0  71  -1.0  72  -1.0
   19   19 BR#1 YY    49   1.0  50   1.0  73  -1.0  74  -1.0
   20   20 BR#1 ZZ    95  -3.0  96   3.0 105  -3.0 106   3.0 109   2.0 110  -2.0
   21   21 BR#1 ZZ    95   1.0  96  -1.0 105  -1.0 106   1.0
   22   22 BR#1 ZZ    13   1.0  14   1.0
   23   23 BR#1 ZZ    15   1.0  16   1.0
   24   24 BR#1 F201  17   1.0  18   1.0
   25   25 BR#1 F021  19   1.0  20   1.0
   26   26 BR#1 F003  21   1.0  22   1.0

    IRREDUCIBLE REPRESENTATION NUMBER 2

   27    1 BR#1 X     59   1.0  60  -1.0
   28    2 BR#1 X     61   1.0  62  -1.0
   29    3 BR#1 X     63   1.0  64  -1.0
   30    4 BR#1 X     65   1.0  66  -1.0
   31    5 BR#1 X     91  -1.0  92  -1.0  97  -1.0  98  -1.0 101   4.0 102   4.0
   32    6 BR#1 XZ    91   1.0  92   1.0  97  -3.0  98  -3.0
   33    7 BR#1 XZ    23   1.0  24   1.0
   34    8 BR#1 XZ    25   1.0  26   1.0
   35    9 BR#1 XZ    27   1.0  28   1.0
   36   10 BR#1 F300  29   1.0  30   1.0
   37   11 BR#1 F120  31   1.0  32   1.0
   38   12 BR#1 F102  75   1.0  76  -1.0

    IRREDUCIBLE REPRESENTATION NUMBER 3

   39    1 BR#1 Y     77   1.0  78  -1.0
   40    2 BR#1 Y     79   1.0  80  -1.0
   41    3 BR#1 Y     81   1.0  82  -1.0
   42    4 BR#1 Y     93  -1.0  94  -1.0 103  -1.0 104  -1.0 107   4.0 108   4.0
   43    5 BR#1 Y     93   3.0  94   3.0 103  -1.0 104  -1.0
   44    6 BR#1 YZ    51   1.0  52   1.0
   45    7 BR#1 YZ    53   1.0  54   1.0
   46    8 BR#1 YZ    55   1.0  56   1.0
   47    9 BR#1 YZ    57   1.0  58   1.0
   48   10 BR#1 F210  99   1.0 100  -1.0
   49   11 BR#1 F030   1   1.0   2  -1.0
   50   12 BR#1 F012   3   1.0   4  -1.0

    IRREDUCIBLE REPRESENTATION NUMBER 4

   51    1 BR#1 XY     5   1.0   6  -1.0
   52    2 BR#1 XY     7   1.0   8  -1.0
   53    3 BR#1 XY     9   1.0  10  -1.0
   54    4 BR#1 XY    11   1.0  12  -1.0
   55    5 BR#1 F111  33   1.0  34   1.0

    IRREDUCIBLE REPRESENTATION NUMBER 5

   56    1 BR#1 S     35   1.0  36   1.0
   57    2 BR#1 S     37   1.0  38   1.0
   58    3 BR#1 S     39   1.0  40   1.0
   59    4 BR#1 S     41   1.0  42   1.0
   60    5 BR#1 S     43  -1.0  44   1.0  67  -1.0  68   1.0  83   2.0  84  -2.0
   61    6 BR#1 S     45  -1.0  46   1.0  69  -1.0  70   1.0  85   2.0  86  -2.0
   62    7 BR#1 Z     47  -1.0  48   1.0  71  -1.0  72   1.0  87   2.0  88  -2.0
   63    8 BR#1 Z     49  -1.0  50   1.0  73  -1.0  74   1.0  89   2.0  90  -2.0
   64    9 BR#1 Z     43   1.0  44  -1.0  67  -1.0  68   1.0
   65   10 BR#1 Z     45   1.0  46  -1.0  69  -1.0  70   1.0
   66   11 BR#1 Z     47   1.0  48  -1.0  71  -1.0  72   1.0
   67   12 BR#1 XX    49   1.0  50  -1.0  73  -1.0  74   1.0
   68   13 BR#1 XX    95  -3.0  96  -3.0 105  -3.0 106  -3.0 109   2.0 110   2.0
   69   14 BR#1 XX    95   1.0  96   1.0 105  -1.0 106  -1.0
   70   15 BR#1 XX    13   1.0  14  -1.0
   71   16 BR#1 YY    15   1.0  16  -1.0
   72   17 BR#1 YY    17   1.0  18  -1.0
   73   18 BR#1 YY    19   1.0  20  -1.0
   74   19 BR#1 YY    21   1.0  22  -1.0
   75   20 BR#1 ZZ    59   1.0  60   1.0
   76   21 BR#1 ZZ    61   1.0  62   1.0
   77   22 BR#1 ZZ    63   1.0  64   1.0
   78   23 BR#1 ZZ    65   1.0  66   1.0
   79   24 BR#1 F201  91  -1.0  92   1.0  97  -1.0  98   1.0 101   4.0 102  -4.0
   80   25 BR#1 F021  91   1.0  92  -1.0  97  -3.0  98   3.0
   81   26 BR#1 F003  23   1.0  24  -1.0

    IRREDUCIBLE REPRESENTATION NUMBER 6

   82    1 BR#1 X     25   1.0  26  -1.0
   83    2 BR#1 X     27   1.0  28  -1.0
   84    3 BR#1 X     29   1.0  30  -1.0
   85    4 BR#1 X     31   1.0  32  -1.0
   86    5 BR#1 X     75   1.0  76   1.0
   87    6 BR#1 XZ    77   1.0  78   1.0
   88    7 BR#1 XZ    79   1.0  80   1.0
   89    8 BR#1 XZ    81   1.0  82   1.0
   90    9 BR#1 XZ    93  -1.0  94   1.0 103  -1.0 104   1.0 107   4.0 108  -4.0
   91   10 BR#1 F300  93   3.0  94  -3.0 103  -1.0 104   1.0
   92   11 BR#1 F120  51   1.0  52  -1.0
   93   12 BR#1 F102  53   1.0  54  -1.0

    IRREDUCIBLE REPRESENTATION NUMBER 7

   94    1 BR#1 Y     55   1.0  56  -1.0
   95    2 BR#1 Y     57   1.0  58  -1.0
   96    3 BR#1 Y     99   1.0 100   1.0
   97    4 BR#1 Y   
   98    5 BR#1 Y   
   99    6 BR#1 YZ  
  100    7 BR#1 YZ  
  101    8 BR#1 YZ  
  102    9 BR#1 YZ  
  103   10 BR#1 F210
  104   11 BR#1 F030
  105   12 BR#1 F012

    IRREDUCIBLE REPRESENTATION NUMBER 8

  106    1 BR#1 XY  
  107    2 BR#1 XY  
  108    3 BR#1 XY  
  109    4 BR#1 XY  
  110    5 BR#1 F111

NUCLEAR REPULSION ENERGY:  284.1886687526 A.U.

One-electron integrals took 0.013583 seconds

  @TWOEL-I,      38488 INTEGRALS OF SYMMETRY TYPE  I I I I
  @TWOEL-I,     316464 INTEGRALS OF SYMMETRY TYPE  I J I J
  @TWOEL-I,     183039 INTEGRALS OF SYMMETRY TYPE  I I J J
  @TWOEL-I,     654058 INTEGRALS OF SYMMETRY TYPE  I J K L
  @TWOEL-I, TOTAL NUMBER OF 2-E INTEGRALS    1192049

Two-electron integrals took 17.994332 seconds

Nuclear repulsion energy: 284.188668752600
--executable xvmol finished with status     0 in       19.14 seconds (walltime).
 --invoking executable--
/project1/nike/cfour_v2.00beta_May2019xnmol_noLABBASIS/bin/xvmol2ja
--executable xvmol2ja finished with status     0 in        0.05 seconds (walltime).
 --invoking executable--
/project1/nike/cfour_v2.00beta_May2019xnmol_noLABBASIS/bin/xvscf
  There are   96 functions in the AO basis.

  There are 8 irreducible representations.

       Irrep        # of functions
         1                 21
         2                 11
         3                 11
         4                  5
         5                 21
         6                 11
         7                 11
         8                  5


  Parameters for SCF calculation: 
        SCF reference function: ROHF  
  Maximum number of iterations: 9999
     Full symmetry point group: DXh 
     Computational point group: D2h 
        Initial density matrix: CORE                   
     SCF convergence tolerance: 10**(-13)
  DIIS convergence acceleration:  ON
          Latest start for DIIS:   5
                     DIIS order:   6

  Memory information:     430162 words required.
  Fock matrices are constructed from AO integral file.
 @GETMEM-I,  Allocated       3 MB of main memory.
  Initialization and symmetry analysis required      0.003 seconds.

  @INITGES-I, Occupancies from core Hamiltonian:

          Alpha population by irrep:   9    4    3    1    9    4    4    1
           Beta population by irrep:   9    3    3    1    9    4    4    1


 total no. of electrons in initial guess :  0.000000000000000E+000
 total no. of electrons in initial guess :  0.000000000000000E+000
  --------------------------------------------------------------------
  Iteration         Total Energy            Largest Density Difference
  --------------------------------------------------------------------
       0           284.188668752600336              0.0000000000D+00
   current occupation vector 
     9  4  3  1  9  4  4  1
     9  3  3  1  9  4  4  1
  processed                  38488  ao basis integrals from 
                    65  buffers.
  processed                 183039  ao basis integrals from 
                   306  buffers.
  processed                 316464  ao basis integrals from 
                   528  buffers.
       1         -5066.950941527778014              0.5122324849D+01
   current occupation vector 
     9  4  3  1  9  4  4  1
     9  3  3  1  9  4  4  1
  processed                  38488  ao basis integrals from 
                    65  buffers.
  processed                 183039  ao basis integrals from 
                   306  buffers.
  processed                 316464  ao basis integrals from 
                   528  buffers.
       2         -4970.498234234622032              0.4877242655D+01
   current occupation vector 
     9  4  4  1  9  3  4  1
     9  4  4  1  9  3  3  1
  processed                  38488  ao basis integrals from 
                    65  buffers.
  processed                 183039  ao basis integrals from 
                   306  buffers.
  processed                 316464  ao basis integrals from 
                   528  buffers.
       3         -5112.287078373982695              0.3550986807D+01
   current occupation vector 
     9  4  4  1  8  4  4  1
     9  4  4  1  8  4  3  1
  processed                  38488  ao basis integrals from 
                    65  buffers.
  processed                 183039  ao basis integrals from 
                   306  buffers.
  processed                 316464  ao basis integrals from 
                   528  buffers.
       4         -5121.306529551501626              0.2653464907D+01
   current occupation vector 
     8  4  4  1  9  4  4  1
     8  4  4  1  8  4  4  1
 
 sum over diagonal and offdiagdiagonal of C(T)*S*C for irrep
                     1
  3.730349362740526E-014  4.513322841793888E-015
 reorthoganalization of MOs is carried out
 sum over diagonal and offdiagdiagonal of C(T)*S*C for irrep
                     1
 -3.330669073875470E-015 -1.095817760364409E-015
 
 sum over diagonal and offdiagdiagonal of C(T)*S*C for irrep
                     2
  5.273559366969494E-014  1.023653413016329E-013
 reorthoganalization of MOs is carried out
 sum over diagonal and offdiagdiagonal of C(T)*S*C for irrep
                     2
 -1.221245327087672E-015 -4.295784331854516E-016
 
 sum over diagonal and offdiagdiagonal of C(T)*S*C for irrep
                     3
  4.451994328746878E-014  1.203891560414194E-013
 reorthoganalization of MOs is carried out
 sum over diagonal and offdiagdiagonal of C(T)*S*C for irrep
                     3
  5.551115123125783E-016 -2.301225772087476E-016
 
 sum over diagonal and offdiagdiagonal of C(T)*S*C for irrep
                     4
  9.769962616701378E-015 -5.160497409169990E-015
 reorthoganalization of MOs is carried out
 sum over diagonal and offdiagdiagonal of C(T)*S*C for irrep
                     4
 -1.332267629550188E-015  1.036646354694859E-015
 
 sum over diagonal and offdiagdiagonal of C(T)*S*C for irrep
                     5
  8.482103908136196E-014  3.652333244461546E-014
 reorthoganalization of MOs is carried out
 sum over diagonal and offdiagdiagonal of C(T)*S*C for irrep
                     5
 -7.660538869913580E-015  6.704498021589426E-015
 
 sum over diagonal and offdiagdiagonal of C(T)*S*C for irrep
                     6
  5.939693181744587E-014 -1.101541029914266E-014
 reorthoganalization of MOs is carried out
 sum over diagonal and offdiagdiagonal of C(T)*S*C for irrep
                     6
 -3.885780586188048E-015  5.024491352517647E-015
 
 sum over diagonal and offdiagdiagonal of C(T)*S*C for irrep
                     7
  6.417089082333405E-014  4.034435923953625E-015
 reorthoganalization of MOs is carried out
 sum over diagonal and offdiagdiagonal of C(T)*S*C for irrep
                     7
  1.665334536937735E-015  1.229310873439387E-015
 
 sum over diagonal and offdiagdiagonal of C(T)*S*C for irrep
                     8
  1.931788062847772E-014  2.600594435978043E-015
 reorthoganalization of MOs is carried out
 sum over diagonal and offdiagdiagonal of C(T)*S*C for irrep
                     8
 -4.440892098500626E-016  1.296705798292663E-015
  processed                  38488  ao basis integrals from 
                    65  buffers.
  processed                 183039  ao basis integrals from 
                   306  buffers.
  processed                 316464  ao basis integrals from 
                   528  buffers.
       5         -5137.320587946948763              0.2657830846D+01
   current occupation vector 
     9  4  4  1  8  4  4  1
     9  4  4  1  8  4  3  1
  processed                  38488  ao basis integrals from 
                    65  buffers.
  processed                 183039  ao basis integrals from 
                   306  buffers.
  processed                 316464  ao basis integrals from 
                   528  buffers.
       6         -5144.342533926534088              0.4095240711D+00
   current occupation vector 
     9  4  4  1  8  4  4  1
     9  4  4  1  8  4  3  1
  processed                  38488  ao basis integrals from 
                    65  buffers.
  processed                 183039  ao basis integrals from 
                   306  buffers.
  processed                 316464  ao basis integrals from 
                   528  buffers.
       7         -5144.433200159068292              0.4924246881D-01
   current occupation vector 
     9  4  4  1  8  4  4  1
     9  4  4  1  8  4  3  1
  processed                  38488  ao basis integrals from 
                    65  buffers.
  processed                 183039  ao basis integrals from 
                   306  buffers.
  processed                 316464  ao basis integrals from 
                   528  buffers.
       8         -5144.437009530022806              0.8670905343D-02
   current occupation vector 
     9  4  4  1  8  4  4  1
     9  4  4  1  8  4  3  1
  processed                  38488  ao basis integrals from 
                    65  buffers.
  processed                 183039  ao basis integrals from 
                   306  buffers.
  processed                 316464  ao basis integrals from 
                   528  buffers.
       9         -5144.437195109008826              0.1347737461D-02
   current occupation vector 
     9  4  4  1  8  4  4  1
     9  4  4  1  8  4  3  1
 
 sum over diagonal and offdiagdiagonal of C(T)*S*C for irrep
                     1
  1.243449787580175E-014  1.914512587967121E-014
 reorthoganalization of MOs is carried out
 sum over diagonal and offdiagdiagonal of C(T)*S*C for irrep
                     1
  1.998401444325282E-015  9.890434524518895E-016
 
 sum over diagonal and offdiagdiagonal of C(T)*S*C for irrep
                     2
  1.454392162258955E-014 -3.762739797107563E-015
 reorthoganalization of MOs is carried out
 sum over diagonal and offdiagdiagonal of C(T)*S*C for irrep
                     2
 -2.220446049250313E-016  3.250942769062699E-015
 
 sum over diagonal and offdiagdiagonal of C(T)*S*C for irrep
                     3
  1.287858708565182E-014 -4.198893479972271E-015
 reorthoganalization of MOs is carried out
 sum over diagonal and offdiagdiagonal of C(T)*S*C for irrep
                     3
 -6.661338147750939E-016 -4.211998723952719E-017
 
 sum over diagonal and offdiagdiagonal of C(T)*S*C for irrep
                     4
  1.998401444325282E-015 -2.100410045679591E-015
 reorthoganalization of MOs is carried out
 sum over diagonal and offdiagdiagonal of C(T)*S*C for irrep
                     4
 -1.554312234475219E-015  8.759991447097925E-016
 
 sum over diagonal and offdiagdiagonal of C(T)*S*C for irrep
                     5
  8.548717289613705E-015  8.743763368462471E-015
 reorthoganalization of MOs is carried out
 sum over diagonal and offdiagdiagonal of C(T)*S*C for irrep
                     5
 -9.658940314238862E-015  2.604040151765914E-015
 
 sum over diagonal and offdiagdiagonal of C(T)*S*C for irrep
                     6
  1.498801083243961E-014 -8.641592720974961E-015
 reorthoganalization of MOs is carried out
 sum over diagonal and offdiagdiagonal of C(T)*S*C for irrep
                     6
  2.109423746787797E-015  7.775719256157740E-016
 
 sum over diagonal and offdiagdiagonal of C(T)*S*C for irrep
                     7
 -1.820765760385257E-014 -4.997549183208701E-015
 reorthoganalization of MOs is carried out
 sum over diagonal and offdiagdiagonal of C(T)*S*C for irrep
                     7
  2.220446049250313E-016 -2.671593953717802E-015
 
 sum over diagonal and offdiagdiagonal of C(T)*S*C for irrep
                     8
 -2.220446049250313E-015 -8.004173360351072E-016
 reorthoganalization of MOs is carried out
 sum over diagonal and offdiagdiagonal of C(T)*S*C for irrep
                     8
  6.661338147750939E-016 -1.615404485795936E-015
  processed                  38488  ao basis integrals from 
                    65  buffers.
  processed                 183039  ao basis integrals from 
                   306  buffers.
  processed                 316464  ao basis integrals from 
                   528  buffers.
      10         -5144.437203157482145              0.5023816057D-03
   current occupation vector 
     9  4  4  1  8  4  4  1
     9  4  4  1  8  4  3  1
  processed                  38488  ao basis integrals from 
                    65  buffers.
  processed                 183039  ao basis integrals from 
                   306  buffers.
  processed                 316464  ao basis integrals from 
                   528  buffers.
      11         -5144.437203236694586              0.5811244351D-04
   current occupation vector 
     9  4  4  1  8  4  4  1
     9  4  4  1  8  4  3  1
  processed                  38488  ao basis integrals from 
                    65  buffers.
  processed                 183039  ao basis integrals from 
                   306  buffers.
  processed                 316464  ao basis integrals from 
                   528  buffers.
      12         -5144.437203238925576              0.5846040702D-05
   current occupation vector 
     9  4  4  1  8  4  4  1
     9  4  4  1  8  4  3  1
  processed                  38488  ao basis integrals from 
                    65  buffers.
  processed                 183039  ao basis integrals from 
                   306  buffers.
  processed                 316464  ao basis integrals from 
                   528  buffers.
      13         -5144.437203239066548              0.1622870515D-05
   current occupation vector 
     9  4  4  1  8  4  4  1
     9  4  4  1  8  4  3  1
  processed                  38488  ao basis integrals from 
                    65  buffers.
  processed                 183039  ao basis integrals from 
                   306  buffers.
  processed                 316464  ao basis integrals from 
                   528  buffers.
      14         -5144.437203239055634              0.1256460571D-06
   current occupation vector 
     9  4  4  1  8  4  4  1
     9  4  4  1  8  4  3  1
 
 sum over diagonal and offdiagdiagonal of C(T)*S*C for irrep
                     1
  6.450395773072159E-014 -2.221622379457190E-014
 reorthoganalization of MOs is carried out
 sum over diagonal and offdiagdiagonal of C(T)*S*C for irrep
                     1
 -8.881784197001252E-016  2.477329621295170E-015
 
 sum over diagonal and offdiagdiagonal of C(T)*S*C for irrep
                     2
  3.508304757815495E-014 -3.046254046277486E-015
 reorthoganalization of MOs is carried out
 sum over diagonal and offdiagdiagonal of C(T)*S*C for irrep
                     2
 -2.220446049250313E-016  1.556308117960357E-015
 
 sum over diagonal and offdiagdiagonal of C(T)*S*C for irrep
                     3
 -3.508304757815495E-014  8.860263505427710E-015
 reorthoganalization of MOs is carried out
 sum over diagonal and offdiagdiagonal of C(T)*S*C for irrep
                     3
  2.664535259100376E-015 -3.636534006250205E-016
 
 sum over diagonal and offdiagdiagonal of C(T)*S*C for irrep
                     4
  5.440092820663267E-015  1.071402339982189E-015
 reorthoganalization of MOs is carried out
 sum over diagonal and offdiagdiagonal of C(T)*S*C for irrep
                     4
 -1.887379141862766E-015  9.539394636865481E-016
 
 sum over diagonal and offdiagdiagonal of C(T)*S*C for irrep
                     5
  2.819966482547898E-014  1.152245816111381E-014
 reorthoganalization of MOs is carried out
 sum over diagonal and offdiagdiagonal of C(T)*S*C for irrep
                     5
  8.215650382226158E-015 -8.078507521831315E-015
 
 sum over diagonal and offdiagdiagonal of C(T)*S*C for irrep
                     6
  3.641531520770513E-014  2.997133620699279E-015
 reorthoganalization of MOs is carried out
 sum over diagonal and offdiagdiagonal of C(T)*S*C for irrep
                     6
  1.332267629550188E-015 -2.437612995038085E-016
 
 sum over diagonal and offdiagdiagonal of C(T)*S*C for irrep
                     7
 -4.662936703425657E-015 -8.253041505184521E-015
 reorthoganalization of MOs is carried out
 sum over diagonal and offdiagdiagonal of C(T)*S*C for irrep
                     7
 -1.110223024625157E-015 -1.055813404890357E-015
 
 sum over diagonal and offdiagdiagonal of C(T)*S*C for irrep
                     8
 -5.995204332975845E-015 -5.660526368922621E-016
 reorthoganalization of MOs is carried out
 sum over diagonal and offdiagdiagonal of C(T)*S*C for irrep
                     8
 -7.771561172376096E-016  5.508865119716738E-016
  processed                  38488  ao basis integrals from 
                    65  buffers.
  processed                 183039  ao basis integrals from 
                   306  buffers.
  processed                 316464  ao basis integrals from 
                   528  buffers.
      15         -5144.437203239062910              0.3134074714D-07
   current occupation vector 
     9  4  4  1  8  4  4  1
     9  4  4  1  8  4  3  1
  processed                  38488  ao basis integrals from 
                    65  buffers.
  processed                 183039  ao basis integrals from 
                   306  buffers.
  processed                 316464  ao basis integrals from 
                   528  buffers.
      16         -5144.437203239051996              0.3231356460D-08
   current occupation vector 
     9  4  4  1  8  4  4  1
     9  4  4  1  8  4  3  1
  processed                  38488  ao basis integrals from 
                    65  buffers.
  processed                 183039  ao basis integrals from 
                   306  buffers.
  processed                 316464  ao basis integrals from 
                   528  buffers.
      17         -5144.437203239048358              0.7006585867D-09
   current occupation vector 
     9  4  4  1  8  4  4  1
     9  4  4  1  8  4  3  1
  processed                  38488  ao basis integrals from 
                    65  buffers.
  processed                 183039  ao basis integrals from 
                   306  buffers.
  processed                 316464  ao basis integrals from 
                   528  buffers.
      18         -5144.437203239060182              0.6435566663D-10
   current occupation vector 
     9  4  4  1  8  4  4  1
     9  4  4  1  8  4  3  1
  processed                  38488  ao basis integrals from 
                    65  buffers.
  processed                 183039  ao basis integrals from 
                   306  buffers.
  processed                 316464  ao basis integrals from 
                   528  buffers.
      19         -5144.437203239062001              0.1786965020D-10
   current occupation vector 
     9  4  4  1  8  4  4  1
     9  4  4  1  8  4  3  1
 
 sum over diagonal and offdiagdiagonal of C(T)*S*C for irrep
                     1
  4.973799150320701E-014  2.565541896625450E-014
 reorthoganalization of MOs is carried out
 sum over diagonal and offdiagdiagonal of C(T)*S*C for irrep
                     1
  1.887379141862766E-015  2.253709756449272E-015
 
 sum over diagonal and offdiagdiagonal of C(T)*S*C for irrep
                     2
  3.741451592986778E-014  6.392539782838137E-015
 reorthoganalization of MOs is carried out
 sum over diagonal and offdiagdiagonal of C(T)*S*C for irrep
                     2
  5.551115123125783E-016 -4.991649535277275E-016
 
 sum over diagonal and offdiagdiagonal of C(T)*S*C for irrep
                     3
  2.498001805406602E-014 -4.866498601049931E-015
 reorthoganalization of MOs is carried out
 sum over diagonal and offdiagdiagonal of C(T)*S*C for irrep
                     3
  1.110223024625157E-016  2.192309520165991E-015
 
 sum over diagonal and offdiagdiagonal of C(T)*S*C for irrep
                     4
 -7.771561172376096E-016 -4.776222966137506E-015
 reorthoganalization of MOs is carried out
 sum over diagonal and offdiagdiagonal of C(T)*S*C for irrep
                     4
  7.771561172376096E-016 -1.470566722254897E-016
 
 sum over diagonal and offdiagdiagonal of C(T)*S*C for irrep
                     5
  5.873079800267078E-014  1.659365921803125E-014
[...]
   The AA contribution to the correlation energy is:   -0.0391530 a.u.
   The BB contribution to the correlation energy is:   -0.0384038 a.u.
   The AB contribution to the correlation energy is:   -0.2674715 a.u.
   The total correlation energy is -0.345028211558 a.u.
   The total correlation energy is -0.345028211558 a.u.
  Current DIIS expansion coefficients : 
 [   1]-0.0765239628 [   2] 1.1999762977 [   3]-0.0018853889 [   4] 0.0306991214
 [   5]-0.1522660673
  Convergence information after    17 iterations: 
  Largest element of residual vector : -0.16931920E-08.
  Largest element of DIIS residual   : -0.95577195E-09.
  W(mnij) AA contribution =  0.0050568200 a.u.
  W(mnij) BB contribution =  0.0062698648 a.u.
  W(mnij) AB contribution =  0.0596673002 a.u.
  W(abef) AA contribution =  0.0069475528 a.u.
  W(abef) BB contribution =  0.0084319597 a.u.
  W(abef) AB contribution =  0.0793583347 a.u.
  W(mbej) AA contribution =  -0.0125382588 a.u.
  W(mbej) BB contribution =  -0.0161120072 a.u.
  W(mbej) AB contribution = -0.2009888578 a.u.
   After  18 iterations, amplitude changes are:
    -------------------------------------------------------------------
                 Spin      RMS          Max.      Max. change for
     Amplitude   Case     Change       Change       i    j    a    b
    -------------------------------------------------------------------
        T1        AA    0.0000000000-0.0000000001    5        38
        T1        BB    0.0000000000-0.0000000003    5        37
        T2        AA    0.0000000000-0.0000000001    6    2   38   20
        T2        BB    0.0000000000 0.0000000002    4    2   57   37
        T2        AB    0.0000000000-0.0000000006    6    6   38   37
    -------------------------------------------------------------------
   The AA contribution to the correlation energy is:   -0.0391530 a.u.
   The BB contribution to the correlation energy is:   -0.0384038 a.u.
   The AB contribution to the correlation energy is:   -0.2674715 a.u.
   The total correlation energy is -0.345028211604 a.u.
   The total correlation energy is -0.345028211604 a.u.
  Current DIIS expansion coefficients : 
 [   1]-0.0700192874 [   2]-0.2285923917 [   3] 1.2717749810 [   4] 0.0013995734
 [   5] 0.0254371248
  Convergence information after    18 iterations: 
  Largest element of residual vector : -0.64493683E-09.
  Largest element of DIIS residual   : -0.49297878E-09.
  Amplitude equations converged in    18iterations.
   The AA contribution to the correlation energy is:   -0.0391530 a.u.
   The BB contribution to the correlation energy is:   -0.0384038 a.u.
   The AB contribution to the correlation energy is:   -0.2674715 a.u.
   The total correlation energy is -0.345028211599 a.u.
   The total correlation energy is -0.345028211599 a.u.
   The CC iterations have converged.

            ----------------------------------------------
                     Projected spin multiplicities: 
            ----------------------------------------------
             <0|S^2|0>                  =    0.7500000000.
             <0|S^2 (T2+T1**2) |0>      =    0.0000000000.
             <0|S^2 T1|0>               =    0.0000000000.
             Projected <0|S^2 exp(T)|0> =    0.7500000000.
             Approximate spin mult.     =    2.0000000000.
            ----------------------------------------------
   Largest T1 amplitudes for spin case AA:
   i       a                 i       a                 i       a    
-----------------------------------------------------------------------------
[  4      28    ] 0.02797 [  5      38    ] 0.02175 [  4      27    ]-0.01789
[  5      40    ]-0.01617 [  2      11    ]-0.01274 [  1       9    ]-0.00978
[  2      10    ] 0.00965 [  3      20    ]-0.00962 [  1      11    ] 0.00892
[  2       9    ]-0.00845 [  5      43    ]-0.00729 [  4      29    ] 0.00666
[  1      13    ]-0.00648 [  6      54    ]-0.00596 [  4      32    ] 0.00589
-----------------------------------------------------------------------------
   Norm of T1AA vector (       65 symmetry allowed elements):  0.0547614646.
-----------------------------------------------------------------------------
   Largest T2 amplitudes for spin case AA:
   i   j   a   b             i   j   a   b             i   j   a   b
-----------------------------------------------------------------------------
[  7   2  38  27] 0.02301 [  6   2  38  20]-0.02210 [  4   3  34   9]-0.02077
[  7   6  65  40]-0.01968 [  6   2  38  21]-0.01773 [  7   3  65   9]-0.01695
[  6   4  40  34]-0.01675 [  7   3  40  34] 0.01658 [  4   2  27   8] 0.01640
[  6   4  65   9] 0.01624 [  7   6  34   9]-0.01479 [  3   2  20   8]-0.01409
[  5   2  38  11]-0.01388 [  7   2  38  28]-0.01368 [  5   4  38  27]-0.01294
-----------------------------------------------------------------------------
   Norm of T2AA vector (     4884 symmetry allowed elements):  0.1197023552.
-----------------------------------------------------------------------------
   Largest T1 amplitudes for spin case BB:
   i       a                 i       a                 i       a    
-----------------------------------------------------------------------------
[  4      27    ]-0.02107 [  2      10    ]-0.01540 [  5      40    ] 0.01370
[  3      19    ]-0.01278 [  2       9    ] 0.01161 [  2       7    ] 0.01075
[  3      20    ]-0.01035 [  4      26    ] 0.01010 [  5      37    ] 0.00962
[  5      39    ] 0.00893 [  1       8    ] 0.00743 [  4      28    ]-0.00736
[  5      43    ] 0.00704 [  2      14    ] 0.00638 [  1       7    ] 0.00634
-----------------------------------------------------------------------------
   Norm of T1BB vector (       58 symmetry allowed elements):  0.0459963641.
-----------------------------------------------------------------------------
   Largest T2 amplitudes for spin case BB:
   i   j   a   b             i   j   a   b             i   j   a   b
-----------------------------------------------------------------------------
[  4   2  57  37] 0.08191 [  6   4  57  20] 0.02679 [  6   2  37  19]-0.02209
[  4   3  33   8]-0.02120 [  4   2  57  38]-0.02117 [  6   4  57  19] 0.02075
[  6   2  37  20]-0.01968 [  6   4  65   8] 0.01642 [  6   4  39  33]-0.01634
[  3   2  19   7]-0.01518 [  5   2  37  10]-0.01457 [  4   2  26   7] 0.01312
[  4   2  58  37] 0.01288 [  5   4  37  26]-0.01285 [  5   4  57   8] 0.01277
-----------------------------------------------------------------------------
   Norm of T2BB vector (     3629 symmetry allowed elements):  0.1406667769.
-----------------------------------------------------------------------------
   Largest T2 amplitudes for spin case AB:
       _       _                 _       _                 _       _
   i   j   a   b             i   j   a   b             i   j   a   b
-----------------------------------------------------------------------------
[  2   4  38  57] 0.10041 [  2   2  38  37]-0.09790 [  7   4  28  57]-0.03813
[  6   6  38  37]-0.03273 [  4   4  38  37]-0.03136 [  7   4  27  57] 0.03118
[  6   4  21  57]-0.02983 [  2   2  38  38] 0.02849 [  2   2  39  37] 0.02679
[  5   5  38  37]-0.02590 [  2   5  27  57] 0.02584 [  7   5  40  57] 0.02427
[  3   3  20  19]-0.02421 [  2   4  39  57]-0.02374 [  6   5  65  57]-0.02352
-----------------------------------------------------------------------------
   Norm of T2AB vector (    20494 symmetry allowed elements):  0.3644951559.
-----------------------------------------------------------------------------
       Summary of iterative solution of CC equations 
      -----------------------------------------------------------
                       Correlation           Total
       Iteration         Energy              Energy
      -----------------------------------------------------------
            0        -0.321941106099   -5144.759144345161  DIIS 
            1        -0.334789362841   -5144.771992601904  DIIS 
            2        -0.343427054475   -5144.780630293538  DIIS 
            3        -0.344112894583   -5144.781316133645  DIIS 
            4        -0.344979007633   -5144.782182246696  DIIS 
            5        -0.345027546506   -5144.782230785569  DIIS 
            6        -0.345028199272   -5144.782231438334  DIIS 
            7        -0.345027666030   -5144.782230905092  DIIS 
            8        -0.345027399806   -5144.782230638868  DIIS 
            9        -0.345028252432   -5144.782231491494  DIIS 
           10        -0.345028138549   -5144.782231377611  DIIS 
           11        -0.345028213672   -5144.782231452735  DIIS 
           12        -0.345028206756   -5144.782231445817  DIIS 
           13        -0.345028209075   -5144.782231448136  DIIS 
           14        -0.345028210877   -5144.782231449939  DIIS 
           15        -0.345028211275   -5144.782231450336  DIIS 
           16        -0.345028211695   -5144.782231450758  DIIS 
           17        -0.345028211558   -5144.782231450620  DIIS 
           18        -0.345028211599   -5144.782231450661  DIIS 
      -----------------------------------------------------------
      A miracle has come to pass. The CC iterations have converged.
 @DIMT3-I, Dimensions of T3 amplitudes : 
               # abc          # ijk       Symmetry    Spin 
                     4574              2     1          1
                     4515              4     2          1
                     4515              4     3          1
                     4406              6     4          1
                     4544              5     5          1
                     4515              4     6          1
                     4515              4     7          1
                     4406              6     8          1
                    14673             15     1          2
                    14163             16     2          2
                    14235             14     3          2
                    13689             15     4          2
                    14643             18     5          2
                    14163             16     6          2
                    14205             17     7          2
                    13689             15     8          2
                    14904             14     1          3
                    14361             15     2          3
                    14505             11     3          3
                    13920             12     4          3
                    14874             16     5          3
                    14361             15     6          3
                    14506             10     7          3
                    13920             12     8          3
                     4805              1     1          4
                     4713              3     2          4
                     4785              1     3          4
                     4637              3     4          4
                     4775              3     5          4
                     4713              3     6          4
                     4755              3     7          4
                     4637              3     8          4
 @DIMT3-I, Dimensions of T3 amplitudes : 
               # abc          # ijk       Symmetry    Spin 
                     4574              2     1          1
                     4515              4     2          1
                     4515              4     3          1
                     4406              6     4          1
                     4544              5     5          1
                     4515              4     6          1
                     4515              4     7          1
                     4406              6     8          1
                    14673             15     1          2
                    14163             16     2          2
                    14235             14     3          2
                    13689             15     4          2
                    14643             18     5          2
                    14163             16     6          2
                    14205             17     7          2
                    13689             15     8          2
                    14904             14     1          3
                    14361             15     2          3
                    14505             11     3          3
                    13920             12     4          3
                    14874             16     5          3
                    14361             15     6          3
                    14506             10     7          3
                    13920             12     8          3
                     4805              1     1          4
                     4713              3     2          4
                     4785              1     3          4
                     4637              3     4          4
                     4775              3     5          4
                     4713              3     6          4
                     4755              3     7          4
                     4637              3     8          4
 @TRPS-I, Welcome to TRPS. Watch your RUs ! 
 @TRPS-I, Method is CCSD(T) 
 @TRPS-I, Calculation type is energy 
 @TRPS-I, Reference function information : 
          Reference function is general non-HF 
 @TRPS-I, Reference function is ROHF 
 @TRPS-I, INT1 is true 
 @TRPS-I, INT2 is false 
 @TRPS-I, Lengths of ijka integrals. #1       1137
                                     #2        734
                                     #3       2048
                                     #4       2390
                                    Max       2390
 @INITRP-I, Initializing W intermediate lists. 
 @TSPABCI-I, AbIc/AbcI record transposition. 
 @TSPABCI-I, (O,v) ---> (v,O) transposition. 
 @TSPABCI-I, In-core algorithm is being used. 
 @TSPABCI-I, In-core algorithm is being used. 
 @TSPABCI-I, In-core algorithm is being used. 
 @TSPABCI-I, In-core algorithm is being used. 
 @TSPABCI-I, In-core algorithm is being used. 
 @TSPABCI-I, In-core algorithm is being used. 
 @TSPABCI-I, In-core algorithm is being used. 
 @TSPABCI-I, In-core algorithm is being used. 
 @TRPS-I, Available memory in integer words    499959040
          Number of pre-allocated words for TRPS14         7323
          Number of free words for TRPS14    499951717
 @TRPS14-I, Spin case AAA 
 @TRPS14-I, Number of free integer words  499951717
            Number of free double words   499951717
            Ratio                                 1
 @TRPS14-I, E4TAAA      -0.000347472350
 @TRPS14-I, E5ST A   -0.000003104858452
 @TRPS14-I, E4ST A   -0.000002824458282
 @TRPS-I, Available memory in integer words    499959040
          Number of pre-allocated words for TRPS14         7317
          Number of free words for TRPS14    499951723
 @TRPS14-I, Spin case BBB 
 @TRPS14-I, Number of free integer words  499951723
            Number of free double words   499951723
            Ratio                                 1
 @TRPS14-I, E4TBBB      -0.000560940691
 @TRPS14-I, E5ST B    0.000010571304354
 @TRPS14-I, E4ST B    0.000000558651405
 @SETOOOV-I, Some OOOV lists are being transposed. 
 @TRPS-I, Available memory in integer words    499959040
          Number of pre-allocated words for TRPS2        17684
          Number of free words for TRPS2    499941356
 @TRPS2-I, Spin case AAB 
 @TRPS2-I, Number of free integer words  499941356
           Number of free double  words  499941356
           Ratio                                 1
 @TRPS2-I, E4TBAA      -0.007828750372
 @TRPS2-I, E5ST A    0.000015835229116
 @TRPS2-I, E5ST B    0.000021349185598
 @TRPS2-I, E4ST A   -0.000020519577624
 @TRPS2-I, E4ST B   -0.000008432769013
 @SETOOOV-I, Some OOOV lists are being transposed. 
 @TSPABCI2-I, (Alpha,Beta) ---> (Beta,Alpha). 
 @TSPABCI2-I, In-core algorithm is being used. 
 @TSPABCI2-I, In-core algorithm is being used. 
 @TSPABCI2-I, In-core algorithm is being used. 
 @TSPABCI2-I, In-core algorithm is being used. 
 @TSPABCI2-I, In-core algorithm is being used. 
 @TSPABCI2-I, In-core algorithm is being used. 
 @TSPABCI2-I, In-core algorithm is being used. 
 @TSPABCI2-I, In-core algorithm is being used. 
 @TSPABCI2-I, In-core algorithm is being used. 
 @TSPABCI2-I, In-core algorithm is being used. 
 @TSPABCI2-I, In-core algorithm is being used. 
 @TSPABCI2-I, In-core algorithm is being used. 
 @TSPABCI2-I, In-core algorithm is being used. 
 @TSPABCI2-I, In-core algorithm is being used. 
 @TSPABCI2-I, In-core algorithm is being used. 
 @TSPABCI2-I, In-core algorithm is being used. 
 @AT2IAB-I, Some AbIj lists are being altered. 
 @TRPS-I, Available memory in integer words    499959040
          Number of pre-allocated words for TRPS3        46458
          Number of free words for TRPS3    499912582
 @TRPS3-I, Spin case BBA 
 @TRPS3-I, Number of free integer words  499912582
           Number of free double  words  499912582
           Ratio                                 1
 @TRPS3-I, E4TBBA      -0.008518970718
 @TRPS3-I, E5ST A    0.000053825539359
 @TRPS3-I, E5ST B    0.000050634154134
 @TRPS3-I, E4ST A   -0.000030051450153
 @TRPS3-I, E4ST B   -0.000029628641768
 @TSPABCI2-I, (Beta,Alpha) ---> (Alpha,Beta). 
 @TSPABCI2-I, In-core algorithm is being used. 
 @TSPABCI2-I, In-core algorithm is being used. 
 @TSPABCI2-I, In-core algorithm is being used. 
 @TSPABCI2-I, In-core algorithm is being used. 
 @TSPABCI2-I, In-core algorithm is being used. 
 @TSPABCI2-I, In-core algorithm is being used. 
 @TSPABCI2-I, In-core algorithm is being used. 
 @TSPABCI2-I, In-core algorithm is being used. 
 @TSPABCI2-I, In-core algorithm is being used. 
 @TSPABCI2-I, In-core algorithm is being used. 
 @TSPABCI2-I, In-core algorithm is being used. 
 @TSPABCI2-I, In-core algorithm is being used. 
 @TSPABCI2-I, In-core algorithm is being used. 
 @TSPABCI2-I, In-core algorithm is being used. 
 @TSPABCI2-I, In-core algorithm is being used. 
 @TSPABCI2-I, In-core algorithm is being used. 
 @AT2IAB-I, Some AbIj lists are being altered. 
 @TSPABCI-I, AbIc/AbcI record transposition. 
 @TSPABCI-I, (v,O) ---> (O,v) transposition. 
 @TSPABCI-I, In-core algorithm is being used. 
 @TSPABCI-I, In-core algorithm is being used. 
 @TSPABCI-I, In-core algorithm is being used. 
 @TSPABCI-I, In-core algorithm is being used. 
 @TSPABCI-I, In-core algorithm is being used. 
 @TSPABCI-I, In-core algorithm is being used. 
 @TSPABCI-I, In-core algorithm is being used. 
 @TSPABCI-I, In-core algorithm is being used. 
 @CCENRG-I, CCSD/QCISD energy will now be evaluated. 
 @CCENRG-I, Correlation energies. ECCAA       -0.039152981273
                                  ECCBB       -0.038403764379
                                  ECCAB       -0.267471465948
                                  Total       -0.345028211599
 @CCENRG-I, Reference   energy   -5144.437203239062
            CCSD/QCISD energy    -5144.782231450661
          E4T (T(CCSD)) = -0.017256134131
          E5ST          =  0.000104459693
          E4ST          = -0.000059680092
          In other words  
          <T3[2](Dagger) D3  T3[2]> = -0.017256134131
          <T1   (Dagger) Q1 WT3[2]> =  0.000104459693
          <T2   (Dagger) Q2 FT3[2]> = -0.000059680092
        E(CCSD)           =   -5144.782231450661
        E(CCSD(T))        =   -5144.799442805191
  @CHECKOUT-I, Total execution time (CPU/WALL):        5.10/       5.39 seconds.
--executable xvcc finished with status     0 in        5.54 seconds (walltime).
  The final electronic energy is     -5144.799442805190665 a.u. 
  This computation required                           31.38 seconds (walltime).
--- SharcNET Job Epilogue ---
Job completed successfully.
               jobid: 1968083
               resid: 3436225
         exit status: 0
      allocated time: 32.4373
           user time: 23.24
         system time: 2.32
peak rss=203444224; peak vsz=203444224 (bytes)
atime=32.4373; utime=23.24; stime=2.32; exit=0
