 --invoking executable--
/project1/nike/cfour_v2.00beta_May2019xnmol_noLABBASIS/bin/xjoda


   *************************************************************************
         <<<     CCCCCC     CCCCCC   |||     CCCCCC     CCCCCC   >>>
       <<<      CCC        CCC       |||    CCC        CCC         >>>
      <<<      CCC        CCC        |||   CCC        CCC            >>>
    <<<        CCC        CCC        |||   CCC        CCC              >>>
      <<<      CCC        CCC        |||   CCC        CCC            >>>
       <<<      CCC        CCC       |||    CCC        CCC         >>>
         <<<     CCCCCC     CCCCCC   |||     CCCCCC     CCCCCC   >>>
   *************************************************************************

     ****************************************************************
     * CFOUR Coupled-Cluster techniques for Computational Chemistry *
     ****************************************************************
 

   Department of Chemistry                Institut fuer Physikalische Chemie
   University of Texas at Austin          Universitaet Mainz
   Austin, TX  78712, USA                 D-55099 Mainz, Germany
 
                       Version 2.00beta
 
                     req34                                             
                     Mon Mar  9 15:50:24 EDT 2020                      
                     integer*8 version is running
 
********************************************************************************
*                          Input from ZMAT file                                *
********************************************************************************
TITLE                                                                           
H                                                                               
H 1 R                                                                           
                                                                                
R=1.401100                                                                      
                                                                                
*ACES2(CALC=CCSD(T)                                                             
UNITS=BOHR                                                                      
#GEOM=Puchalsi2017au                                                            
#COORD=CARTESIAN                                                                
COORD=INTERNAL                                                                  
PRINT=4                                                                         
JODA_PRINT=4                                                                    
INPUT_MRCC=OFF                                                                  
#CC_PROG=MRCC                                                                   
FROZEN_CORE=ON                                                                  
#DROPMO=1>5                                                                     
CONTRACTION=GENERAL                                                             
#CONTRACTION=SEGMENTED                                                          
RELATIVISTIC=OFF                                                                
#EXCITE=EOMEE                                                                   
#ESTATE_CONV=5                                                                  
#ESTATE_SYM=2/2/2/2/2/2/2/2                                                     
XFORM_TOL=18                                                                    
SAVE_INTS=ON                                                                    
SCF_EXPORDER=6                                                                  
SCF_EXPSTART=5                                                                  
#SCF_DAMPING=1000                                                               
SCF_EXTRAPOLATION=ON                                                            
SCF_CONV=12                                                                     
SCF_MAXCYC=99999                                                                
CC_CONV=9                                                                       
CC_MAXCYC=999                                                                   
T3_EXTRAPOL=ON                                                                  
REFERENCE=ROHF                                                                  
CHARGE=+1                                                                       
MULT=2                                                                          
ABCDTYPE=STANDARD                                                               
#OCCUPATION=3-2-2-0-1-0-0-0/3-1-1-0-1-0-0-0                                     
MEM=2                                                                           
MEM_UNIT=GB                                                                     
BASIS=SPECIAL)                                                                  
                                                                                
H:def2-TZVPP                                                                    
H:def2-TZVPP                                                                    
                                                                                
********************************************************************************
  @GTFLGS-W, Keyword #GEOM not known and is ignored.
  @GTFLGS-W, Keyword #COORD not known and is ignored.
  @GTFLGS-W, Keyword #CC_PROG not known and is ignored.
  @GTFLGS-W, Keyword #DROPMO not known and is ignored.
  @GTFLGS-W, Keyword #CONTRACTION not known and is ignored.
  @GTFLGS-W, Keyword #EXCITE not known and is ignored.
  @GTFLGS-W, Keyword #ESTATE_CONV not known and is ignored.
  @GTFLGS-W, Keyword #ESTATE_SYM not known and is ignored.
  @GTFLGS-W, Keyword #SCF_DAMPING not known and is ignored.
  @GTFLGS-W, Keyword #OCCUPATION not known and is ignored.
    -------------------------------------------------------------------
                    CFOUR Control Parameters 
    -------------------------------------------------------------------
        External           Internal           Value            Units
          Name               Name
    -------------------------------------------------------------------
       ABCDTYPE             IABCDT         STANDARD     [  0]   ***   
       ANHARMONIC           IANHAR         OFF          [  0]   ***   
       ANH_ALGORIT          IANALG         STANDARD     [  0]   ***   
       ANH_DERIVAT          IANDER         SECOND       [  1]   ***   
       ANH_STEPSIZ          ICUBST             50000          x 10-6  
       ANH_SYMMETR          IANHSM         ABELIAN      [  0]   ***   
       AO_LADDERS           IAOLAD         SINGLEPASS   [  1]   ***   
       BASIS                IBASIS         SPECIAL      [  0]   ***   
       BREIT                IBREIT         OFF          [  0]   ***   
       BRUCK_CONV           IBRTOL          10D-  4             ***   
       BRUECKNER            IBRKNR             OFF      [  0]   ***   
       BUFFERSIZE           IBUFFS            600               ***   
       CACHE_RECS           ICHREC             10               ***   
       CALCLEVEL            ICLLVL           CCSD(T)    [ 22]   ***   
       CCORBOPT             ICCORB             OFF      [  0] x 0.01  
       CC_CONV              ICCCNV          10D-  9             ***   
       CC_EXPORDER          ICCEOR              5               ***   
       CC_EXTRAPOL          ICCEXT             DIIS     [  1]   ***   
       CC_MAXCYC            ICCCYC            999              cycles 
       CC_PROGRAM           ICCPRO         VCC          [  0]   ***   
       CHARGE               ICHRGE              1               ***   
       CHOLESKY             ICHOLE         OFF          [  0]   ***   
       CIS_CONV             ICISTL              5               ***   
       COMM_SIZE            IPSIZE            ***               ***   
       CONSTANT             ICONST         OLD          [  1]   ***   
       CONTINUUM            ICONTU         NONE         [  0]   ***   
       CONTRACTION          ICNTYP          GENERAL     [  1]   ***   
       COORDINATES          ICOORD         INTERNAL     [  0]   ***   
       CPHF_CONVER          ICPHFT          10D- 16             ***   
       CPHF_MAXCYC          ICPHFC             64              cycles 
       CUBIC                ICUBIC         OFF          [  0]   ***   
       CURVILINEAR          ICURVY            OFF       [  0]   ***   
       DBOC                 IDBOC          OFF          [  0]   ***   
       DCT                  IDCT           OFF          [  0]   ***   
       DERIV_LEV            IDRLVL            ZERO      [  0]   ***   
       DIAG_MRCC            IEOMST          10D-  0             ***   
       DIFF_TYPE            IDIFTY         RELAXED      [  0]   ***   
       DIRECT               IDIRCT         OFF          [  0]   ***   
       DROPMO               IDRPMO      NONE         
       ECP                  IECP           OFF          [  0]   ***   
       EIGENVECTOR          IVEC                1               ***   
       EL_ANHARM            IELANH         OFF          [  0]   ***   
       EOMFOLLOW            IEOMSR         ENERGY       [  0]   ***   
       EOM_MRCC             IMRCCE         NEW          [  1]   ***   
       EOM_NONIT            EOMNON         OFF          [  0]   ***   
       EOM_NSING            IEOMSI          10D-  0             ***   
       EOM_NSTATES          IMRCCD         DAVIDSON     [  0]   ***   
       EOM_NTRIP            IEOMTR          10D-  0             ***   
       EOM_ORDER            IEXORD         ENERGY       [  0]   ***   
       ESTATE_CONV          IEXTOL          10D-  5             ***   
       ESTATE_DIAG          IEXDIG         ITERATIVE    [  0]   ***   
       ESTATE_LOCK          IESLOC         ON           [  1]   ***   
       ESTATE_MAXC          IEXMXC             20               ***   
       ESTATE_PROP          IEXPRP         OFF          [  0]   ***   
       EVAL_HESS            IRECAL              0            # of cyc.
       EXCITATION           IEXCIT              0               ***   
       EXCITE               IEXCIT         NONE         [  0]   ***   
       FCGRADNEW            IFCGNW         OFF          [  0]   ***   
       FC_FIELD             IFINFC              0             x 10-6  
       FD_CALTYPE           IFDCAL         GRADONLY     [  0]   ***   
       FD_PROJECT           IFDPRJ         OFF          [  1]   ***   
       FD_STEPSIZE          IDISFD              0            10-4 bohr
       FD_USEGROUP          IFDGRP         FULL         [  0]   ***   
       FILE_RECSIZ          IFLREC              4096           words  
       FINITE_PERT          IFIPER              0             x 10-6  
       FIXGEOM              IFIXGM         OFF          [  0]   ***   
       FOCK                 IFOCK          AO           [  1]   ***   
       FREQ_ALGORI          IVIALG         STANDARD     [  0]   ***   
       FROZEN_CORE          IFROCO         ON           [  1]   ***   
       FROZEN_VIRT          IFROVI         OFF          [  0]   ***   
       GAMMA_ABCD           IGABCD         STORE        [  0]   ***   
       GAMMA_ABCI           IGABCI         STORE        [  0]   ***   
       GENBAS_1             IGNBS1              0               ***   
       GENBAS_2             IGNBS2              0               ***   
       GENBAS_3             IGNBS3              0               ***   
       GENBAS_4             IGNBS4              0               ***   
       GEO_CONV             ICONTL              5              H/bohr 
       GEO_MAXCYC           IOPTCY             50               ***   
       GEO_MAXSTEP          IMXSTP            300            millibohr
       GEO_METHOD           INR            SINGLE_POINT [  5]   ***   
       GIAO                 IGIAO          OFF          [  1]   ***   
       GIMIC                IGIMIC         OFF          [  0]   ***   
       GRID                 IGRID          OFF          [  0]   ***   
       GRID_ALGO            IGALGO         SERIAL       [  0]   ***   
       GUESS                IGUESS            MOREAD    [  0]   ***   
       HBAR                 IHBAR              OFF      [  0]   ***   
       HESS_TYPE            IHESTP         SCF          [  0]   ***   
       HF2_FILE             IHF2Fl         USE          [  1]   ***   
       HFSTABILITY          ISTABL         OFF          [  0]   ***   
       INCORE               INCORE             OFF      [  0]   ***   
       INPUT_MRCC           IMRCC          OFF          [  0]   ***   
       INTEGRALS            INTTYP             VMOL     [  1]   ***   
       JODA_PRINT           IJPRNT              4               ***   
       LINDEP_TOL           ILINDP              8               ***   
       LINEQ_CONV           IZTACN          10D-  7           cycles  
       LINEQ_EXPOR          ILMAXD              5               ***   
       LINEQ_MAXCY          ILMAXC             50               ***   
       LINEQ_TYPE           ILTYPE         DIIS         [  1]   ***   
       LOCK_ORBOCC          ILOCOC             OFF      [  0]   ***   
       MEMORY_SIZE          IMEMSZ         250000000           words  
       MEM_UNIT             IMEMU          GB           [  3]   ***   
       MRCC                 IMRCCC         OFF          [  0]   ***   
       MULTIPLICTY          IMULTP              2               ***   
       NEGEVAL              IDIE             ABORT      [  0]   ***   
       NEWNORM              INEWNO         OFF          [  0]   ***   
       NON-HF               INONHF              ON      [  1]   ***   
       NTOP_TAMP            ITOPT2             15               ***   
       NUC_MODEL            INUCMO         POINT        [  0]   ***   
       OCCUPATION           IOCCU   ESTIMATED BY SCF 
       OPEN-SHELL           IOPEN          SPIN-ORBITAL [  0]   ***   
       ORBITALS             IORBTP         SEMICANONICAL[  1]   ***   
       PARALLEL             IPARAL         ON           [  1]   ***   
       PARA_INT             IPINTS         ON           [  1]   ***   
       PARA_PRINT           IPPRIN              0               ***   
       PERT_ORB             IPTORB         STANDARD     [  0]   ***   
       POINTS               IGRDFD              0               ***   
       PRINT                IPRNT               4               ***   
       PROPS                IPROPS             OFF      [  0]   ***   
       PROP_INTEGR          IINTYP         INTERNAL     [  0]   ***   
       PSI                  IPSI           OFF          [  0]   ***   
       QUARTIC              IQUART         OFF          [  0]   ***   
       RAMAN_INT            IRAMIN         OFF          [  0]   ***   
       RAMAN_ORB            IRAMRE         UNRELAXED    [  0]   ***   
       RDO                  IRDOFM             OFF      [  0]   ***   
       REFERENCE            IREFNC             ROHF     [  2]   ***   
       RELATIVIST           IRELAT         OFF          [  0]   ***   
       RELAX_DENS           IRDENS             OFF      [  0]   ***   
       RESET_FLAGS          IRESET             OFF      [  0]   ***   
       RESTART_CC           ICCRES         OFF          [  0]   ***   
       ROT_EVEC             ROTVEC              0               ***   
       SAVE_INTS            ISVINT              ON      [  1]   ***   
       SCALE_ON             ISTCRT              0               ***   
       SCF_CONV             ISCFCV          10D- 12             ***   
       SCF_DAMPING          IDAMP               0             x 10-3  
       SCF_EXPORDE          IRPPOR              6               ***   
       SCF_EXPSTAR          IRPPLS              5               ***   
       SCF_EXTRAPO          IRPP                ON      [  1]   ***   
       SCF_MAXCYC           ISCFCY            ***              cycles 
       SCF_NOSTOP           ISCFST         OFF          [  0]   ***   
       SCF_PRINT            ISCFPR              0               ***   
       SD_FIELD             IFINSD              0             x 10-6  
       SEQUENCE             ISEQUE         OFF          [  0]   ***   
       SOPERT               IPERSO         OFF          [  0]   ***   
       SPHERICAL            IDFGHI             ON       [  1]   ***   
       SPINORBIT            ISOCAL         OFF          [  0]   ***   
       SPINROTATIO          ISRCON         OFF          [  0]   ***   
       SPIN_FLIP            ISPFLP         OFF          [  0]   ***   
       SPIN_ORBIT           ISPORB         OFF          [  0]   ***   
       SPIN_SCAL            ISCSMP         OFF          [  0]   ***   
       SUBGROUP             ISUBGP         DEFAULT      [  0]   ***   
       SUBGRPAXIS           ISBXYZ         X            [  0]   ***   
       SYMMETRY             ISYM             ON         [  0]   ***   
       SYM_CHECK            ISYMCK         OVERRIDE     [  1]   ***   
       T3_EXTRAPOL          IT3EXT         ON           [  1]   ***   
       TAMP_SUM             IEVERY              5               ***   
       TESTSUITE            ITESTS         OFF          [  0]   ***   
       THERMOCH             ITHERM         OFF          [  0]   ***   
       TOL_CHOLESK          ITOLCH          10D-  4             ***   
       TRANGRAD             IRESRM         OFF          [  0]   ***   
       TRANS_INV            ITRAIN         USE          [  0]   ***   
       TREAT_PERT           ITREAT         SIMULTANEOUS [  0]   ***   
       UIJ_THRESHO          IUIJTH              1               ***   
       UNITS                IUNITS         BOHR         [  1]   ***   
       UNOS                 IUNOS          OFF          [  0]   ***   
       UPDATE_HESS          IHUPDT         ON           [  1]   ***   
       VIBPHASE             ISETPH         STANDARD     [  0]   ***   
       VIBRATION            IVIB              NO        [  0]   ***   
       VIB_ALGORIT          IGEALG         STANDARD     [  0]   ***   
       VNATORB              IVNORB         OFF          [  0]   ***   
       VTRAN                IVTRAN         FULL/PARTIAL [  0]   ***   
       XFIELD               IXEFLD              0             x 10-6  
       XFORM_TOL            IXFTOL          10D- 18             ***   
       YFIELD               IYEFLD              0             x 10-6  
       ZFIELD               IZEFLD              0             x 10-6  
    -------------------------------------------------------------------
   2 entries found in Z-matrix 
   Job Title : TITLE                                                                           
 Variable names read by FETCHZ
  1           
  2           
  3           
  4 R         
  5           
  6           
 Atomic symbols read by FETCHZ
  1 H    
  2 H    
 Connectivity matrix read by FETCHZ
  1   0
  2   0
  3   0
  4   1
  5   0
  6   0
   There are  1 unique internal coordinates.
   Of these,  0 will be optimized.
   User supplied Z-matrix: 
--------------------------------------------------------------------------------
       SYMBOL    BOND      LENGTH    ANGLE     ANGLE     DIHED     ANGLE
                  TO      (ANGST)    WRT      (DEG)      WRT      (DEG)
--------------------------------------------------------------------------------
        H    
        H          1         R    
                  *Initial values for internal coordinates* 
                      Name             Value
                        R               1.4011000000
--------------------------------------------------------------------------------
  1  H          1     1.00783
  2  H          1     1.00783
    1.0078250350
    1.0078250350
 After translation to center of mass coordinates 
        0.000000000000    0.000000000000   -0.700550000000
        0.000000000000    0.000000000000    0.700550000000
  Inertia tensor (amu*bohr**2)
    0.98922    0.00000    0.00000
    0.00000    0.98922    0.00000
    0.00000    0.00000    0.00000
    Inertia tensor:
        0.989221194588    0.000000000000    0.000000000000
        0.000000000000    0.989221194588    0.000000000000
        0.000000000000    0.000000000000    0.000000000000
    Principal axis orientation for molecular system: 
        0.000000000000    0.000000000000    0.700550000000
        0.000000000000    0.000000000000   -0.700550000000
    Diagonalized inertia tensor:
        0.989221194588    0.000000000000    0.000000000000
        0.000000000000    0.989221194588    0.000000000000
        0.000000000000    0.000000000000    0.000000000000
    Eigenvectors of inertia tensor: 
        1.000000000000    0.000000000000    0.000000000000
        0.000000000000    1.000000000000    0.000000000000
        0.000000000000    0.000000000000   -1.000000000000
 factor:   60.1997200000000     
   Rotational constants (in cm-1): 
         60.8556714407            60.8556714407
   Rotational constants (in MHz): 
    1824407.3880377901       1824407.3880377901
  @SYMMETRY-I, Handedness of inertial frame:-1.00000
  @SYMMETRY-I, Sense of inertial frame y-axis will be changed.
  @SYMMETRY-I, The symmetry group is 2-fold degenerate.
  @SYMMETRY-I, The molecule belongs to a point group with doubly degenerate representations.
  @SYMMETRY-I, The molecule is linear.
   Principal axis orientation for molecule:
        0.000000000000    0.000000000000    0.700550000000
        0.000000000000    0.000000000000   -0.700550000000
   Reflection in plane  3 is a valid symmetry operation.
   Rotation about  3 is a valid symmetry operation 
   Reflection in plane  2 is a valid symmetry operation.
   Rotation about  2 is a valid symmetry operation 
   Reflection in plane  1 is a valid symmetry operation.
   Rotation about  1 is a valid symmetry operation 
   The molecule possesses an inversion center. 
  Symmetry bits:    7   7   1
********************************************************************************
   The full molecular point group is DXh .
   The largest Abelian subgroup of the full molecular point group is D2h .
   The computational point group is D2h .
********************************************************************************
--------------------------------------------------------------------------------
   Analysis of internal coordinates specified by Z-matrix 
--------------------------------------------------------------------------------
   *The nuclear repulsion energy is    0.713724930411819 a.u.
   *There is   1 degree of freedom within the tot. symm. molecular subspace.
   *Z-matrix requests optimization of   0 coordinates.
   *The optimization is constrained.
   *The following   1 parameters can have non-zero 
    derivatives within the totally symmetric subspace:
             R    [ 1]
   *The following   0 parameters are to be optimized:

   *The following coordinates must be varied in an  unconstrained optimization.
             R    [ 1]
--------------------------------------------------------------------------------
 ----------------------------------------------------------------
 Z-matrix   Atomic            Coordinates (in bohr)
  Symbol    Number           X              Y              Z
 ----------------------------------------------------------------
     H         1         0.00000000     0.00000000     0.70055000
     H         1         0.00000000     0.00000000    -0.70055000
 ----------------------------------------------------------------
   Interatomic distance matrix (Angstroms) 
 
                 H             H    
                [ 1]        [ 2]
  H    [ 1]     0.00000
  H    [ 2]     0.74143     0.00000
  Inertia tensor (amu*bohr**2)
    0.98922    0.00000    0.00000
    0.00000    0.98922    0.00000
    0.00000    0.00000    0.00000
   Rotational constants (in cm-1): 
         60.8556714407             0.0000000000
   Rotational constants (in MHz): 
    1824407.3880377901             0.0000000000
  @GTFLGS-W, Keyword #GEOM not known and is ignored.
  @GTFLGS-W, Keyword #COORD not known and is ignored.
  @GTFLGS-W, Keyword #CC_PROG not known and is ignored.
  @GTFLGS-W, Keyword #DROPMO not known and is ignored.
  @GTFLGS-W, Keyword #CONTRACTION not known and is ignored.
  @GTFLGS-W, Keyword #EXCITE not known and is ignored.
  @GTFLGS-W, Keyword #ESTATE_CONV not known and is ignored.
  @GTFLGS-W, Keyword #ESTATE_SYM not known and is ignored.
  @GTFLGS-W, Keyword #SCF_DAMPING not known and is ignored.
  @GTFLGS-W, Keyword #OCCUPATION not known and is ignored.
  There are   28 basis functions.
 @GEOPT-W, Archive file not created for single-point calculation.
  @CHECKOUT-I, Total execution time (CPU/WALL):        0.33/       0.66 seconds.
--executable xjoda finished with status     0 in        0.79 seconds (walltime).
 --invoking executable--
/project1/nike/cfour_v2.00beta_May2019xnmol_noLABBASIS/bin/xvmol
Running with 1 threads/proc

********************************************************************************
                   INPUT FROM MOL FILE                                          
********************************************************************************
INTGRL        1    0    1    0    0    0    0    0    0
         *** CFOUR Program System (Release V0.1) *** 
TITLE
    1    3 X  Y   Z   0.10E-08              0    0
   9999.00      3.00
          1.00000000    1    3    1    1    1
H #1   0.000000000000000   0.000000000000000   0.700550000000000
    5    3
   34.0613410000000       6.025197800000000E-003  0.000000000000000E+000
  0.000000000000000E+000
   5.12357460000000       4.502109400000000E-002  0.000000000000000E+000
  0.000000000000000E+000
   1.16466260000000       0.201897260000000       0.000000000000000E+000
  0.000000000000000E+000
  0.327230410000000       0.000000000000000E+000   1.00000000000000     
  0.000000000000000E+000
  0.103072410000000       0.000000000000000E+000  0.000000000000000E+000
   1.00000000000000     
    2    2
   1.40700000000000        1.00000000000000       0.000000000000000E+000
  0.388000000000000       0.000000000000000E+000   1.00000000000000     
    1    1
   1.05700000000000        1.00000000000000     
FINISH
                                                                                
********************************************************************************

ONE- AND TWO-ELECTRON INTEGRALS OVER SYMMETRY-ADAPTED AOS ARE CALCULATED.


    BASIS FUNCTION NOT NORMALIZED:
    CENTER (AS ORDERED IN MOL FILE): ?
    ANGULAR MOMENTUM TYPE:           S
    OFFSET WITHIN ANGULAR MOMENTUM:  1
    <CHI|CHI>:                       0.0560960211
CARTESIAN GAUSSIANS ARE USED.

1 TYPES OF ATOMS
3 SYMMETRY OPERATIONS

REFLECTION IN THE YZ-PLANE
REFLECTION IN THE XZ-PLANE
REFLECTION IN THE XY-PLANE

INTEGRALS LESS THAN 1e-14 ARE NEGLECTED.

ATOMIC TYPE NUMBER 1:
---------------------

    NUCLEAR CHARGE:                       1
    NUMBER OF SYMMETRY INDEPENDENT ATOMS: 1
    HIGHEST ORBITAL TYPE:                 D

    1 GROUPS OF CGTOS OF S TYPE
    1 GROUPS OF CGTOS OF P TYPE
    1 GROUPS OF CGTOS OF D TYPE

    NUCLEAR COORDINATES (IN A.U.) ARE:

    H #1   0.000000000000000   0.000000000000000   0.700550000000000

INTERNUCLEAR DISTANCES (A):

    FOR ATOM H #1 (COORDINATES:   0.00000   0.00000   0.70055)

    H #1 5 DISTANCE IS   0.74143

GROUP MULTIPLICATION TABLE:

    1 2 3 4 5 6 7 8
    2 1 4 3 6 5 8 7
    3 4 1 2 7 8 5 6
    4 3 2 1 8 7 6 5
    5 6 7 8 1 2 3 4
    6 5 8 7 2 1 4 3
    7 8 5 6 3 4 1 2
    8 7 6 5 4 3 2 1

GAUSSIAN BASIS INFORMATION:

ATOM                EXPONENT       COEFFICIENTS

H #1  1  S   
                  1      34.061341   0.2556299   0.0000000   0.0000000
                  2       5.123575   0.4613600   0.0000000   0.0000000
                  3       1.164663   0.6811215   0.0000000   0.0000000
                  4       0.327230   0.0000000   0.3083545   0.0000000
                  5       0.103072   0.0000000   0.0000000   0.1296483

H #1  5  S   
                  6      34.061341   0.2556299   0.0000000   0.0000000
                  7       5.123575   0.4613600   0.0000000   0.0000000
                  8       1.164663   0.6811215   0.0000000   0.0000000
                  9       0.327230   0.0000000   0.3083545   0.0000000
                 10       0.103072   0.0000000   0.0000000   0.1296483

H #1  1  X   
                 11       1.407000   2.1842770   0.0000000
                 12       0.388000   0.0000000   0.4364955

H #1  5  X   
                 13       1.407000   2.1842770   0.0000000
                 14       0.388000   0.0000000   0.4364955

H #1  1  Y   
                 15       1.407000   2.1842770   0.0000000
                 16       0.388000   0.0000000   0.4364955

H #1  5  Y   
                 17       1.407000   2.1842770   0.0000000
                 18       0.388000   0.0000000   0.4364955

H #1  1  Z   
                 19       1.407000   2.1842770   0.0000000
                 20       0.388000   0.0000000   0.4364955

H #1  5  Z   
                 21       1.407000   2.1842770   0.0000000
                 22       0.388000   0.0000000   0.4364955

H #1  1  XX  
                 23       1.057000   3.1412414

H #1  5  XX  
                 24       1.057000   3.1412414

H #1  1  XY  
                 25       1.057000   3.1412414

H #1  5  XY  
                 26       1.057000   3.1412414

H #1  1  XZ  
                 27       1.057000   3.1412414

H #1  5  XZ  
                 28       1.057000   3.1412414

H #1  1  YY  
                 29       1.057000   3.1412414

H #1  5  YY  
                 30       1.057000   3.1412414

H #1  1  YZ  
                 31       1.057000   3.1412414

H #1  5  YZ  
                 32       1.057000   3.1412414

H #1  1  ZZ  
                 33       1.057000   3.1412414

H #1  5  ZZ  
                 34       1.057000   3.1412414

SYMMETRY TRANSFORMATION INTO 28 SYMMETRY-ADAPTED BASIS FUNCTIONS

    IRREDUCIBLE REPRESENTATION NUMBER 1

    1    1 H #1 S      1   1.0   2   1.0
    2    2 H #1 S      3   1.0   4   1.0
    3    3 H #1 S      5   1.0   6   1.0
    4    4 H #1 Z     15   1.0  16  -1.0
    5    5 H #1 Z     17   1.0  18  -1.0
    6    6 H #1 XX    19  -1.0  20  -1.0  25  -1.0  26  -1.0  29   2.0  30   2.0
    7    7 H #1 YY    19   1.0  20   1.0  25  -1.0  26  -1.0
    8    8 H #1 ZZ     7   1.0   8   1.0

    IRREDUCIBLE REPRESENTATION NUMBER 2

    9    1 H #1 X      9   1.0  10   1.0
   10    2 H #1 X     23   1.0  24  -1.0
   11    3 H #1 XZ    11   1.0  12   1.0

    IRREDUCIBLE REPRESENTATION NUMBER 3

   12    1 H #1 Y     13   1.0  14   1.0
   13    2 H #1 Y     27   1.0  28  -1.0
   14    3 H #1 YZ    21   1.0  22   1.0

    IRREDUCIBLE REPRESENTATION NUMBER 4

   15    1 H #1 XY     1   1.0   2  -1.0

    IRREDUCIBLE REPRESENTATION NUMBER 5

   16    1 H #1 S      3   1.0   4  -1.0
   17    2 H #1 S      5   1.0   6  -1.0
   18    3 H #1 S     15   1.0  16   1.0
   19    4 H #1 Z     17   1.0  18   1.0
   20    5 H #1 Z     19  -1.0  20   1.0  25  -1.0  26   1.0  29   2.0  30  -2.0
   21    6 H #1 XX    19   1.0  20  -1.0  25  -1.0  26   1.0
   22    7 H #1 YY     7   1.0   8  -1.0
   23    8 H #1 ZZ     9   1.0  10  -1.0

    IRREDUCIBLE REPRESENTATION NUMBER 6

   24    1 H #1 X     23   1.0  24   1.0
   25    2 H #1 X     11   1.0  12  -1.0
   26    3 H #1 XZ    13   1.0  14  -1.0

    IRREDUCIBLE REPRESENTATION NUMBER 7

   27    1 H #1 Y     27   1.0  28   1.0
   28    2 H #1 Y     21   1.0  22  -1.0
   29    3 H #1 YZ  

    IRREDUCIBLE REPRESENTATION NUMBER 8

   30    1 H #1 XY  

NUCLEAR REPULSION ENERGY:    0.7137249304 A.U.

One-electron integrals took 0.002599 seconds

  @TWOEL-I,        634 INTEGRALS OF SYMMETRY TYPE  I I I I
  @TWOEL-I,       3036 INTEGRALS OF SYMMETRY TYPE  I J I J
  @TWOEL-I,       2217 INTEGRALS OF SYMMETRY TYPE  I I J J
  @TWOEL-I,       4494 INTEGRALS OF SYMMETRY TYPE  I J K L
  @TWOEL-I, TOTAL NUMBER OF 2-E INTEGRALS      10381

Two-electron integrals took 0.057824 seconds

Nuclear repulsion energy: 0.713724930412
--executable xvmol finished with status     0 in        0.78 seconds (walltime).
 --invoking executable--
/project1/nike/cfour_v2.00beta_May2019xnmol_noLABBASIS/bin/xvmol2ja
--executable xvmol2ja finished with status     0 in        0.06 seconds (walltime).
 --invoking executable--
/project1/nike/cfour_v2.00beta_May2019xnmol_noLABBASIS/bin/xvscf
  There are   28 functions in the AO basis.

  There are 8 irreducible representations.

       Irrep        # of functions
         1                  7
         2                  3
         3                  3
         4                  1
         5                  7
         6                  3
         7                  3
         8                  1


  Parameters for SCF calculation: 
        SCF reference function: ROHF  
  Maximum number of iterations: ****
     Full symmetry point group: DXh 
     Computational point group: D2h 
        Initial density matrix: CORE                   
     SCF convergence tolerance: 10**(-12)
  DIIS convergence acceleration:  ON
          Latest start for DIIS:   5
                     DIIS order:   6

  Memory information:      70882 words required.
  Fock matrices are constructed from AO integral file.
 @GETMEM-I,  Allocated       0 MB of main memory.
  Initialization and symmetry analysis required      0.003 seconds.

  @INITGES-I, Occupancies from core Hamiltonian:

          Alpha population by irrep:   1    0    0    0    0    0    0    0
           Beta population by irrep:   0    0    0    0    0    0    0    0


 total no. of electrons in initial guess :  0.000000000000000E+000
 total no. of electrons in initial guess :  0.000000000000000E+000
  --------------------------------------------------------------------
  Iteration         Total Energy            Largest Density Difference
  --------------------------------------------------------------------
       0             0.713724930411819              0.0000000000D+00
   current occupation vector 
     1  0  0  0  0  0  0  0
     0  0  0  0  0  0  0  0
  processed                    634  ao basis integrals from 
                     2  buffers.
  processed                   2217  ao basis integrals from 
                     4  buffers.
  processed                   3036  ao basis integrals from 
                     6  buffers.
       1            -0.569539983259461              0.1027860728D+00
   current occupation vector 
     1  0  0  0  0  0  0  0
     0  0  0  0  0  0  0  0

  SCF has converged.

 Density matrix saved to file den.dat
 total alpha spin electron number:   1.00000000000000     
 total  beta spin electron number:  0.000000000000000E+000
  processed                    634  ao basis integrals from 
                     2  buffers.
  processed                   2217  ao basis integrals from 
                     4  buffers.
  processed                   3036  ao basis integrals from 
                     6  buffers.
     E(ROHF)=        -0.569539983259461              0.2498001805D-15


       The average multiplicity is    2.0000000
  The expectation value of S**2 is    0.7500000

 @PUTMOS-I, Writing converged MOs to NEWMOS. 
 @PUTMOS-I, Symmetry   1 Full Blocks  1 Partial Blocksize   3
 @PUTMOS-I, Symmetry   2 Full Blocks  0 Partial Blocksize   3
 @PUTMOS-I, Symmetry   3 Full Blocks  0 Partial Blocksize   3
 @PUTMOS-I, Symmetry   4 Full Blocks  0 Partial Blocksize   1
 @PUTMOS-I, Symmetry   5 Full Blocks  1 Partial Blocksize   3
 @PUTMOS-I, Symmetry   6 Full Blocks  0 Partial Blocksize   3
 @PUTMOS-I, Symmetry   7 Full Blocks  0 Partial Blocksize   3
 @PUTMOS-I, Symmetry   8 Full Blocks  0 Partial Blocksize   1
  @DMPJOB-I, Rotating orbitals to semicanonical basis.
             *** Eigenvalues correspond to new basis. ***

--------------------------------------------------------------------------------
Eigenvalue     -1.283265     -0.198712     -0.045931      0.193695      0.193695
 Symmetry        SGg+          SGu+          SGg+          PIu           PIu     
--------------------------------------------------------------------------------
   1 S         0.2374338     0.1302390     0.0722517     0.0000000     0.0000000
   1 S         0.3206027     0.3060835     0.5828456     0.0000000     0.0000000
   1 S         0.0295062     1.5314870    -0.8262431     0.0000000     0.0000000
   1 PX        0.0000000     0.0000000     0.0000000     0.0326290     0.0000000
   1 PY        0.0000000     0.0000000     0.0000000     0.0000000     0.0326290
   1 PZ       -0.0240729     0.0212997    -0.0193811     0.0000000     0.0000000
   1 PX        0.0000000     0.0000000     0.0000000    -0.5630345     0.0000000
   1 PY        0.0000000     0.0000000     0.0000000     0.0000000    -0.5630345
   1 PZ       -0.0411022     0.0551112     0.0007607     0.0000000     0.0000000
   1 DX2      -0.0014869     0.0021632     0.0003785     0.0000000     0.0000000
   1 DXY       0.0000000     0.0000000     0.0000000     0.0000000     0.0000000
   1 DXZ       0.0000000     0.0000000     0.0000000     0.0002444     0.0000000
   1 DY2      -0.0014869     0.0021632     0.0003785     0.0000000     0.0000000
   1 DYZ       0.0000000     0.0000000     0.0000000     0.0000000     0.0002444
   1 DZZ       0.0029738    -0.0043263    -0.0007569     0.0000000     0.0000000
   2 S         0.2374338    -0.1302390     0.0722517     0.0000000     0.0000000
   2 S         0.3206027    -0.3060835     0.5828456     0.0000000     0.0000000
   2 S         0.0295062    -1.5314870    -0.8262431     0.0000000     0.0000000
   2 PX        0.0000000     0.0000000     0.0000000     0.0326290     0.0000000
   2 PY        0.0000000     0.0000000     0.0000000     0.0000000     0.0326290
   2 PZ        0.0240729     0.0212997     0.0193811     0.0000000     0.0000000
   2 PX        0.0000000     0.0000000     0.0000000    -0.5630345     0.0000000
   2 PY        0.0000000     0.0000000     0.0000000     0.0000000    -0.5630345
   2 PZ        0.0411022     0.0551112    -0.0007607     0.0000000     0.0000000
   2 DX2      -0.0014869    -0.0021632     0.0003785     0.0000000     0.0000000
   2 DXY       0.0000000     0.0000000     0.0000000     0.0000000     0.0000000
   2 DXZ       0.0000000     0.0000000     0.0000000    -0.0002444     0.0000000
   2 DY2      -0.0014869    -0.0021632     0.0003785     0.0000000     0.0000000
   2 DYZ       0.0000000     0.0000000     0.0000000     0.0000000    -0.0002444
   2 DZZ       0.0029738     0.0043263    -0.0007569     0.0000000     0.0000000
--------------------------------------------------------------------------------
Eigenvalue      0.199167      0.643710      0.678402      0.678402      1.132750
 Symmetry        SGu+          SGg+          PIg           PIg           SGu+    
--------------------------------------------------------------------------------
   1 S         0.1530099     0.0138923     0.0000000     0.0000000     0.0256681
   1 S         1.8938320     0.7255147     0.0000000     0.0000000    12.8459771
   1 S        -2.7480046    -0.4101443     0.0000000     0.0000000    -0.2485727
   1 PX        0.0000000     0.0000000     0.0476659     0.0000000     0.0000000
   1 PY        0.0000000     0.0000000     0.0000000     0.0476659     0.0000000
   1 PZ       -0.0487109    -0.0730274     0.0000000     0.0000000    -0.1282699
   1 PX        0.0000000     0.0000000    -1.3889259     0.0000000     0.0000000
   1 PY        0.0000000     0.0000000     0.0000000    -1.3889259     0.0000000
   1 PZ       -0.1409922     1.0293094     0.0000000     0.0000000    -6.1311012
   1 DX2      -0.0116413     0.0166573     0.0000000     0.0000000    -0.0778415
   1 DXY       0.0000000     0.0000000     0.0000000     0.0000000     0.0000000
   1 DXZ       0.0000000     0.0000000     0.0944657     0.0000000     0.0000000
   1 DY2      -0.0116413     0.0166573     0.0000000     0.0000000    -0.0778415
   1 DYZ       0.0000000     0.0000000     0.0000000     0.0944657     0.0000000
   1 DZZ       0.0232827    -0.0333146     0.0000000     0.0000000     0.1556829
   2 S        -0.1530099     0.0138923     0.0000000     0.0000000    -0.0256681
   2 S        -1.8938320     0.7255147     0.0000000     0.0000000   -12.8459771
   2 S         2.7480046    -0.4101443     0.0000000     0.0000000     0.2485727
   2 PX        0.0000000     0.0000000    -0.0476659     0.0000000     0.0000000
   2 PY        0.0000000     0.0000000     0.0000000    -0.0476659     0.0000000
   2 PZ       -0.0487109     0.0730274     0.0000000     0.0000000    -0.1282699
   2 PX        0.0000000     0.0000000     1.3889259     0.0000000     0.0000000
   2 PY        0.0000000     0.0000000     0.0000000     1.3889259     0.0000000
   2 PZ       -0.1409922    -1.0293094     0.0000000     0.0000000    -6.1311012
   2 DX2       0.0116413     0.0166573     0.0000000     0.0000000     0.0778415
   2 DXY       0.0000000     0.0000000     0.0000000     0.0000000     0.0000000
   2 DXZ       0.0000000     0.0000000     0.0944657     0.0000000     0.0000000
   2 DY2       0.0116413     0.0166573     0.0000000     0.0000000     0.0778415
   2 DYZ       0.0000000     0.0000000     0.0000000     0.0944657     0.0000000
   2 DZZ      -0.0232827    -0.0333146     0.0000000     0.0000000    -0.1556829
--------------------------------------------------------------------------------
Eigenvalue      1.760037      1.792963      2.576928      2.576928      2.747710
 Symmetry        SGu+          SGg+          DEg           DEg           PIu     
--------------------------------------------------------------------------------
   1 S         0.6557457     0.9348689     0.0000000     0.0000000     0.0000000
   1 S        -3.7622827    -1.0228288     0.0000000     0.0000000     0.0000000
   1 S         1.4850930     0.4201718     0.0000000     0.0000000     0.0000000
   1 PX        0.0000000     0.0000000     0.0000000     0.0000000     0.5936158
   1 PY        0.0000000     0.0000000     0.0000000     0.0000000     0.0000000
   1 PZ        0.5212285    -0.1228636     0.0000000     0.0000000     0.0000000
   1 PX        0.0000000     0.0000000     0.0000000     0.0000000    -0.3799044
   1 PY        0.0000000     0.0000000     0.0000000     0.0000000     0.0000000
   1 PZ        0.7855838     0.2630416     0.0000000     0.0000000     0.0000000
   1 DX2       0.1180500    -0.0322612     0.0000000     0.3038020     0.0000000
   1 DXY       0.0000000     0.0000000     0.6076039     0.0000000     0.0000000
   1 DXZ       0.0000000     0.0000000     0.0000000     0.0000000    -0.3184468
   1 DY2       0.1180500    -0.0322612     0.0000000    -0.3038020     0.0000000
   1 DYZ       0.0000000     0.0000000     0.0000000     0.0000000     0.0000000
   1 DZZ      -0.2361001     0.0645223     0.0000000     0.0000000     0.0000000
   2 S        -0.6557457     0.9348689     0.0000000     0.0000000     0.0000000
   2 S         3.7622827    -1.0228288     0.0000000     0.0000000     0.0000000
   2 S        -1.4850930     0.4201718     0.0000000     0.0000000     0.0000000
   2 PX        0.0000000     0.0000000     0.0000000     0.0000000     0.5936158
   2 PY        0.0000000     0.0000000     0.0000000     0.0000000     0.0000000
   2 PZ        0.5212285     0.1228636     0.0000000     0.0000000     0.0000000
   2 PX        0.0000000     0.0000000     0.0000000     0.0000000    -0.3799044
   2 PY        0.0000000     0.0000000     0.0000000     0.0000000     0.0000000
   2 PZ        0.7855838    -0.2630416     0.0000000     0.0000000     0.0000000
   2 DX2      -0.1180500    -0.0322612     0.0000000     0.3038020     0.0000000
   2 DXY       0.0000000     0.0000000     0.6076039     0.0000000     0.0000000
   2 DXZ       0.0000000     0.0000000     0.0000000     0.0000000     0.3184468
   2 DY2      -0.1180500    -0.0322612     0.0000000    -0.3038020     0.0000000
   2 DYZ       0.0000000     0.0000000     0.0000000     0.0000000     0.0000000
   2 DZZ       0.2361001     0.0645223     0.0000000     0.0000000     0.0000000
--------------------------------------------------------------------------------
Eigenvalue      2.747710      3.068975      3.325932      3.325932      3.512482
 Symmetry        PIu           SGg+          PIg           PIg           DEu     
--------------------------------------------------------------------------------
   1 S         0.0000000     0.0129080     0.0000000     0.0000000     0.0000000
   1 S         0.0000000     0.3318992     0.0000000     0.0000000     0.0000000
   1 S         0.0000000    -0.1765369     0.0000000     0.0000000     0.0000000
   1 PX        0.0000000     0.0000000     0.5422154     0.0000000     0.0000000
   1 PY        0.5936158     0.0000000     0.0000000     0.5422154     0.0000000
   1 PZ        0.0000000    -0.8216556     0.0000000     0.0000000     0.0000000
   1 PX        0.0000000     0.0000000    -1.1529202     0.0000000     0.0000000
   1 PY       -0.3799044     0.0000000     0.0000000    -1.1529202     0.0000000
   1 PZ        0.0000000     0.8778118     0.0000000     0.0000000     0.0000000
   1 DX2       0.0000000     0.1131450     0.0000000     0.0000000     0.0000000
   1 DXY       0.0000000     0.0000000     0.0000000     0.0000000     0.8800032
   1 DXZ       0.0000000     0.0000000     0.7834837     0.0000000     0.0000000
   1 DY2       0.0000000     0.1131450     0.0000000     0.0000000     0.0000000
   1 DYZ      -0.3184468     0.0000000     0.0000000     0.7834837     0.0000000
   1 DZZ       0.0000000    -0.2262900     0.0000000     0.0000000     0.0000000
   2 S         0.0000000     0.0129080     0.0000000     0.0000000     0.0000000
   2 S         0.0000000     0.3318992     0.0000000     0.0000000     0.0000000
   2 S         0.0000000    -0.1765369     0.0000000     0.0000000     0.0000000
   2 PX        0.0000000     0.0000000    -0.5422154     0.0000000     0.0000000
   2 PY        0.5936158     0.0000000     0.0000000    -0.5422154     0.0000000
   2 PZ        0.0000000     0.8216556     0.0000000     0.0000000     0.0000000
   2 PX        0.0000000     0.0000000     1.1529202     0.0000000     0.0000000
   2 PY       -0.3799044     0.0000000     0.0000000     1.1529202     0.0000000
   2 PZ        0.0000000    -0.8778118     0.0000000     0.0000000     0.0000000
   2 DX2       0.0000000     0.1131450     0.0000000     0.0000000     0.0000000
   2 DXY       0.0000000     0.0000000     0.0000000     0.0000000    -0.8800032
   2 DXZ       0.0000000     0.0000000     0.7834837     0.0000000     0.0000000
   2 DY2       0.0000000     0.1131450     0.0000000     0.0000000     0.0000000
   2 DYZ       0.3184468     0.0000000     0.0000000     0.7834837     0.0000000
   2 DZZ       0.0000000    -0.2262900     0.0000000     0.0000000     0.0000000
--------------------------------------------------------------------------------
Eigenvalue      3.512482      3.531893      3.531893      4.079645      5.110942
 Symmetry        DEu           PIu           PIu           SGu+          PIg     
--------------------------------------------------------------------------------
   1 S         0.0000000     0.0000000     0.0000000     0.6738335     0.0000000
   1 S         0.0000000     0.0000000     0.0000000     7.2186113     0.0000000
   1 S         0.0000000     0.0000000     0.0000000     0.1483362     0.0000000
   1 PX        0.0000000     0.6533168     0.0000000     0.0000000     1.0485221
   1 PY        0.0000000     0.0000000     0.6533168     0.0000000     0.0000000
   1 PZ        0.0000000     0.0000000     0.0000000     0.2045182     0.0000000
   1 PX        0.0000000    -0.2493350     0.0000000     0.0000000     0.5030717
   1 PY        0.0000000     0.0000000    -0.2493350     0.0000000     0.0000000
   1 PZ        0.0000000     0.0000000     0.0000000    -3.8011937     0.0000000
   1 DX2       0.4400016     0.0000000     0.0000000    -0.2760139     0.0000000
   1 DXY       0.0000000     0.0000000     0.0000000     0.0000000     0.0000000
   1 DXZ       0.0000000     0.5656769     0.0000000     0.0000000    -1.3810993
   1 DY2      -0.4400016     0.0000000     0.0000000    -0.2760139     0.0000000
   1 DYZ       0.0000000     0.0000000     0.5656769     0.0000000     0.0000000
   1 DZZ       0.0000000     0.0000000     0.0000000     0.5520279     0.0000000
   2 S         0.0000000     0.0000000     0.0000000    -0.6738335     0.0000000
   2 S         0.0000000     0.0000000     0.0000000    -7.2186113     0.0000000
   2 S         0.0000000     0.0000000     0.0000000    -0.1483362     0.0000000
   2 PX        0.0000000     0.6533168     0.0000000     0.0000000    -1.0485221
   2 PY        0.0000000     0.0000000     0.6533168     0.0000000     0.0000000
   2 PZ        0.0000000     0.0000000     0.0000000     0.2045182     0.0000000
   2 PX        0.0000000    -0.2493350     0.0000000     0.0000000    -0.5030717
   2 PY        0.0000000     0.0000000    -0.2493350     0.0000000     0.0000000
   2 PZ        0.0000000     0.0000000     0.0000000    -3.8011937     0.0000000
   2 DX2      -0.4400016     0.0000000     0.0000000     0.2760139     0.0000000
   2 DXY       0.0000000     0.0000000     0.0000000     0.0000000     0.0000000
   2 DXZ       0.0000000    -0.5656769     0.0000000     0.0000000    -1.3810993
   2 DY2       0.4400016     0.0000000     0.0000000     0.2760139     0.0000000
   2 DYZ       0.0000000     0.0000000    -0.5656769     0.0000000     0.0000000
   2 DZZ       0.0000000     0.0000000     0.0000000    -0.5520279     0.0000000
--------------------------------------------------------------------------------
Eigenvalue      5.110942      5.188403      6.283780
 Symmetry        PIg           SGg+          SGu+    
--------------------------------------------------------------------------------
   1 S         0.0000000     1.2168381     1.5342258
   1 S         0.0000000    -0.5703636     4.5585266
   1 S         0.0000000     0.0905693    -0.6224672
   1 PX        0.0000000     0.0000000     0.0000000
   1 PY        1.0485221     0.0000000     0.0000000
   1 PZ        0.0000000    -0.0591412    -1.9800195
   1 PX        0.0000000     0.0000000     0.0000000
   1 PY        0.5030717     0.0000000     0.0000000
   1 PZ        0.0000000     0.7377650    -1.7606891
   1 DX2       0.0000000     0.3257610    -0.3010683
   1 DXY       0.0000000     0.0000000     0.0000000
   1 DXZ       0.0000000     0.0000000     0.0000000
   1 DY2       0.0000000     0.3257610    -0.3010683
   1 DYZ      -1.3810993     0.0000000     0.0000000
   1 DZZ       0.0000000    -0.6515219     0.6021365
   2 S         0.0000000     1.2168381    -1.5342258
   2 S         0.0000000    -0.5703636    -4.5585266
   2 S         0.0000000     0.0905693     0.6224672
   2 PX        0.0000000     0.0000000     0.0000000
   2 PY       -1.0485221     0.0000000     0.0000000
   2 PZ        0.0000000     0.0591412    -1.9800195
   2 PX        0.0000000     0.0000000     0.0000000
   2 PY       -0.5030717     0.0000000     0.0000000
   2 PZ        0.0000000    -0.7377650    -1.7606891
   2 DX2       0.0000000     0.3257610     0.3010683
   2 DXY       0.0000000     0.0000000     0.0000000
   2 DXZ       0.0000000     0.0000000     0.0000000
   2 DY2       0.0000000     0.3257610     0.3010683
   2 DYZ      -1.3810993     0.0000000     0.0000000
   2 DZZ       0.0000000    -0.6515219    -0.6021365
--------------------------------------------------------------------------------
--------------------------------------------------------------------------------
Eigenvalue     -0.541398     -0.136464      0.011526      0.274271      0.274271
 Symmetry        SGg+          SGu+          SGg+          PIu           PIu     
--------------------------------------------------------------------------------
   1 S         0.1722518     0.0838767     0.0852300     0.0000000     0.0000000
   1 S         0.2693073     0.0572597     0.7100242     0.0000000     0.0000000
   1 S         0.1663822     1.9427185    -0.8362131     0.0000000     0.0000000
   1 PX        0.0000000     0.0000000     0.0000000     0.0487932     0.0000000
   1 PY        0.0000000     0.0000000     0.0000000     0.0000000     0.0487932
   1 PZ       -0.0087057     0.0202173    -0.0163861     0.0000000     0.0000000
   1 PX        0.0000000     0.0000000     0.0000000    -0.5727219     0.0000000
   1 PY        0.0000000     0.0000000     0.0000000     0.0000000    -0.5727219
   1 PZ       -0.0111430     0.0641245     0.0285690     0.0000000     0.0000000
   1 DX2       0.0000746     0.0021229     0.0016734     0.0000000     0.0000000
   1 DXY       0.0000000     0.0000000     0.0000000     0.0000000     0.0000000
   1 DXZ       0.0000000     0.0000000     0.0000000    -0.0057234     0.0000000
   1 DY2       0.0000746     0.0021229     0.0016734     0.0000000     0.0000000
   1 DYZ       0.0000000     0.0000000     0.0000000     0.0000000    -0.0057234
   1 DZZ      -0.0001492    -0.0042458    -0.0033467     0.0000000     0.0000000
   2 S         0.1722518    -0.0838767     0.0852300     0.0000000     0.0000000
   2 S         0.2693073    -0.0572597     0.7100242     0.0000000     0.0000000
   2 S         0.1663822    -1.9427185    -0.8362131     0.0000000     0.0000000
   2 PX        0.0000000     0.0000000     0.0000000     0.0487932     0.0000000
   2 PY        0.0000000     0.0000000     0.0000000     0.0000000     0.0487932
   2 PZ        0.0087057     0.0202173     0.0163861     0.0000000     0.0000000
   2 PX        0.0000000     0.0000000     0.0000000    -0.5727219     0.0000000
   2 PY        0.0000000     0.0000000     0.0000000     0.0000000    -0.5727219
   2 PZ        0.0111430     0.0641245    -0.0285690     0.0000000     0.0000000
   2 DX2       0.0000746    -0.0021229     0.0016734     0.0000000     0.0000000
   2 DXY       0.0000000     0.0000000     0.0000000     0.0000000     0.0000000
   2 DXZ       0.0000000     0.0000000     0.0000000     0.0057234     0.0000000
   2 DY2       0.0000746    -0.0021229     0.0016734     0.0000000     0.0000000
   2 DYZ       0.0000000     0.0000000     0.0000000     0.0000000     0.0057234
   2 DZZ      -0.0001492     0.0042458    -0.0033467     0.0000000     0.0000000
--------------------------------------------------------------------------------
Eigenvalue      0.281671      0.685983      0.702607      0.702607      1.140601
 Symmetry        SGu+          SGg+          PIg           PIg           SGu+    
--------------------------------------------------------------------------------
   1 S         0.1338318     0.0166382     0.0000000     0.0000000     0.0267160
   1 S         2.0780752     0.6649797     0.0000000     0.0000000    12.8730429
   1 S        -2.5176586    -0.3713272     0.0000000     0.0000000    -0.2499108
   1 PX        0.0000000     0.0000000     0.0550912     0.0000000     0.0000000
   1 PY        0.0000000     0.0000000     0.0000000     0.0550912     0.0000000
   1 PZ       -0.0631278    -0.0872945     0.0000000     0.0000000    -0.1277882
   1 PX        0.0000000     0.0000000    -1.3971538     0.0000000     0.0000000
   1 PY        0.0000000     0.0000000     0.0000000    -1.3971538     0.0000000
   1 PZ       -0.1581362     1.0475742     0.0000000     0.0000000    -6.1443625
   1 DX2      -0.0154581     0.0168109     0.0000000     0.0000000    -0.0788418
   1 DXY       0.0000000     0.0000000     0.0000000     0.0000000     0.0000000
   1 DXZ       0.0000000     0.0000000     0.0972338     0.0000000     0.0000000
   1 DY2      -0.0154581     0.0168109     0.0000000     0.0000000    -0.0788418
   1 DYZ       0.0000000     0.0000000     0.0000000     0.0972338     0.0000000
   1 DZZ       0.0309162    -0.0336219     0.0000000     0.0000000     0.1576836
   2 S        -0.1338318     0.0166382     0.0000000     0.0000000    -0.0267160
   2 S        -2.0780752     0.6649797     0.0000000     0.0000000   -12.8730429
   2 S         2.5176586    -0.3713272     0.0000000     0.0000000     0.2499108
   2 PX        0.0000000     0.0000000    -0.0550912     0.0000000     0.0000000
   2 PY        0.0000000     0.0000000     0.0000000    -0.0550912     0.0000000
   2 PZ       -0.0631278     0.0872945     0.0000000     0.0000000    -0.1277882
   2 PX        0.0000000     0.0000000     1.3971538     0.0000000     0.0000000
   2 PY        0.0000000     0.0000000     0.0000000     1.3971538     0.0000000
   2 PZ       -0.1581362    -1.0475742     0.0000000     0.0000000    -6.1443625
   2 DX2       0.0154581     0.0168109     0.0000000     0.0000000     0.0788418
   2 DXY       0.0000000     0.0000000     0.0000000     0.0000000     0.0000000
   2 DXZ       0.0000000     0.0000000     0.0972338     0.0000000     0.0000000
   2 DY2       0.0154581     0.0168109     0.0000000     0.0000000     0.0788418
   2 DYZ       0.0000000     0.0000000     0.0000000     0.0972338     0.0000000
   2 DZZ      -0.0309162    -0.0336219     0.0000000     0.0000000    -0.1576836
--------------------------------------------------------------------------------
Eigenvalue      1.857375      1.908526      2.627953      2.627953      2.848407
 Symmetry        SGu+          SGg+          DEg           DEg           PIu     
--------------------------------------------------------------------------------
   1 S         0.6473466     0.9508482     0.0000000     0.0000000     0.0000000
   1 S        -3.7103589    -1.0072631     0.0000000     0.0000000     0.0000000
   1 S         1.4143948     0.4085545     0.0000000     0.0000000     0.0000000
   1 PX        0.0000000     0.0000000     0.0000000     0.0000000     0.5861970
   1 PY        0.0000000     0.0000000     0.0000000     0.0000000     0.0000000
   1 PZ        0.5404776    -0.1070383     0.0000000     0.0000000     0.0000000
   1 PX        0.0000000     0.0000000     0.0000000     0.0000000    -0.3638286
   1 PY        0.0000000     0.0000000     0.0000000     0.0000000     0.0000000
   1 PZ        0.7986241     0.2246674     0.0000000     0.0000000     0.0000000
   1 DX2       0.1211638    -0.0339691     0.3038020     0.0000000     0.0000000
   1 DXY       0.0000000     0.0000000     0.0000000     0.6076039     0.0000000
   1 DXZ       0.0000000     0.0000000     0.0000000     0.0000000    -0.3239198
   1 DY2       0.1211638    -0.0339691    -0.3038020     0.0000000     0.0000000
   1 DYZ       0.0000000     0.0000000     0.0000000     0.0000000     0.0000000
   1 DZZ      -0.2423276     0.0679382     0.0000000     0.0000000     0.0000000
   2 S        -0.6473466     0.9508482     0.0000000     0.0000000     0.0000000
   2 S         3.7103589    -1.0072631     0.0000000     0.0000000     0.0000000
   2 S        -1.4143948     0.4085545     0.0000000     0.0000000     0.0000000
   2 PX        0.0000000     0.0000000     0.0000000     0.0000000     0.5861970
   2 PY        0.0000000     0.0000000     0.0000000     0.0000000     0.0000000
   2 PZ        0.5404776     0.1070383     0.0000000     0.0000000     0.0000000
   2 PX        0.0000000     0.0000000     0.0000000     0.0000000    -0.3638286
   2 PY        0.0000000     0.0000000     0.0000000     0.0000000     0.0000000
   2 PZ        0.7986241    -0.2246674     0.0000000     0.0000000     0.0000000
   2 DX2      -0.1211638    -0.0339691     0.3038020     0.0000000     0.0000000
   2 DXY       0.0000000     0.0000000     0.0000000     0.6076039     0.0000000
   2 DXZ       0.0000000     0.0000000     0.0000000     0.0000000     0.3239198
   2 DY2      -0.1211638    -0.0339691    -0.3038020     0.0000000     0.0000000
   2 DYZ       0.0000000     0.0000000     0.0000000     0.0000000     0.0000000
   2 DZZ       0.2423276     0.0679382     0.0000000     0.0000000     0.0000000
--------------------------------------------------------------------------------
Eigenvalue      2.848407      3.140627      3.369669      3.369669      3.541916
 Symmetry        PIu           SGg+          PIg           PIg           DEu     
--------------------------------------------------------------------------------
   1 S         0.0000000     0.0539309     0.0000000     0.0000000     0.0000000
   1 S         0.0000000     0.2998844     0.0000000     0.0000000     0.0000000
   1 S         0.0000000    -0.1657830     0.0000000     0.0000000     0.0000000
   1 PX        0.0000000     0.0000000     0.5272527     0.0000000     0.0000000
   1 PY        0.5861970     0.0000000     0.0000000     0.5272527     0.0000000
   1 PZ        0.0000000    -0.8237244     0.0000000     0.0000000     0.0000000
   1 PX        0.0000000     0.0000000    -1.1481350     0.0000000     0.0000000
   1 PY       -0.3638286     0.0000000     0.0000000    -1.1481350     0.0000000
   1 PZ        0.0000000     0.8772724     0.0000000     0.0000000     0.0000000
   1 DX2       0.0000000     0.1176467     0.0000000     0.0000000     0.0000000
   1 DXY       0.0000000     0.0000000     0.0000000     0.0000000     0.8800032
   1 DXZ       0.0000000     0.0000000     0.8016850     0.0000000     0.0000000
   1 DY2       0.0000000     0.1176467     0.0000000     0.0000000     0.0000000
   1 DYZ      -0.3239198     0.0000000     0.0000000     0.8016850     0.0000000
   1 DZZ       0.0000000    -0.2352935     0.0000000     0.0000000     0.0000000
   2 S         0.0000000     0.0539309     0.0000000     0.0000000     0.0000000
   2 S         0.0000000     0.2998844     0.0000000     0.0000000     0.0000000
   2 S         0.0000000    -0.1657830     0.0000000     0.0000000     0.0000000
   2 PX        0.0000000     0.0000000    -0.5272527     0.0000000     0.0000000
   2 PY        0.5861970     0.0000000     0.0000000    -0.5272527     0.0000000
   2 PZ        0.0000000     0.8237244     0.0000000     0.0000000     0.0000000
   2 PX        0.0000000     0.0000000     1.1481350     0.0000000     0.0000000
   2 PY       -0.3638286     0.0000000     0.0000000     1.1481350     0.0000000
   2 PZ        0.0000000    -0.8772724     0.0000000     0.0000000     0.0000000
   2 DX2       0.0000000     0.1176467     0.0000000     0.0000000     0.0000000
   2 DXY       0.0000000     0.0000000     0.0000000     0.0000000    -0.8800032
   2 DXZ       0.0000000     0.0000000     0.8016850     0.0000000     0.0000000
   2 DY2       0.0000000     0.1176467     0.0000000     0.0000000     0.0000000
   2 DYZ       0.3239198     0.0000000     0.0000000     0.8016850     0.0000000
   2 DZZ       0.0000000    -0.2352935     0.0000000     0.0000000     0.0000000
--------------------------------------------------------------------------------
Eigenvalue      3.541916      3.567233      3.567233      4.112863      5.152182
 Symmetry        DEu           PIu           PIu           SGu+          PIg     
--------------------------------------------------------------------------------
   1 S         0.0000000     0.0000000     0.0000000     0.6786068     0.0000000
   1 S         0.0000000     0.0000000     0.0000000     7.1820036     0.0000000
   1 S         0.0000000     0.0000000     0.0000000     0.1488545     0.0000000
   1 PX        0.0000000     0.6589837     0.0000000     0.0000000     1.0557640
   1 PY        0.0000000     0.0000000     0.6589837     0.0000000     0.0000000
   1 PZ        0.0000000     0.0000000     0.0000000     0.2014128     0.0000000
   1 PX        0.0000000    -0.2512401     0.0000000     0.0000000     0.4910893
   1 PY        0.0000000     0.0000000    -0.2512401     0.0000000     0.0000000
   1 PZ        0.0000000     0.0000000     0.0000000    -3.7832991     0.0000000
   1 DX2       0.4400016     0.0000000     0.0000000    -0.2762283     0.0000000
   1 DXY       0.0000000     0.0000000     0.0000000     0.0000000     0.0000000
   1 DXZ       0.0000000     0.5625318     0.0000000     0.0000000    -1.3704206
   1 DY2      -0.4400016     0.0000000     0.0000000    -0.2762283     0.0000000
   1 DYZ       0.0000000     0.0000000     0.5625318     0.0000000     0.0000000
   1 DZZ       0.0000000     0.0000000     0.0000000     0.5524567     0.0000000
   2 S         0.0000000     0.0000000     0.0000000    -0.6786068     0.0000000
   2 S         0.0000000     0.0000000     0.0000000    -7.1820036     0.0000000
   2 S         0.0000000     0.0000000     0.0000000    -0.1488545     0.0000000
   2 PX        0.0000000     0.6589837     0.0000000     0.0000000    -1.0557640
   2 PY        0.0000000     0.0000000     0.6589837     0.0000000     0.0000000
   2 PZ        0.0000000     0.0000000     0.0000000     0.2014128     0.0000000
   2 PX        0.0000000    -0.2512401     0.0000000     0.0000000    -0.4910893
   2 PY        0.0000000     0.0000000    -0.2512401     0.0000000     0.0000000
   2 PZ        0.0000000     0.0000000     0.0000000    -3.7832991     0.0000000
   2 DX2      -0.4400016     0.0000000     0.0000000     0.2762283     0.0000000
   2 DXY       0.0000000     0.0000000     0.0000000     0.0000000     0.0000000
   2 DXZ       0.0000000    -0.5625318     0.0000000     0.0000000    -1.3704206
   2 DY2       0.4400016     0.0000000     0.0000000     0.2762283     0.0000000
   2 DYZ       0.0000000     0.0000000    -0.5625318     0.0000000     0.0000000
   2 DZZ       0.0000000     0.0000000     0.0000000    -0.5524567     0.0000000
--------------------------------------------------------------------------------
Eigenvalue      5.152182      5.235966      6.355916
 Symmetry        PIg           SGg+          SGu+    
--------------------------------------------------------------------------------
   1 S         0.0000000     1.2134237     1.5406853
   1 S         0.0000000    -0.5719693     4.5119674
   1 S         0.0000000     0.0919727    -0.6130698
   1 PX        0.0000000     0.0000000     0.0000000
   1 PY        1.0557640     0.0000000     0.0000000
   1 PZ        0.0000000    -0.0453372    -1.9748055
   1 PX        0.0000000     0.0000000     0.0000000
   1 PY        0.4910893     0.0000000     0.0000000
   1 PZ        0.0000000     0.7257928    -1.7453069
   1 DX2       0.0000000     0.3239792    -0.2991970
   1 DXY       0.0000000     0.0000000     0.0000000
   1 DXZ       0.0000000     0.0000000     0.0000000
   1 DY2       0.0000000     0.3239792    -0.2991970
   1 DYZ      -1.3704206     0.0000000     0.0000000
   1 DZZ       0.0000000    -0.6479585     0.5983940
   2 S         0.0000000     1.2134237    -1.5406853
   2 S         0.0000000    -0.5719693    -4.5119674
   2 S         0.0000000     0.0919727     0.6130698
   2 PX        0.0000000     0.0000000     0.0000000
   2 PY       -1.0557640     0.0000000     0.0000000
   2 PZ        0.0000000     0.0453372    -1.9748055
   2 PX        0.0000000     0.0000000     0.0000000
   2 PY       -0.4910893     0.0000000     0.0000000
   2 PZ        0.0000000    -0.7257928    -1.7453069
   2 DX2       0.0000000     0.3239792     0.2991970
   2 DXY       0.0000000     0.0000000     0.0000000
   2 DXZ       0.0000000     0.0000000     0.0000000
   2 DY2       0.0000000     0.3239792     0.2991970
   2 DYZ      -1.3704206     0.0000000     0.0000000
   2 DZZ       0.0000000    -0.6479585    -0.5983940
--------------------------------------------------------------------------------


 
  ORBITAL EIGENVALUES (ALPHA)  (1H = 27.2113838 eV)

       MO #        E(hartree)               E(eV)           FULLSYM    COMPSYM
       ----   --------------------   --------------------   -------   ---------
    1     1          -1.2832649137         -34.9194141081    SGg+        Ag (1)
  +++++++++++++++++++++++++++++++++++++++++++++++++++++++++++++++++++++++++++++
    2    15          -0.1987121439          -5.4072324178    SGu+       B1u (5)
    3     2          -0.0459312586          -1.2498531083    SGg+        Ag (1)
    4     8           0.1936951902           5.2707141653    PIu        B2u (2)
    5    11           0.1936951902           5.2707141653    PIu        B3u (3)
    6    16           0.1991668831           5.4196064996    SGu+       B1u (5)
    7     3           0.6437100828          17.5162421311    SGg+        Ag (1)
    8    22           0.6784020522          18.4602586273    PIg        B3g (6)
    9    25           0.6784020522          18.4602586273    PIg        B2g (7)
   10    17           1.1327499243          30.8236929605    SGu+       B1u (5)
   11    18           1.7600367379          47.8930352115    SGu+       B1u (5)
   12     4           1.7929627370          48.7889972105    SGg+        Ag (1)
   13    14           2.5769279530          70.1217756056    DEg        B1g (4)
   14     5           2.5769279530          70.1217756056    DEg         Ag (1)
   15    12           2.7477095486          74.7689791530    PIu        B2u (3)
   16     9           2.7477095486          74.7689791530    PIu        B3u (2)
   17     6           3.0689747326          83.5110493823    SGg+        Ag (1)
   18    23           3.3259315742          90.5032006236    PIg        B3g (6)
   19    26           3.3259315742          90.5032006236    PIg        B2g (7)
   20    28           3.5124818548          95.5794919098    DEu         Au (8)
   21    19           3.5124818548          95.5794919098    DEu        B1u (5)
   22    13           3.5318934207          96.1077074810    PIu        B2u (3)
   23    10           3.5318934207          96.1077074810    PIu        B3u (2)
   24    20           4.0796446688         111.0127769303    SGu+       B1u (5)
   25    27           5.1109415782         139.0757929650    PIg        B3g (7)
   26    24           5.1109415782         139.0757929650    PIg        B2g (6)
   27     7           5.1884028046         141.1836201274    SGg+        Ag (1)
   28    21           6.2837800808         170.9903516159    SGu+       B1u (5)


 
  ORBITAL EIGENVALUES ( BETA)  (1H = 27.2113838 eV)

       MO #        E(hartree)               E(eV)           FULLSYM    COMPSYM
       ----   --------------------   --------------------   -------   ---------
    1     1          -0.5413981643         -14.7321932481    SGg+        Ag (1)
    2    15          -0.1364644937          -3.7133877145    SGu+       B1u (5)
    3     2           0.0115262431           0.3136450256    SGg+        Ag (1)
    4     8           0.2742709445           7.4632919404    PIu        B2u (2)
    5    11           0.2742709445           7.4632919404    PIu        B3u (3)
    6    16           0.2816714460           7.6646698294    SGu+       B1u (5)
    7     3           0.6859829036          18.6665440835    SGg+        Ag (1)
    8    22           0.7026065456          19.1188963877    PIg        B3g (6)
    9    25           0.7026065456          19.1188963877    PIg        B2g (7)
   10    17           1.1406011385          31.0373353651    SGu+       B1u (5)
   11    18           1.8573749707          50.5417432251    SGu+       B1u (5)
   12     4           1.9085264745          51.9336464276    SGg+        Ag (1)
   13    14           2.6279534694          71.5102505145    DEg         Ag (4)
   14     5           2.6279534694          71.5102505145    DEg        B1g (1)
   15    12           2.8484067269          77.5090887204    PIu        B2u (3)
   16     9           2.8484067269          77.5090887204    PIu        B3u (2)
   17     6           3.1406272926          85.4608146922    SGg+        Ag (1)
   18    23           3.3696689506          91.6933551586    PIg        B3g (6)
   19    26           3.3696689506          91.6933551586    PIg        B2g (7)
   20    28           3.5419162044          96.3804412934    DEu         Au (8)
   21    19           3.5419162044          96.3804412934    DEu        B1u (5)
   22    13           3.5672329529          97.0693450563    PIu        B2u (3)
   23    10           3.5672329529          97.0693450563    PIu        B3u (2)
   24    20           4.1128631664         111.9166982179    SGu+       B1u (5)
   25    27           5.1521816280         140.1979917871    PIg        B3g (7)
   26    24           5.1521816280         140.1979917871    PIg        B2g (6)
   27     7           5.2359662037         142.4778860343    SGg+        Ag (1)
   28    21           6.3559156385         172.9532599644    SGu+       B1u (5)


  VSCF finished.

  @CHECKOUT-I, Total execution time (CPU/WALL):        0.02/       0.19 seconds.
--executable xvscf finished with status     0 in        0.30 seconds (walltime).
 --invoking executable--
/project1/nike/cfour_v2.00beta_May2019xnmol_noLABBASIS/bin/xvtran
 @GETMEM-I,  Allocated    1907 MB of main memory.
  Full UHF integral transformation
  @GTNRB2-I, There are  8 irreducible representations.
  Transformation of IIII integrals :
  2 passes through the AO integral file were required.
         634 AO integrals were read.
         898 MO integrals (Spin case AAAA) were written to HF2AA.
         898 MO integrals (Spin case BBBB) were written to HF2BB.
        1714 MO integrals (Spin case AABB) were written to HF2AB.
  Transformation of IIJJ integrals :
  2 passes through the AO integral file were required.
        2217 AO integrals were read.
        2505 MO integrals (Spin case AAAA) were written to HF2AA.
        2505 MO integrals (Spin case BBBB) were written to HF2BB.
        5010 MO integrals (Spin case AABB) were written to HF2AB.
  Transformation of IJIJ integrals :
  2 passes through the AO integral file were required.
        3036 AO integrals were read.
        3504 MO integrals (Spin case AAAA) were written to HF2AA.
        3504 MO integrals (Spin case BBBB) were written to HF2BB.
        6684 MO integrals (Spin case AABB) were written to HF2AB.
  Transformation of IJKL integrals :
  2 passes through the AO integral file were required.
        4494 AO integrals were read.
        4602 MO integrals (Spin case AAAA) were written to HF2AA.
        4602 MO integrals (Spin case BBBB) were written to HF2BB.
        9204 MO integrals (Spin case AABB) were written to HF2AB.
  Summary of active molecular orbitals: 
------------------------------------------------------------------------
                         * Spin case alpha *
 
  Index      Eigenvalue    Symmetry    Index      Eigenvalue    Symmetry
------------------------------------------------------------------------
     1        -1.2832649        1        15        -0.1987121        5
     2        -0.0459313        1        16         0.1991669        5
     3         0.6437101        1        17         1.1327499        5
     4         1.7929627        1        18         1.7600367        5
     5         2.5769280        1        19         3.5124819        5
     6         3.0689747        1        20         4.0796447        5
     7         5.1884028        1        21         6.2837801        5
     8         0.1936952        2        22         0.6784021        6
     9         2.7477095        2        23         3.3259316        6
    10         3.5318934        2        24         5.1109416        6
    11         0.1936952        3        25         0.6784021        7
    12         2.7477095        3        26         3.3259316        7
    13         3.5318934        3        27         5.1109416        7
    14         2.5769280        4        28         3.5124819        8
------------------------------------------------------------------------
------------------------------------------------------------------------
                         * Spin case beta *
 
  Index      Eigenvalue    Symmetry    Index      Eigenvalue    Symmetry
------------------------------------------------------------------------
     1        -0.5413982        1        15        -0.1364645        5
     2         0.0115262        1        16         0.2816714        5
     3         0.6859829        1        17         1.1406011        5
     4         1.9085265        1        18         1.8573750        5
     5         2.6279535        1        19         3.5419162        5
     6         3.1406273        1        20         4.1128632        5
     7         5.2359662        1        21         6.3559156        5
     8         0.2742709        2        22         0.7026065        6
     9         2.8484067        2        23         3.3696690        6
    10         3.5672330        2        24         5.1521816        6
    11         0.2742709        3        25         0.7026065        7
    12         2.8484067        3        26         3.3696690        7
    13         3.5672330        3        27         5.1521816        7
    14         2.6279535        4        28         3.5419162        8
------------------------------------------------------------------------
  @CHECKOUT-I, Total execution time (CPU/WALL):        0.04/       2.50 seconds.
--executable xvtran finished with status     0 in        2.58 seconds (walltime).
 --invoking executable--
/project1/nike/cfour_v2.00beta_May2019xnmol_noLABBASIS/bin/xintprc
 @GETMEM-I,  Allocated    1907 MB of main memory.
  @GMOIAA-I, Processing MO integrals for spin case AA.
  @GMOIAA-I, Generation of integral list completed.
                      TYPE                NUMBER
                      ----               --------
                      PPPP                  9873
                      PPPH                  1479
                      PPHH                    75
                      PHPH                    75
                      PHHH                     6
                      HHHH                     1

                     TOTAL                 11509
  @GMOIAA-I, Processing MO integrals for spin case BB.
  @GMOIAA-I, Generation of integral list completed.
                      TYPE                NUMBER
                      ----               --------
                      PPPP                 11509
                      PPPH                     0
                      PPHH                     0
                      PHPH                     0
                      PHHH                     0
                      HHHH                     0

                     TOTAL                 11509
  @GMOIAB-I, Processing MO integrals for spin case AB.
                      TYPE                NUMBER
                      ----               --------
                      PPPP                 20922
                      PPPH1H                1608
                      PPPH2H                   0
                      PPHH                     0
                      PHPH1P                   0
                      PHPH2P                  82
                      PHHH1P                   0
                      PHHH2P                   0
                      HHHH                     0

                     TOTAL                 22612
  @DS16AA-I, Sort of HHHHAA will be done in core.
   Words required:    1821 Words available:********.
  @ST16AA-I, Processing integral type HHHH spin case AA.
  @DS16AA-I, Sort of HHHHBB will be done in core.
   Words required:    1817 Words available:********.
  @ST16AA-I, Processing integral type HHHH spin case BB.
  @DS16AB-I, Sort of HHHHAB will be done in core.
   Words required:    1817 Words available:********.
  @ST16AB-I, Processing integral type HHHH spin case AB.
  @DS25AA-I, PHHHAA integrals will be sorted in core.
     Words required:       59  Words available: ********
  @ST25AA-I, Processing integral type PHHH spin case AA.
  @DS25AA-I, PHHHBB integrals will be sorted in core.
     Words required:       25  Words available: ********
  @ST25AA-I, Processing integral type PHHH spin case BB.
  @DS25AB-I, PHHHAB integrals will be sorted in core.
     Words required:     5417  Words available: ********
  @ST25AB-I, Processing integral type PHHH spin case AB.
  @DS25AB-I, PHHH   integrals will be sorted in core.
[...]
     Words required:      431  Words available: ********
  @ST25AA-I, Processing integral type PPPH spin case BB.
  @DS25AB-I, PPPHAB integrals will be sorted in core.
     Words required:     9249  Words available: ********
  @ST25AB-I, Processing integral type PPPH spin case AB.
  @DS25AB-I, PPPH   integrals will be sorted in core.
     Words required:     6173  Words available: ********
  @ST25AB-I, Processing integral type PPPH spin case BA.
  @DS16AA-I, Sort of PPPPAA will be done in core.
   Words required:   27566 Words available:********.
  @ST16AA-I, Processing integral type PPPP spin case AA.
  @DS16AA-I, Sort of PPPPBB will be done in core.
   Words required:   31965 Words available:********.
  @ST16AA-I, Processing integral type PPPP spin case BB.
  @DS16AB-I, Sort of PPPPAB will be done in core.
   Words required:   79145 Words available:********.
  @ST16AB-I, Processing integral type PPPP spin case AB.
  ALPHA EIGENVALUES 
  -1.28326  -0.04593   0.64371   1.79296   2.57693   3.06897   5.18840
   0.19370   2.74771   3.53189   0.19370   2.74771   3.53189   2.57693
  -0.19871   0.19917   1.13275   1.76004   3.51248   4.07964   6.28378
   0.67840   3.32593   5.11094   0.67840   3.32593   5.11094   3.51248
  BETA EIGENVALUES 
  -0.54140   0.01153   0.68598   1.90853   2.62795   3.14063   5.23597
   0.27427   2.84841   3.56723   0.27427   2.84841   3.56723   2.62795
  -0.13646   0.28167   1.14060   1.85737   3.54192   4.11286   6.35592
   0.70261   3.36967   5.15218   0.70261   3.36967   5.15218   3.54192
            ----------------------------------------------
                     Projected spin multiplicities: 
            ----------------------------------------------
             <0|S^2|0>                  =    0.7500000000.
             <0|S^2 T2|0>               =    0.0000000000.
             Projected <0|S^2 exp(T)|0> =    0.7500000000.
             Approximate spin mult.     =    2.0000000000.
            ----------------------------------------------
------------------------------------------------------------------------
          Core memory requirement for full matrix algorithms

    Contraction or quantity             Memory needed (words)
                                      C1                     D2h
------------------------------------------------------------------------
  Particle-particle ladder (AB)      571536                   16641
  Hole-hole ladder (AB)                   0                       0
  Fourth-order singles (AB)               0                       0
  Rings (AB)                              0                     147
  T2 vector (AB)                          0                       0
  T2 vector (AA)                          0                       0
------------------------------------------------------------------------
------------------------------------------------------------------------
     Floating point operations required for full  matrix algorithms

  Term            spins   method                    FLOP
                                           C1                 D2h
------------------------------------------------------------------------
 a) contributions to the intermediates :
 
 T2 --> W(MNIJ)  (AAAA)   2 - 7                0                 0
 T2 --> W(MNIJ)  (BBBB)   2 - 7                0                 0
 T2 --> W(MNIJ)  (ABAB)   2 - 7                0                 0
 
 T1 --> W(MNIJ)  (AAAA)     7                  0                 0
 T1 --> W(MNIJ)  (BBBB)     7                  0                 0
 T1 --> W(MNIJ)  (ABAB)     7                  0                 0
 
 T2 --> W(MBEJ)  (AAAA)   3 - 7            19683               669
 T2 --> W(MBEJ)  (BBBB)   3 - 7                0                 0
 T2 --> W(MBEJ)  (ABAB)   3 - 7                0                 0
 T2 --> W(MBEJ)  (BAAB)   3 - 7                0                 0
 T2 --> W(MBEJ)  (BABA)   3 - 7                0                 0
 T2 --> W(MBEJ)  (ABBA)   3 - 7                0               378
 
 T1 --> W(MBEJ)  (AAAA)     7              20412               774
 T1 --> W(MBEJ)  (BBBB)     7                  0                 0
 T1 --> W(MBEJ)  (ABAB)     7                  0                 0
 T1 --> W(MBEJ)  (BAAB)     7                  0                 0
 T1 --> W(MBEJ)  (BABA)     7                  0                 0
 T1 --> W(MBEJ)  (ABBA)     7              21168              1008
 
 T1 --> W(ABEF)  (AAAA)     7                  0                 0
 T1 --> W(ABEF)  (BBBB)     7                  0                 0
 T1 --> W(ABEF)  (ABAB)     7                  0                 0
 
 T2 --> F(MI)    (AA)     3 - 7              351                48
 T2 --> F(MI)    (BB)     3 - 7                0                 0
 
 T2 --> F(AE)    (AA)     3 - 7                0                 0
 T2 --> F(AE)    (BB)     3 - 7                0                 0
 
b) contractions
------------------------------------------------------------------------
 
 W(ABEF) --> T2 (AAAA)    1 - 7                0                 0
 W(ABEF) --> T2 (BBBB)    1 - 7                0                 0
 W(ABEF) --> T2 (ABAB)    1 - 7                0                 0
 
 W(MNIJ) --> T2 (AAAA)    1 - 7                0                 0
 W(MNIJ) --> T2 (BBBB)    1 - 7                0                 0
 W(MNIJ) --> T2 (ABAB)    1 - 7                0                 0
 
 W(MBEJ) --> T2 (AAAA)    1 - 7            19683               669
 W(MBEJ) --> T2 (BBBB)    1 - 7                0                 0
 W(MBEJ) --> T2 (ABAB)    1 - 7                0                 0
 W(MBEJ) --> T2 (BAAB)    1 - 7                0                 0
 W(MBEJ) --> T2 (BABA)    1 - 7                0                 0
 W(MBEJ) --> T2 (ABBA)    1 - 7                0                 0
 
 F(MI) --> T2   (AAAA)    2 - 7              351                48
 F(MI) --> T2   (BBBB)    2 - 7                0                 0
 F(MI) --> T2   (ABAB)    2 - 7                0                 0
 
 F(AE) --> T2   (AAAA)    2 - 7                0                 0
 F(AE) --> T2   (BBBB)    2 - 7                0                 0
 F(AE) --> T2   (ABAB)    2 - 7                0                 0
 
c) direct contributions
------------------------------------------------------------------------
 
 T2 --> T1       (AA)     3,4,6,7           9477               288
 T2 --> T1       (BB)     3,4,6,7              0                 0
 
 T1 --> T2      (AAAA)     6,7              9477               288
 T1 --> T2      (BBBB)     6,7                 0                 0
 T1 --> T2      (ABAB)     6,7                 0                 0
 
 T1**2 --> T2   (AAAA)      7               1458                72
 T1**2 --> T2   (BBBB)      7                  0                 0
 T1**2 --> T2   (ABAB)      7                  0                 0
 T1**2 --> T2   (BAAB)      7                  0                 0
 T1**2 --> T2   (BABA)      7                  0                 0
 T1**2 --> T2   (ABBA)      7                  0                 0
 
d) total number of operations for various methods
------------------------------------------------------------------------
 
 MBPT(3)                        (1)        19683               669
 DQ-MBPT(4)                     (2)        59751              2481
 SDQ-MBPT(4)                    (3)        69228              2769
 CCD          per iteration     (5)        40068              1812
 QCISD        per iteration     (6)        59022              2388
 CCSD         per iteration     (7)       102060              4242
 
------------------------------------------------------------------------
  @CHECKOUT-I, Total execution time (CPU/WALL):        0.05/       1.23 seconds.
--executable xintprc finished with status     0 in        1.43 seconds (walltime).
  calling xvcc 
 --invoking executable--
/project1/nike/cfour_v2.00beta_May2019xnmol_noLABBASIS/bin/xvcc
 @GETMEM-I,  Allocated    1907 MB of main memory.
   CCSD(T) energy will be calculated.
   The reference state is a ROHF wave function.
   The reference state is a general non-HF wave function.
   Correlation energies computed from initial T amplitudes: 
   Initial T amplitudes: 
   Largest T1 amplitudes for spin case AA:
   i       a                 i       a                 i       a    
-----------------------------------------------------------------------------
[  1       4    ] 0.00000 [  1       7    ] 0.00000 [  1       6    ] 0.00000
[  1       2    ] 0.00000 [  1       3    ] 0.00000 [  1       5    ] 0.00000
[  1       1    ] 0.00000 [  1       1    ] 0.00000 [  1       1    ] 0.00000
[  1       1    ] 0.00000 [  1       1    ] 0.00000 [  1       1    ] 0.00000
[  1       1    ] 0.00000 [  1       1    ] 0.00000 [  1       1    ] 0.00000
-----------------------------------------------------------------------------
   Norm of T1AA vector (        6 symmetry allowed elements):  0.0000000000.
-----------------------------------------------------------------------------
   The AA contribution to the correlation energy is:    0.0000000 a.u.
   The BB contribution to the correlation energy is:    0.0000000 a.u.
   The AB contribution to the correlation energy is:    0.0000000 a.u.
   The total correlation energy is  0.000000000000 a.u.
   The total correlation energy is  0.000000000000 a.u.
  W(    ) AA contribution =  0.0000000000 a.u.
  W(    ) BB contribution =  0.0000000000 a.u.
  W(    ) AB contribution =  0.0000000000 a.u.
  W(    ) AA contribution =  0.0000000000 a.u.
  W(    ) BB contribution =  0.0000000000 a.u.
  W(    ) AB contribution =  0.0000000000 a.u.
  W(mbej) AA contribution =   0.0000000000 a.u.
  W(mbej) BB contribution =   0.0000000000 a.u.
  W(mbej) AB contribution =  0.0000000000 a.u.
   After   1 iterations, amplitude changes are:
    -------------------------------------------------------------------
                 Spin      RMS          Max.      Max. change for
     Amplitude   Case     Change       Change       i    j    a    b
    -------------------------------------------------------------------
        T1        AA    0.0000000000 0.0000000000    1         4
    -------------------------------------------------------------------
   The AA contribution to the correlation energy is:    0.0000000 a.u.
   The BB contribution to the correlation energy is:    0.0000000 a.u.
   The AB contribution to the correlation energy is:    0.0000000 a.u.
   The total correlation energy is  0.000000000000 a.u.
   The total correlation energy is  0.000000000000 a.u.
  Current DIIS expansion coefficients : 
 [   1] 1.0000000000
  Convergence information after     1 iterations: 
  Largest element of residual vector :  0.87019294E-16.
  Largest element of DIIS residual   :  0.87019294E-16.
  Amplitude equations converged in     1iterations.
   The AA contribution to the correlation energy is:    0.0000000 a.u.
   The BB contribution to the correlation energy is:    0.0000000 a.u.
   The AB contribution to the correlation energy is:    0.0000000 a.u.
   The total correlation energy is  0.000000000000 a.u.
   The total correlation energy is  0.000000000000 a.u.
   The CC iterations have converged.

            ----------------------------------------------
                     Projected spin multiplicities: 
            ----------------------------------------------
             <0|S^2|0>                  =    0.7500000000.
             <0|S^2 (T2+T1**2) |0>      =    0.0000000000.
             <0|S^2 T1|0>               =    0.0000000000.
             Projected <0|S^2 exp(T)|0> =    0.7500000000.
             Approximate spin mult.     =    2.0000000000.
            ----------------------------------------------
   Largest T1 amplitudes for spin case AA:
   i       a                 i       a                 i       a    
-----------------------------------------------------------------------------
[  1       4    ] 0.00000 [  1       7    ] 0.00000 [  1       6    ] 0.00000
[  1       3    ] 0.00000 [  1       5    ] 0.00000 [  1       2    ] 0.00000
[  1       1    ] 0.00000 [  1       1    ] 0.00000 [  1       1    ] 0.00000
[  1       1    ] 0.00000 [  1       1    ] 0.00000 [  1       1    ] 0.00000
[  1       1    ] 0.00000 [  1       1    ] 0.00000 [  1       1    ] 0.00000
-----------------------------------------------------------------------------
   Norm of T1AA vector (        6 symmetry allowed elements):  0.0000000000.
-----------------------------------------------------------------------------
       Summary of iterative solution of CC equations 
      -----------------------------------------------------------
                       Correlation           Total
       Iteration         Energy              Energy
      -----------------------------------------------------------
            0         0.000000000000      -0.569539983259  DIIS 
            1         0.000000000000      -0.569539983259  DIIS 
      -----------------------------------------------------------
      A miracle has come to pass. The CC iterations have converged.
 @DIMT3-I, Dimensions of T3 amplitudes : 
               # abc          # ijk       Symmetry    Spin 
                      387              0     1          1
                      370              0     2          1
                      370              0     3          1
                      342              0     4          1
                      374              0     5          1
                      370              0     6          1
                      370              0     7          1
                      342              0     8          1
                     1365              0     1          2
                     1233              0     2          2
                     1233              0     3          2
                     1083              0     4          2
                     1365              0     5          2
                     1233              0     6          2
                     1233              0     7          2
                     1083              0     8          2
                     1440              0     1          3
                     1278              0     2          3
                     1278              0     3          3
                     1114              0     4          3
                     1426              0     5          3
                     1278              0     6          3
                     1278              0     7          3
                     1114              0     8          3
                      435              0     1          4
                      415              0     2          4
                      415              0     3          4
                      373              0     4          4
                      435              0     5          4
                      415              0     6          4
                      415              0     7          4
                      373              0     8          4
 @DIMT3-I, Dimensions of T3 amplitudes : 
               # abc          # ijk       Symmetry    Spin 
                      387              0     1          1
                      370              0     2          1
                      370              0     3          1
                      342              0     4          1
                      374              0     5          1
                      370              0     6          1
                      370              0     7          1
                      342              0     8          1
                     1365              0     1          2
                     1233              0     2          2
                     1233              0     3          2
                     1083              0     4          2
                     1365              0     5          2
                     1233              0     6          2
                     1233              0     7          2
                     1083              0     8          2
                     1440              0     1          3
                     1278              0     2          3
                     1278              0     3          3
                     1114              0     4          3
                     1426              0     5          3
                     1278              0     6          3
                     1278              0     7          3
                     1114              0     8          3
                      435              0     1          4
                      415              0     2          4
                      415              0     3          4
                      373              0     4          4
                      435              0     5          4
                      415              0     6          4
                      415              0     7          4
                      373              0     8          4
 @TRPS-I, Welcome to TRPS. Watch your RUs ! 
 @TRPS-I, Method is CCSD(T) 
 @TRPS-I, Calculation type is energy 
 @TRPS-I, Reference function information : 
          Reference function is general non-HF 
 @TRPS-I, Reference function is ROHF 
 @TRPS-I, INT1 is true 
 @TRPS-I, INT2 is false 
 @TRPS-I, Lengths of ijka integrals. #1          0
                                     #2          0
                                     #3          0
                                     #4          0
                                    Max          0
 @INITRP-I, Initializing W intermediate lists. 
 @TSPABCI-I, AbIc/AbcI record transposition. 
 @TSPABCI-I, (O,v) ---> (v,O) transposition. 
 @TSPABCI-I, In-core algorithm is being used. 
 @TSPABCI-I, In-core algorithm is being used. 
 @TSPABCI-I, In-core algorithm is being used. 
 @TSPABCI-I, In-core algorithm is being used. 
 @TSPABCI-I, In-core algorithm is being used. 
 @TSPABCI-I, In-core algorithm is being used. 
 @TSPABCI-I, In-core algorithm is being used. 
 @TSPABCI-I, In-core algorithm is being used. 
 @TSPABCI-I, AbIc/AbcI record transposition. 
 @TSPABCI-I, (v,O) ---> (O,v) transposition. 
 @TSPABCI-I, In-core algorithm is being used. 
 @TSPABCI-I, In-core algorithm is being used. 
 @TSPABCI-I, In-core algorithm is being used. 
 @TSPABCI-I, In-core algorithm is being used. 
 @TSPABCI-I, In-core algorithm is being used. 
 @TSPABCI-I, In-core algorithm is being used. 
 @TSPABCI-I, In-core algorithm is being used. 
 @TSPABCI-I, In-core algorithm is being used. 
 @CCENRG-I, CCSD/QCISD energy will now be evaluated. 
 @CCENRG-I, Correlation energies. ECCAA        0.000000000000
                                  ECCBB        0.000000000000
                                  ECCAB        0.000000000000
                                  Total        0.000000000000
 @CCENRG-I, Reference   energy      -0.569539983259
            CCSD/QCISD energy       -0.569539983259
          E4T (T(CCSD)) =  0.000000000000
          E5ST          =  0.000000000000
          E4ST          =  0.000000000000
          In other words  
          <T3[2](Dagger) D3  T3[2]> =  0.000000000000
          <T1   (Dagger) Q1 WT3[2]> =  0.000000000000
          <T2   (Dagger) Q2 FT3[2]> =  0.000000000000
        E(CCSD)           =      -0.569539983259
        E(CCSD(T))        =      -0.569539983259
  @CHECKOUT-I, Total execution time (CPU/WALL):        0.01/       0.02 seconds.
--executable xvcc finished with status     0 in        0.15 seconds (walltime).
  The final electronic energy is        -0.569539983259461 a.u. 
  This computation required                            6.27 seconds (walltime).
--- SharcNET Job Epilogue ---
Job completed successfully.
               jobid: 1967865
               resid: 3435133
         exit status: 0
      allocated time: 7.4034
           user time: 0.54
         system time: 0.29
peak rss=212422656; peak vsz=212422656 (bytes)
atime=7.4034; utime=0.54; stime=0.29; exit=0
