
 Primary working directories    : .
 Secondary working directories  : .
 Wavefunction directory         : /home/dattani/wfu/
 Main file repository           : /home/dattani/Li/2zeta/./

 SHA1      : c51528690e241e4bfddaa1efad45229768b24895
 NAME      : 2012.1.15
 ARCHNAME  : Linux/x86_64
 FC        : /usr/local/server/IntelStudio_2013_SP1/composer_xe_2013_sp1.2.144/bin/intel64/ifort
 FCVERSION : 14.0.2
 BLASLIB   : -L/usr/local/server/IntelStudio_2013_SP1/composer_xe_2013_sp1.2.144/mkl/lib/intel64 -lmkl_intel_ilp64 -lmkl_sequential -lmkl_core
 id        : fkfmpg

 Nodes     nprocs
 alxmp09      1

 Using customized tuning parameters: mindgm=1; mindgv=20; mindgc=4; mindgr=1; noblas=0; minvec=7
 default implementation of scratch files=df  

  ***,Li2 atom, spin=1
 geometry={Li}                                                                   !  z-matrix geometry input
 basis = aug-cc-pCVDZ
 gthresh,oneint=1e-18,twoint=1e-18                                               !,THROVL=1e-11,THRORTH=2.d-6
 THRESH,ENERGY=1d-16
 
 memory 13880, M
 
 print basis,orbitals=2,civector
 
 wf,charge=0,spin=1
 core
 
 rhf
 {rccsd(t);core}
 casscf
 {fci;core}
 {fciqmc;core}

 Variables initialized (781), CPU time= 0.01 sec
 Commands  initialized (547), CPU time= 0.00 sec, 516 directives.
 Default parameters read. Elapsed time= 0.08 sec

 Checking input...
 Passed
1


                                         ***  PROGRAM SYSTEM MOLPRO  ***
                         Copyright, University College Cardiff Consultants Limited, 2008

                                    Version 2012.1 linked Oct 10 2014 10:48:57


 **********************************************************************************************************************************
 LABEL *                                                                                 
 Linux-3.0.101-68-default/alxmp09(x86_64) 64 bit serial version                          DATE: 31-Jan-18          TIME: 14:08:07  
 **********************************************************************************************************************************

 SHA1:             c51528690e241e4bfddaa1efad45229768b24895
 **********************************************************************************************************************************

 Variable memory set to    8000000 words,  buffer space   230000 words

 SETTING BASIS          =    AUG-CC-PCVDZ

 THRESHOLDS:

 ZERO    =  1.00D-12  ONEINT  =  1.00D-18  TWOINT  =  1.00D-18  PREFAC  =  1.00D-14  LOCALI  =  1.00D-09  EORDER  =  1.00D-04
 ENERGY  =  0.00D+00  ETEST   =  0.00D+00  EDENS   =  0.00D+00  THRDEDEF=  1.00D-06  GRADIENT=  1.00D-02  STEP    =  1.00D-03
 ORBITAL =  1.00D-05  CIVEC   =  1.00D-05  COEFF   =  1.00D-04  PRINTCI =  5.00D-02  PUNCHCI =  9.90D+01  OPTGRAD =  3.00D-04
 OPTENERG=  1.00D-06  OPTSTEP =  3.00D-04  THRGRAD =  1.00D-10  COMPRESS=  1.00D-11  VARMIN  =  1.00D-07  VARMAX  =  1.00D-03
 THRDOUB =  0.00D+00  THRDIV  =  1.00D-05  THRRED  =  1.00D-07  THRPSP  =  1.00D+00  THRDC   =  1.00D-10  THRCS   =  1.00D-10
 THRNRM  =  1.00D-08  THREQ   =  0.00D+00  THRDE   =  1.00D+00  THRREF  =  1.00D-05  SPARFAC =  1.00D+00  THRDLP  =  1.00D-07
 THRDIA  =  1.00D-10  THRDLS  =  1.00D-07  THRGPS  =  0.00D+00  THRKEX  =  0.00D+00  THRDIS  =  2.00D-01  THRVAR  =  1.00D-10
 THRLOC  =  1.00D-06  THRGAP  =  1.00D-06  THRLOCT = -1.00D+00  THRGAPT = -1.00D+00  THRORB  =  1.00D-06  THRMLTP =  0.00D+00
 THRCPQCI=  1.00D-10  KEXTA   =  0.00D+00  THRCOARS=  0.00D+00  SYMTOL  =  1.00D-06  GRADTOL =  1.00D-06  THROVL  =  1.00D-08
 THRORTH =  1.00D-08  GRID    =  1.00D-06  GRIDMAX =  1.00D-03  DTMAX   =  0.00D+00  THROCCDE=  1.00D-01  THROCCDE=  1.00D-01



 THRESHOLDS:

 ZERO    =  1.00D-12  ONEINT  =  1.00D-18  TWOINT  =  1.00D-18  PREFAC  =  1.00D-14  LOCALI  =  1.00D-09  EORDER  =  1.00D-04
 ENERGY  =  1.00D-16  ETEST   =  0.00D+00  EDENS   =  0.00D+00  THRDEDEF=  1.00D-06  GRADIENT=  1.00D-02  STEP    =  1.00D-03
 ORBITAL =  1.00D-05  CIVEC   =  1.00D-05  COEFF   =  1.00D-04  PRINTCI =  5.00D-02  PUNCHCI =  9.90D+01  OPTGRAD =  3.00D-04
 OPTENERG=  1.00D-06  OPTSTEP =  3.00D-04  THRGRAD =  1.00D-10  COMPRESS=  1.00D-11  VARMIN  =  1.00D-07  VARMAX  =  1.00D-03
 THRDOUB =  0.00D+00  THRDIV  =  1.00D-05  THRRED  =  1.00D-07  THRPSP  =  1.00D+00  THRDC   =  1.00D-10  THRCS   =  1.00D-10
 THRNRM  =  1.00D-08  THREQ   =  0.00D+00  THRDE   =  1.00D+00  THRREF  =  1.00D-05  SPARFAC =  1.00D+00  THRDLP  =  1.00D-07
 THRDIA  =  1.00D-10  THRDLS  =  1.00D-07  THRGPS  =  0.00D+00  THRKEX  =  0.00D+00  THRDIS  =  2.00D-01  THRVAR  =  1.00D-10
 THRLOC  =  1.00D-06  THRGAP  =  1.00D-06  THRLOCT = -1.00D+00  THRGAPT = -1.00D+00  THRORB  =  1.00D-06  THRMLTP =  0.00D+00
 THRCPQCI=  1.00D-10  KEXTA   =  0.00D+00  THRCOARS=  0.00D+00  SYMTOL  =  1.00D-06  GRADTOL =  1.00D-06  THROVL  =  1.00D-08
 THRORTH =  1.00D-08  GRID    =  1.00D-06  GRIDMAX =  1.00D-03  DTMAX   =  0.00D+00  THROCCDE=  1.00D-01  THROCCDE=  1.00D-01




 Variable memory set to ********** words,  buffer space   230000 words



 Recomputing integrals since basis changed


 Using spherical harmonics

 Library entry LI     S aug-cc-pCVDZ         selected for orbital group  1
 Library entry LI     P aug-cc-pCVDZ         selected for orbital group  1
 Library entry LI     D aug-cc-pCVDZ         selected for orbital group  1

1PROGRAM * SEWARD (Integral evaluation for generally contracted gaussian basis sets)     Author: Roland Lindh, 1990

 Geometry written to block  1 of record 700

 Orientation using atomic masses  
 Molecule type: Atom
 Symmetry elements: X,Y,Z
 Rotational constants:       0.0000000      0.0000000      0.0000000 GHz  (calculated with average atomic masses)

 Point group  D2h 



 ATOMIC COORDINATES

 NR  ATOM    CHARGE       X              Y              Z

   1  LI      3.00    0.000000000    0.000000000    0.000000000


 BASIS DATA

   Nr Sym  Nuc  Type         Exponents   Contraction coefficients

    1.1 Ag    1  1s        1469.000000     0.000766   -0.000120    0.000000
    2.1 Ag                  220.500000     0.005892   -0.000923    0.000000
    3.1 Ag                   50.260000     0.029671   -0.004689    0.000000
                             14.240000     0.109180   -0.017682    0.000000
                              4.581000     0.282789   -0.048902    0.000000
                              1.580000     0.453123   -0.096009    0.000000
                              0.564000     0.274774   -0.136380    0.000000
                              0.073450     0.009751    0.575102    0.000000
                              0.028050    -0.003180    0.517661    1.000000
    4.1 Ag    1  1s           0.931500     1.000000
    5.1 Ag    1  1s           0.008600     1.000000
    6.1 Ag    1  3d0          0.114400     1.000000
    7.1 Ag    1  3d2+         0.114400     1.000000
    8.1 Ag    1  3d0          0.073300     1.000000
    9.1 Ag    1  3d2+         0.073300     1.000000
    1.2 B3u   1  2px          1.534000     0.022784    0.000000
    2.2 B3u                   0.274900     0.139107    0.000000
                              0.073620     0.500375    0.000000
                              0.024030     0.508474    1.000000
    3.2 B3u   1  2px          3.243600     1.000000
    4.2 B3u   1  2px          0.005800     1.000000
    1.3 B2u   1  2py          1.534000     0.022784    0.000000
    2.3 B2u                   0.274900     0.139107    0.000000
                              0.073620     0.500375    0.000000
                              0.024030     0.508474    1.000000
    3.3 B2u   1  2py          3.243600     1.000000
    4.3 B2u   1  2py          0.005800     1.000000
    1.4 B1g   1  3d2-         0.114400     1.000000
    2.4 B1g   1  3d2-         0.073300     1.000000
    1.5 B1u   1  2pz          1.534000     0.022784    0.000000
    2.5 B1u                   0.274900     0.139107    0.000000
                              0.073620     0.500375    0.000000
                              0.024030     0.508474    1.000000
    3.5 B1u   1  2pz          3.243600     1.000000
    4.5 B1u   1  2pz          0.005800     1.000000
    1.6 B2g   1  3d1+         0.114400     1.000000
    2.6 B2g   1  3d1+         0.073300     1.000000
    1.7 B3g   1  3d1-         0.114400     1.000000
    2.7 B3g   1  3d1-         0.073300     1.000000

 NUCLEAR CHARGE:                    3
 NUMBER OF PRIMITIVE AOS:          41
 NUMBER OF SYMMETRY AOS:           39
 NUMBER OF CONTRACTIONS:           27   (   9Ag  +   4B3u +   4B2u +   2B1g +   4B1u +   2B2g +   2B3g +   0Au  )
 NUMBER OF CORE ORBITALS:           1   (   1Ag  +   0B3u +   0B2u +   0B1g +   0B1u +   0B2g +   0B3g +   0Au  )
 NUMBER OF VALENCE ORBITALS:        4   (   1Ag  +   1B3u +   1B2u +   0B1g +   1B1u +   0B2g +   0B3g +   0Au  )


 NUCLEAR REPULSION ENERGY    0.00000000

 EXTRA SYMMETRY OF AOS IN SYMMETRY 1:   1 1 1 1 1 2 3 2 3

 Eigenvalues of metric

         1 0.194E-01 0.796E-01 0.824E-01 0.824E-01 0.372E+00 0.186E+01 0.192E+01 0.192E+01
         2 0.919E-01 0.658E+00 0.100E+01 0.225E+01
         3 0.919E-01 0.658E+00 0.100E+01 0.225E+01
         4 0.824E-01 0.192E+01
         5 0.919E-01 0.658E+00 0.100E+01 0.225E+01
         6 0.824E-01 0.192E+01
         7 0.824E-01 0.192E+01


 Contracted 2-electron integrals neglected if value below      1.0D-18
 AO integral compression algorithm  1   Integral accuracy      1.0D-18

     0.262 MB (compressed) written to integral file (100.0%)


 NUMBER OF SORTED TWO-ELECTRON INTEGRALS:      11658.     BUFFER LENGTH:  32768
 NUMBER OF SEGMENTS:   1  SEGMENT LENGTH:      11658      RECORD LENGTH: 524288

 Memory used in sort:       0.57 MW

 SORT1 READ       26509. AND WROTE       10464. INTEGRALS IN      1 RECORDS. CPU TIME:     0.00 SEC, REAL TIME:     0.01 SEC
 SORT2 READ       10464. AND WROTE       11658. INTEGRALS IN      1 RECORDS. CPU TIME:     0.01 SEC, REAL TIME:     0.01 SEC

 FILE SIZES:   FILE 1:     7.8 MBYTE,  FILE 4:     4.2 MBYTE,   TOTAL:     12.0 MBYTE

 OPERATOR DM      FOR CENTER  0  COORDINATES:    0.000000    0.000000    0.000000


 **********************************************************************************************************************************
 DATASETS  * FILE   NREC   LENGTH (MB)   RECORD NAMES
              1      19        7.60       500      610      700      900      950      970     1000      129      960     1100   
                                          VAR    BASINP    GEOM    SYMINP    ZMAT    AOBASIS   BASIS     P2S    ABASIS      S 
                                         1400     1410     1200     1210     1080     1600     1650     1300     1700   
                                           T        V       H0       H01     AOSYM     SMH    MOLCAS    ERIS     OPER   

 PROGRAMS   *        TOTAL       INT
 CPU TIMES  *         0.16      0.06
 REAL TIME  *         0.41 SEC
 DISK USED  *        12.26 MB      
 **********************************************************************************************************************************

1PROGRAM * RHF-SCF (OPEN SHELL)       Authors: W. Meyer, H.-J. Werner


 NUMBER OF ELECTRONS:       2+    1-
 CONVERGENCE THRESHOLDS:    1.00E-06 (Density)    1.00E-17 (Energy)
 MAX. NUMBER OF ITERATIONS:       60
 INTERPOLATION TYPE:            DIIS
 INTERPOLATION STEPS:              2 (START)      1 (STEP)
 LEVEL SHIFTS:                 -0.30 (CLOSED)  0.00 (OPEN) 



 Orbital guess generated from atomic densities. Full valence occupancy:    2   0   0   0   0   0   0   0


 Molecular orbital dump at record        2100.2

 Initial alpha occupancy:   2   0   0   0   0   0   0
 Initial beta  occupancy:   1   0   0   0   0   0   0
 Wave function symmetry:    1

 ITERATION    DDIFF          GRAD             ENERGY        2-EL.EN.            DIPOLE MOMENTS         DIIS   ORB.
    1      0.000D+00      0.000D+00        -7.43012762      4.451886    0.00000    0.00000    0.00000    0    start
    2      0.000D+00      0.236D-02        -7.43185648      4.509086    0.00000    0.00000    0.00000    1    diag,B
    3      0.300D-01      0.118D-02        -7.43242469      4.560248    0.00000    0.00000    0.00000    2    diag,B
    4      0.351D-01      0.466D-04        -7.43242520      4.561767    0.00000    0.00000    0.00000    3    diag,B
    5      0.145D-02      0.463D-05        -7.43242520      4.561735    0.00000    0.00000    0.00000    4    diag,B
    6      0.754D-04      0.554D-06        -7.43242520      4.561737    0.00000    0.00000    0.00000    5    diag,B
    7      0.142D-04      0.650D-07        -7.43242520      4.561737    0.00000    0.00000    0.00000    6    fixocc
    8      0.111D-05      0.249D-08        -7.43242520      4.561737    0.00000    0.00000    0.00000    7    diag,B
    9      0.332D-07      0.133D-09        -7.43242520      4.561737    0.00000    0.00000    0.00000    0    orth

 Final alpha occupancy:   2   0   0   0   0   0   0
 Final beta  occupancy:   1   0   0   0   0   0   0

 !RHF STATE 1.1 Energy                 -7.432425204372
 Nuclear energy                         0.00000000
 One-electron energy                   -9.71329380
 Two-electron energy                    2.28086859
 Virial quotient                       -1.00008742
 !RHF STATE 1.1 Dipole moment           0.00000000     0.00000000     0.00000000
 Dipole moment /Debye                   0.00000000     0.00000000     0.00000000

 ELECTRON ORBITALS
 =================


   Orb  Occ    Energy  Couls-En    Coefficients

                                   1 1s      1 1s      1 1s      1 1s      1 1s      1 3d0     1 3d2+    1 3d0     1 3d2+ 

   1.1   2    -2.4776   -6.9206  1.000270  0.001846 -0.002968  0.000119  0.001478 -0.000000  0.000000  0.000000 -0.000000

   2.1   +    -0.1963   -1.0237  0.000950  1.006097 -0.011765  0.000460  0.007683 -0.000000  0.000000  0.000000 -0.000000

   3.1   0     0.0223   -0.2456  0.068812  0.163473 -1.304149  0.032291  1.629378 -0.000000 -0.000000  0.000000  0.000000

   4.1   0     0.1619   -0.3129 -0.551609 -4.274960  5.233090 -0.246036 -1.037031  0.000000  0.000000 -0.000000 -0.000000

                                   1 2px     1 2px     1 2px     1 2px  

   1.2   0     0.0100   -0.2762  0.246964 -0.016703  0.000170  0.890122

   2.2   0     0.0359   -0.4003  0.386759  0.785771  0.001856 -0.790094

                                   1 2py     1 2py     1 2py     1 2py  

   1.3   0     0.0100   -0.2762  0.246964 -0.016703  0.000170  0.890122

   2.3   0     0.0359   -0.4003  0.386759  0.785771  0.001856 -0.790094

                                   1 3d2-    1 3d2- 

   1.4   0     0.1857   -0.1915 -0.699085  1.602103

   2.4   0     0.5244    0.2223  2.416738 -1.939745

                                   1 2pz     1 2pz     1 2pz     1 2pz  

   1.5   0     0.0100   -0.2762  0.246964 -0.016703  0.000170  0.890122

   2.5   0     0.0359   -0.4003  0.386759  0.785771  0.001856 -0.790094

                                   1 3d1+    1 3d1+ 

   1.6   0     0.1857   -0.1915 -0.699085  1.602103

   2.6   0     0.5244    0.2223  2.416738 -1.939745

                                   1 3d1-    1 3d1- 

   1.7   0     0.1857   -0.1915 -0.699085  1.602103

   2.7   0     0.5244    0.2223  2.416738 -1.939745

 HOMO      2.1    -0.196313 =      -5.3419eV
 LUMO      1.2     0.009961 =       0.2711eV
 LUMO-HOMO         0.206274 =       5.6130eV


 **********************************************************************************************************************************
 DATASETS  * FILE   NREC   LENGTH (MB)   RECORD NAMES
              1      19        7.60       500      610      700      900      950      970     1000      129      960     1100   
                                          VAR    BASINP    GEOM    SYMINP    ZMAT    AOBASIS   BASIS     P2S    ABASIS      S 
                                         1400     1410     1200     1210     1080     1600     1650     1300     1700   
                                           T        V       H0       H01     AOSYM     SMH    MOLCAS    ERIS     OPER   

              2       4        0.28       700     1000      520     2100   
                                         GEOM     BASIS   MCVARS     RHF  

 PROGRAMS   *        TOTAL       RHF       INT
 CPU TIMES  *         0.17      0.01      0.06
 REAL TIME  *         0.43 SEC
 DISK USED  *        12.26 MB      
 **********************************************************************************************************************************


1PROGRAM * CCSD (Restricted open-shell coupled cluster)     Authors: C. Hampel, H.-J. Werner, 1991, M. Deegan, P.J. Knowles, 1992


 Convergence thresholds:  THRVAR = 1.00D-08  THRDEN = 1.00D-16

 CCSD(T)     terms to be evaluated (factor= 1.000)


 Number of closed-shell orbitals:   1 (   1   0   0   0   0   0   0 )
 Number of active  orbitals:        1 (   1   0   0   0   0   0   0 )
 Number of external orbitals:      25 (   7   4   4   2   4   2   2 )

 Memory could be reduced to 0.31 Mwords without degradation in triples

 Number of N-1 electron functions:               3
 Number of N-2 electron functions:               3
 Number of singly external CSFs:                24
 Number of doubly external CSFs:               333
 Total number of CSFs:                         357

 Molecular orbitals read from record     2100.2  Type=RHF/CANONICAL (state 1.1)

 Integral transformation finished. Total CPU:   0.01 sec, npass=  1  Memory used:   0.07 MW

 Starting RMP2 calculation

 Wavefunction is spin-projected

 ITER.      SQ.NORM     CORR.ENERGY   TOTAL ENERGY   ENERGY CHANGE        DEN1      VAR(S)    VAR(P)  DIIS     TIME
   1      1.00210715    -0.02908986    -7.46151507    -0.02908986    -0.00000594  0.19D-08  0.55D-06  1  1     0.01
   2      1.00210830    -0.02909589    -7.46152110    -0.00000603    -0.00000000  0.34D-11  0.30D-09  2  2     0.01
   3      1.00210832    -0.02909591    -7.46152112    -0.00000002    -0.00000000  0.82D-13  0.32D-13  3  3     0.01
   4      1.00210832    -0.02909591    -7.46152112     0.00000000    -0.00000000  0.79D-14  0.18D-16  4  4     0.01
   5      1.00210832    -0.02909591    -7.46152112     0.00000000    -0.00000000  0.15D-15  0.18D-17  5  5     0.01
   6      1.00210832    -0.02909591    -7.46152112    -0.00000000    -0.00000000  0.54D-17  0.40D-20  6  6     0.01
   7      1.00210832    -0.02909591    -7.46152112     0.00000000    -0.00000000  0.12D-19  0.82D-21  6  1     0.01
   8      1.00210832    -0.02909591    -7.46152112     0.00000000    -0.00000000  0.18D-25  0.95D-25  6  2     0.01
   9      1.00210832    -0.02909591    -7.46152112     0.00000000    -0.00000000  0.20D-28  0.91D-28  6  3     0.01

 Norm of t1 vector:      0.00152268      S-energy:    -0.00001386      T1 diagnostic:  0.00000529
 Norm of t2 vector:      0.04589117      P-energy:    -0.02908205
                                         Alpha-Beta:  -0.02888346
                                         Alpha-Alpha: -0.00019860
                                         Beta-Beta:    0.00000000

 Spin contamination <S**2-Sz**2-Sz>     0.00000000
  Reference energy                     -7.432425204372
  RHF-RMP2 correlation energy          -0.029095910990
 !RHF-RMP2 energy                      -7.461521115362
 (NB above energy spin projected)

 Starting RCCSD calculation

 ITER.      SQ.NORM     CORR.ENERGY   TOTAL ENERGY   ENERGY CHANGE        DEN1      VAR(S)    VAR(P)  DIIS     TIME
   1      1.00270936    -0.03291630    -7.46534151    -0.03291630    -0.00063445  0.11D-05  0.47D-04  1  1     0.01
   2      1.00284130    -0.03364775    -7.46607296    -0.00073145    -0.00000082  0.35D-06  0.75D-07  2  2     0.01
   3      1.00284540    -0.03365241    -7.46607762    -0.00000466    -0.00000005  0.96D-07  0.14D-08  3  3     0.01
   4      1.00284676    -0.03365289    -7.46607809    -0.00000048    -0.00000001  0.31D-07  0.82D-10  4  4     0.01
   5      1.00284776    -0.03365301    -7.46607822    -0.00000012    -0.00000000  0.50D-08  0.18D-10  5  5     0.02
   6      1.00284835    -0.03365305    -7.46607825    -0.00000004    -0.00000000  0.17D-09  0.38D-12  6  6     0.02
   7      1.00284838    -0.03365305    -7.46607826    -0.00000001    -0.00000000  0.49D-10  0.35D-13  6  1     0.02
   8      1.00284840    -0.03365306    -7.46607826    -0.00000000    -0.00000000  0.12D-11  0.19D-13  6  2     0.02
   9      1.00284840    -0.03365306    -7.46607826     0.00000000    -0.00000000  0.91D-14  0.49D-15  6  3     0.02
  10      1.00284840    -0.03365306    -7.46607826     0.00000000    -0.00000000  0.68D-16  0.13D-16  6  4     0.02
  11      1.00284840    -0.03365306    -7.46607826     0.00000000    -0.00000000  0.48D-17  0.41D-18  6  5     0.02
  12      1.00284840    -0.03365306    -7.46607826     0.00000000    -0.00000000  0.21D-17  0.21D-19  6  6     0.02
  13      1.00284840    -0.03365306    -7.46607826     0.00000000    -0.00000000  0.53D-18  0.89D-21  6  1     0.02
  14      1.00284840    -0.03365306    -7.46607826     0.00000000    -0.00000000  0.45D-19  0.50D-21  6  2     0.02
  15      1.00284840    -0.03365306    -7.46607826     0.00000000    -0.00000000  0.53D-20  0.11D-22  6  3     0.02
  16      1.00284840    -0.03365306    -7.46607826    -0.00000000    -0.00000000  0.12D-20  0.16D-23  6  4     0.02
  17      1.00284840    -0.03365306    -7.46607826    -0.00000000    -0.00000000  0.55D-22  0.29D-24  6  5     0.02
  18      1.00284840    -0.03365306    -7.46607826     0.00000000    -0.00000000  0.40D-24  0.30D-25  6  6     0.02
  19      1.00284840    -0.03365306    -7.46607826     0.00000000    -0.00000000  0.52D-26  0.12D-26  6  1     0.02

 Norm of t1 vector:      0.00334185      S-energy:    -0.00001779      T1 diagnostic:  0.00109934
                                                                       D1 diagnostic:  0.00175243
 Norm of t2 vector:      0.05326569      P-energy:    -0.03363527
                                         Alpha-Beta:  -0.03341230
                                         Alpha-Alpha: -0.00022296
                                         Beta-Beta:    0.00000000

 Spin contamination <S**2-Sz**2-Sz>     0.00000000

 Memory could be reduced to 0.31 Mwords without degradation in triples
 

  Correlated core orbitals:             1.1
  Orbital energies:                    -2.4848
 
  RCCSD core-core energy               -0.032475146267
  RCCSD core-valence energy            -0.001177909226
  RCCSD valence correlation energy     -0.000000000000
 

 RESULTS
 =======

  Reference energy                     -7.432425204372
  RCCSD singles energy                 -0.000017787728
  RCCSD pair energy                    -0.033635267765
  RCCSD correlation energy             -0.033653055493
  Triples (T) contribution             -0.000003958935
  Total correlation energy             -0.033657014428
 
  RHF-RCCSD energy                     -7.466078259865
  RHF-RCCSD[T] energy                  -7.466082200890
  RHF-RCCSD-T energy                   -7.466082222649
 !RHF-RCCSD(T) energy                  -7.466082218800

 Program statistics:

 Available memory in ccsd:             13879999848
 Min. memory needed in ccsd:                  5308
 Max. memory used in ccsd:                    5448
 Max. memory used in cckext:                 36719 (19 integral passes)
 Max. memory used in cckint:                 68521 ( 1 integral passes)



 **********************************************************************************************************************************
 DATASETS  * FILE   NREC   LENGTH (MB)   RECORD NAMES
              1      19        7.60       500      610      700      900      950      970     1000      129      960     1100   
                                          VAR    BASINP    GEOM    SYMINP    ZMAT    AOBASIS   BASIS     P2S    ABASIS      S 
                                         1400     1410     1200     1210     1080     1600     1650     1300     1700   
                                           T        V       H0       H01     AOSYM     SMH    MOLCAS    ERIS     OPER   

              2       4        0.28       700     1000      520     2100   
                                         GEOM     BASIS   MCVARS     RHF  

 PROGRAMS   *        TOTAL  RCCSD(T)       RHF       INT
 CPU TIMES  *         0.23      0.06      0.01      0.06
 REAL TIME  *         0.53 SEC
 DISK USED  *        12.26 MB      
 **********************************************************************************************************************************

1PROGRAM * MULTI (Direct Multiconfiguration SCF)       Authors: P.J. Knowles, H.-J. Werner (1984)     S.T. Elbert (1988)


 Number of closed-shell orbitals:   1 (   1   0   0   0   0   0   0   0 )
 Number of active  orbitals:        4 (   1   1   1   0   1   0   0   0 )
 Number of external orbitals:      22 (   7   3   3   2   3   2   2   0 )

 State symmetry 1

 Number of electrons:     1    Spin symmetry=Doublet   Space symmetry=1
 Number of states:        1
 Number of CSFs:          1   (1 determinants, 4 intermediate states)

 Molecular orbitals read from record     2100.2  Type=RHF/CANONICAL (state 1.1)

 EXTRA SYMMETRY OF MOS IN SYMMETRY 1:   1 1 1 1 3 2 2 3 1

 Wavefunction dump at record             2140.2

 Convergence thresholds  0.10E-01 (gradient)  0.10E-15 (energy)  0.10E-02 (step length)

 Number of orbital rotations:       24   (     1 Core/Active      7 Core/Virtual   0 Active/Active     16 Active/Virtual)
 Total number of variables:         25


 ITER. MIC  NCI  NEG     ENERGY(VAR)     ENERGY(PROJ)   ENERGY CHANGE     GRAD(0)  GRAD(ORB)   GRAD(CI)     STEP       TIME

   1   18    4    0      -7.43242520      -7.43242520    0.00000000    0.00000000 0.00000000 0.00000000  0.17D-09      0.01
   2   13    4    0      -7.43242520      -7.43242520   -0.00000000    0.00000000 0.00000000 0.00000000  0.28D-10      0.01
   3   13    4    0      -7.43242520      -7.43242520    0.00000000    0.00000000 0.00000000 0.00000000  0.28D-10      0.01
   4   13    4    0      -7.43242520      -7.43242520    0.00000000    0.00000000 0.00000000 0.00000000  0.28D-10      0.01
   5   13    4    0      -7.43242520      -7.43242520   -0.00000000    0.00000000 0.00000000 0.00000000  0.28D-10      0.01
   6   13    4    0      -7.43242520      -7.43242520    0.00000000    0.00000000 0.00000000 0.00000000  0.28D-10      0.01
   7   13    4    0      -7.43242520      -7.43242520    0.00000000    0.00000000 0.00000000 0.00000000  0.28D-10      0.01
   8   13    4    0      -7.43242520      -7.43242520    0.00000000    0.00000000 0.00000000 0.00000000  0.28D-10      0.02
   9   13    4    0      -7.43242520      -7.43242520    0.00000000    0.00000000 0.00000000 0.00000000  0.28D-10      0.02
  10   13    4    0      -7.43242520      -7.43242520    0.00000000    0.00000000 0.00000000 0.00000000  0.28D-10      0.02

 ** WVFN ****  CONVERGENCE REACHED, FINAL GRADIENT:  0.61D-10


 First order charge density matrix for state 1.1 saved on record  2140.2 (density set 1)

 Results for state 1.1
 =====================

 !MCSCF STATE 1.1 Energy               -7.432425204372
 Nuclear energy                         0.00000000
 Kinetic energy                         7.43177553
 One electron energy                   -9.71329380
 Two electron energy                    2.28086859
 Virial ratio                           2.00008742

 !MCSCF STATE 1.1 Dipole moment         0.00000000     0.00000000     0.00000000
 Dipole moment /Debye                   0.00000000     0.00000000     0.00000000


 NATURAL ORBITALS
 ================

   Orb     Occ        Energy       Coefficients

                                   1 1s      1 1s      1 1s      1 1s      1 1s      1 3d0     1 3d2+    1 3d0     1 3d2+ 

   1.1  2.00000    -2.477622     1.000270  0.001846 -0.002968  0.000119  0.001478  0.000000  0.000000  0.000000  0.000000

   2.1  1.00000    -0.079335     0.000950  1.006097 -0.011765  0.000460  0.007683  0.000000  0.000000  0.000000  0.000000

   3.1  0.00000     0.024232     0.085333  0.294477 -1.464028  0.040215  1.660422  0.000000  0.000000  0.000000  0.000000

   4.1  0.00000     0.174665    -0.551217 -4.268601  5.191242 -0.242883 -0.986621  0.000000  0.000000  0.000000  0.000000

                                   1 2px     1 2px     1 2px     1 2px  

   1.2  0.00000     0.013778     0.246964 -0.016703  0.000170  0.890122

   2.2  0.00000     0.048159     0.217806  0.963958  0.002721 -0.817624

   3.2  0.00000     0.185468     2.201450 -2.276014 -0.005624  0.325891

                                   1 2py     1 2py     1 2py     1 2py  

   1.3  0.00000     0.013778     0.246964 -0.016703  0.000170  0.890122

   2.3  0.00000     0.048159     0.217806  0.963958  0.002721 -0.817624

   3.3  0.00000     0.185468     2.201450 -2.276014 -0.005624  0.325891

                                   1 3d2-    1 3d2- 

   1.4  0.00000     0.192812    -0.731924  1.628365

   2.4  0.00000     0.533156     2.406996 -1.917752

                                   1 2pz     1 2pz     1 2pz     1 2pz  

   1.5  0.00000     0.013778     0.246964 -0.016703  0.000170  0.890122

   2.5  0.00000     0.048159     0.217806  0.963958  0.002721 -0.817624

   3.5  0.00000     0.185468     2.201450 -2.276014 -0.005624  0.325891

                                   1 3d1+    1 3d1+ 

   1.6  0.00000     0.192812    -0.731924  1.628365

   2.6  0.00000     0.533156     2.406996 -1.917752

                                   1 3d1-    1 3d1- 

   1.7  0.00000     0.192812    -0.731924  1.628365

   2.7  0.00000     0.533156     2.406996 -1.917752
 

 EXTRA SYMMETRY OF MOS IN SYMMETRY 1:   1 1 1 1 3 2 3 2 1

 Natural orbital dump at molpro section  2140.2    (Orbital set 2)


 CI vector
 =========

 a 0 0 0          1.0000000

 TOTAL ENERGIES                        -7.43242520



 **********************************************************************************************************************************
 DATASETS  * FILE   NREC   LENGTH (MB)   RECORD NAMES
              1      20        7.63       500      610      700      900      950      970     1000      129      960     1100   
                                          VAR    BASINP    GEOM    SYMINP    ZMAT    AOBASIS   BASIS     P2S    ABASIS      S 
                                         1400     1410     1200     1210     1080     1600     1650     1300     1700     1380   
                                           T        V       H0       H01     AOSYM     SMH    MOLCAS    ERIS     OPER     JKOP   

              2       5        0.33       700     1000      520     2100     2140   
                                         GEOM     BASIS   MCVARS     RHF     MCSCF   

 PROGRAMS   *        TOTAL    CASSCF  RCCSD(T)       RHF       INT
 CPU TIMES  *         0.27      0.03      0.06      0.01      0.06
 REAL TIME  *         0.64 SEC
 DISK USED  *        12.26 MB      
 **********************************************************************************************************************************

1PROGRAM * FCI (Full CI)     Author: P.J. Knowles, 1984

 ***  Initialisation ***
 
 Molecular orbitals read from record     2140.2  Type=MCSCF/NATURAL (state 1.1)
 
 Frozen orbitals:              0 (  0  0  0  0  0  0  0  0)
 Active orbitals:             27 (  9  4  4  2  4  2  2  0)
 Active electrons:             3
 Spin quantum number:          0.5
 Orbital pairs:                    84      52      52      38      52      38      38      24
 Strings:                          57      52      52      38      52      38      38      24
                                    9       4       4       2       4       2       2       0
 Determinants:                   1365    1256    1256    1120    1256    1120    1120     984

 Load integrals                0.3 sec
 Transform integrals           0.3 sec
 Storage for integrals:          21561
 Remaining memory:           *********

 Core energy:               0.00000000
 Run Hamiltonian processor DAVIDSON
 Symmetry:                   1
 Trial vector:                  0.00
 Result vector:                 0.00
 Maximum iterations:           90
 Convergence threshold:         0.0000100
 RHS vector:                    0.00
 Hamiltonian shift:             0.0000000
 Output threshold:              0.0500000
 Options:                        0
 Number of roots:             1

 Hamiltonian diagonaliser entered at time      0.30

 Initial configuration generated:
       1      1.0000000     -7.4324252

 It  Tr    CPU  Convergence   Energy       Pop     dE(next)

  1   1    0.3  1.00000000    -7.43242520
                                           0.02 -0.03397430 -0.03359597
  2   1    0.3  0.05226782    -7.46566022
                                           0.07 -0.00041239 -0.00040510
  3   1    0.3  0.00893669    -7.46606867
                                           0.11 -0.00001335 -0.00001287
  4   1    0.3  0.00197044    -7.46608215
                                           0.15 -0.00000075 -0.00000069
  5   1    0.3  0.00037596    -7.46608285
                                           0.22 -0.00000009 -0.00000008
  6   1    0.3  0.00024702    -7.46608293
                                           0.24 -0.00000001 -0.00000001
  7   1    0.3  0.00007161    -7.46608294
                                           0.19 -0.00000000 -0.00000000
  8   1    0.3  0.00003314    -7.46608294
                                           0.23 -0.00000000 -0.00000000
  9   1    0.3  0.00001796    -7.46608294
                                           0.24 -0.00000000 -0.00000000
 10   1    0.3  0.00000456    -7.46608294


RESULTS FOR STATE 1.1
=====================

 Correlation energy                    -0.033657736276
 !FCI STATE 1.1 Energy                 -7.466082940648
 CI Vector (threshold= 0.500E-01)
       0.998577171783  1  2  1
 /EOF
 !FCI STATE 1.1 Dipole moment           0.00000000     0.00000000     0.00000000
 Dipole moment /Debye                   0.00000000     0.00000000     0.00000000


 **********************************************************************************************************************************
 DATASETS  * FILE   NREC   LENGTH (MB)   RECORD NAMES
              1      20        7.63       500      610      700      900      950      970     1000      129      960     1100   
                                          VAR    BASINP    GEOM    SYMINP    ZMAT    AOBASIS   BASIS     P2S    ABASIS      S 
                                         1400     1410     1200     1210     1080     1600     1650     1300     1700     1380   
                                           T        V       H0       H01     AOSYM     SMH    MOLCAS    ERIS     OPER     JKOP   

              2       5        0.33       700     1000      520     2100     2140   
                                         GEOM     BASIS   MCVARS     RHF     MCSCF   

 PROGRAMS   *        TOTAL       FCI    CASSCF  RCCSD(T)       RHF       INT
 CPU TIMES  *         0.34      0.07      0.03      0.06      0.01      0.06
 REAL TIME  *         0.74 SEC
 DISK USED  *        12.26 MB      
 **********************************************************************************************************************************


 PROGRAM * FCIQMC (Monte-Carlo Full Configuration Interaction)    Authors: A. Alavi, G. Booth, 2011

 ***  Initialisation ***
 
 Molecular orbitals read from record     2140.2  Type=MCSCF/NATURAL (state 1.1)
 
 Frozen orbitals:              0 (  0  0  0  0  0  0  0  0)
 Active orbitals:             27 (  9  4  4  2  4  2  2  0)
 Active electrons:             3
 Spin quantum number:          0.5

 Transformed integrals will be written to file FCIDUMP_00036758 (relative to TMPDIR)
 File format: FCIDUMP.

 Load integrals                0.3 sec
 Transform integrals           0.3 sec
 Storage for integrals:          21561
 Remaining memory:           *********

 Core energy:               0.00000000
 FCIDUMPED...
 
 Entering NECI for FCIQMC calculation...
 Calling with input filename: 
 FCIQMC_input_00036758                                           
 Using external MPI configuration
 Number of processors:                      1
 NECI Processor                      1 /                     1
 Working directory: 
     /home/dattani/Li/2zeta
 Running on: alxmp09
 Started running on 31/01/2018 at 14:08:08
 ================================================================

Molpro unique filename suffix: 00036758    
 Reading from file: FCIQMC_input_00036758
 Using the default set of defaults.

****************************************************************

 Allocating each processor as a separate node.
 Processor      Node
         0         0
 I am the node root for node                      0
======== SYSTEM ==========
  NUMBER OF ELECTRONS :     3
  Restricting the spin state of the system, TSPN :  T
  GLOBAL MS :                      1
  Open shell system - SYMIGNOREENERGIES set.  
  *** GENERIC SYSTEM ***  
  High-spin restricted calculation. Seriously Cave Arthropodia.  
  NUMBER OF SPIN ORBITALS IN BASIS :    54
*** CREATING BASIS FNs FROM FCIDUMP ***
 Reading in ROHF FCIDUMP, and storing as spatial orbitals.
  Maximum number of symmetries:   8
  Generating abelian symmetry table with  3 generators
  Number of symmetry classes:   8
*** READING PRIMITIVE INTEGRALS FROM FCIDUMP ***
Memory required for integral storage:     0.5465011597     Mb/Shared Memory
Allocated     573048 bytes of shared memory named: umat
 ECORE=  0.000000000000000E+000
 Setting normal GetUMatEl routine
 N_alpha:  1 ; N_beta:  2 ; LMS:  1 ; NEl:  3
 Fermi det (D0):(    1,    2,    3)
 Symmetry:  ( 0, 0, 0) 0
NECI called from MOLPRO, so assuming orbitals ordered by occupation number.
Calculating orbital energies...
Reordering basis by orbital energies...
 
Ordering Basis (Closed):    0   0   0   0   0   0   0   0
Ordering Basis (Open  ):    0   0   0   0   0   0   0   0
      1      1      0      0      0     -1 ( 0, 0, 0) 0   0       -2.484775151       -2.484775151 #
      2      2      0      0      0      1 ( 0, 0, 0) 0   0       -2.470468746       -2.470468746 #
      3      3      0      0      0     -1 ( 0, 0, 0) 0   0       -0.196312714       -0.196312714 #
      4      6      0      0      0      1 ( 0, 0, 1) 1   0        0.017595115        0.017595115
      5      5      0      0      0     -1 ( 0, 0, 1) 1   0        0.009961481        0.009961481
      6      8      0      0      0      1 ( 0, 0, 2) 2   0        0.017595115        0.017595115
      7      7      0      0      0     -1 ( 0, 0, 2) 2   0        0.009961481        0.009961481
      8     10      0      0      0      1 ( 0, 0, 4) 4   0        0.017595115        0.017595115
      9      9      0      0      0     -1 ( 0, 0, 4) 4   0        0.009961481        0.009961481
     10     12      0      0      0      1 ( 0, 0, 0) 0   0        0.026059375        0.026059375
     11     11      0      0      0     -1 ( 0, 0, 0) 0   0        0.022405160        0.022405160
     12      4      0      0      0      1 ( 0, 0, 0) 0   0        0.037641739        0.037641739
     13     25      0      0      0     -1 ( 0, 0, 1) 1   0        0.036680490        0.036680490
     14     26      0      0      0      1 ( 0, 0, 1) 1   0        0.059637103        0.059637103
     15     31      0      0      0     -1 ( 0, 0, 2) 2   0        0.036680490        0.036680490
     16     32      0      0      0      1 ( 0, 0, 2) 2   0        0.059637103        0.059637103
     17     41      0      0      0     -1 ( 0, 0, 4) 4   0        0.036680490        0.036680490
     18     42      0      0      0      1 ( 0, 0, 4) 4   0        0.059637103        0.059637103
     19     13      0      0      0     -1 ( 0, 0, 0) 0   0        0.161764882        0.161764882
     20     14      0      0      0      1 ( 0, 0, 0) 0   0        0.187564136        0.187564136
     21     27      0      0      0     -1 ( 0, 0, 1) 1   0        0.170463889        0.170463889
     22     16      0      0      0      1 ( 0, 0, 0) 0   0        0.199819061        0.199819061
     23     33      0      0      0     -1 ( 0, 0, 2) 2   0        0.170463889        0.170463889
     24     18      0      0      0      1 ( 0, 0, 0) 0   0        0.199819061        0.199819061
     25     43      0      0      0     -1 ( 0, 0, 4) 4   0        0.170463889        0.170463889
     26     38      0      0      0      1 ( 0, 0, 3) 3   0        0.199819061        0.199819061
     27     15      0      0      0     -1 ( 0, 0, 0) 0   0        0.185805652        0.185805652
     28     48      0      0      0      1 ( 0, 0, 5) 5   0        0.199819061        0.199819061
     29     17      0      0      0     -1 ( 0, 0, 0) 0   0        0.185805652        0.185805652
     30     52      0      0      0      1 ( 0, 0, 6) 6   0        0.199819061        0.199819061
     31     37      0      0      0     -1 ( 0, 0, 3) 3   0        0.185805652        0.185805652
     32     28      0      0      0      1 ( 0, 0, 1) 1   0        0.200472503        0.200472503
     33     47      0      0      0     -1 ( 0, 0, 5) 5   0        0.185805652        0.185805652
     34     34      0      0      0      1 ( 0, 0, 2) 2   0        0.200472503        0.200472503
     35     51      0      0      0     -1 ( 0, 0, 6) 6   0        0.185805652        0.185805652
     36     44      0      0      0      1 ( 0, 0, 4) 4   0        0.200472503        0.200472503
     37     19      0      0      0     -1 ( 0, 0, 0) 0   0        0.524346534        0.524346534
     38     20      0      0      0      1 ( 0, 0, 0) 0   0        0.541965470        0.541965470
     39     21      0      0      0     -1 ( 0, 0, 0) 0   0        0.524346534        0.524346534
     40     22      0      0      0      1 ( 0, 0, 0) 0   0        0.541965470        0.541965470
     41     39      0      0      0     -1 ( 0, 0, 3) 3   0        0.524346534        0.524346534
     42     40      0      0      0      1 ( 0, 0, 3) 3   0        0.541965470        0.541965470
     43     49      0      0      0     -1 ( 0, 0, 5) 5   0        0.524346534        0.524346534
     44     50      0      0      0      1 ( 0, 0, 5) 5   0        0.541965470        0.541965470
     45     53      0      0      0     -1 ( 0, 0, 6) 6   0        0.524346534        0.524346534
     46     54      0      0      0      1 ( 0, 0, 6) 6   0        0.541965470        0.541965470
     47     23      0      0      0     -1 ( 0, 0, 0) 0   0        4.210499674        4.210499674
     48     24      0      0      0      1 ( 0, 0, 0) 0   0        4.227183796        4.227183796
     49     29      0      0      0     -1 ( 0, 0, 1) 1   0        5.574454951        5.574454951
     50     30      0      0      0      1 ( 0, 0, 1) 1   0        5.578537149        5.578537149
     51     35      0      0      0     -1 ( 0, 0, 2) 2   0        5.574454951        5.574454951
     52     36      0      0      0      1 ( 0, 0, 2) 2   0        5.578537149        5.578537149
     53     45      0      0      0     -1 ( 0, 0, 4) 4   0        5.574454951        5.574454951
     54     46      0      0      0      1 ( 0, 0, 4) 4   0        5.578537149        5.578537149
 Fock operator energy:  -5.15155661111021     
 Setting normal GetUMatEl routine
Setting integer length of determinants as bit-strings to:      2
Setting integer bit-length of determinants as bit-strings to:     64
 SYMMETRY MULTIPLICATION TABLE
 No Symmetry table found.
                    28  Symmetry PAIRS
                     8  DISTINCT ORBITAL PAIR PRODUCT SYMS
 Symmetry and spin of orbitals correctly set up for excitation generators.
 Simply transferring this into a spin orbital representation.
 Not storing the H matrix.
 <D0|H|D0>=  -7.43242520437180     
 <D0|T|D0>=  -9.71329379763340     
 FDET                     1                     2                     3
 FDet has     1 alpha electrons, and     2 beta electrons.
                          0  alpha-alpha occupied electron pairs
                          1  beta-beta occupied electron pairs
                          2  alpha-beta occupied electron pairs
                        325 alpha-alpha (vacant) hole pairs
                        300 beta-beta (vacant) hole pairs
                        650 alpha-beta (vacant) hole pairs
 
 Performing FCIQMC....
 
Symmetry of reference determinant is:          0
Symmetry of reference determinant from spin orbital symmetry info is:          0
*********** INITIATOR METHOD IN USE ***********
Starting with only the reference determinant in the fixed initiator space.
Value for seed is:            7

WARNING.  Error in SetupParameters
No iteration number specified. Only running for 100 iterations initially. Change with ITERATIONS option.

Reference Energy set to:        -7.4324252044
 No brillouin theorem assumed. Single excitations also used to calculate project
 ed energy.
 Calculating approximate pDoubles for use with excitation generator by looking a excitations from reference.
    274 double excitations, and      22 single excitations found from reference. This will be used to calculate pDoubles.
 pDoubles set to:       0.925676
 pSingles set to:       0.074324
From analysis of reference determinant and connections, an upper bound for the timestep is:       0.0132758285
 Using initial time-step:   1.327582848794336E-002
Will dynamically update timestep to limit spawning probability to   3.00000
Initial Diagonal Shift:         0.0000000000
 Connectivity of HF determinant is:                    296
Low memory requested for walkers, so increasing memory to 20Mb to avoid memory errors
Memory allocated for a maximum particle number per node of:         873813
Spawning vectors allowing for a total of         3000 particles to be spawned in any one iteration per core.
Reference processor is:        0
Initial reference is: (    1,    2,    3)
Initial number of particles set to          1 and shift will be held at     0.000 until particle number gets to           10000
 Initial memory (without excitgens + temp arrays) consists of :      20.091545 Mb/Processor
 Only one array of memory to store main particle list allocated...
 Initial memory allocation sucessful...
 
        Step    Shift           WalkerCng       GrowRate        TotWalkers      Annihil         NoDied          NoBorn          Proj.E          Av.Shift        Proj.E.Cyc      NoatHF          NoatDoubs       AccRat        UniqueDets   IterTime
           0    0.000000        0.000000        0.000000        1.000000        0.000000        0.000000        0.000000        0.000000        0.000000        0.000000        1.000000        0.000000        0.000000               1   0.0000    
          10    0.000000        0.000000        1.000000        1.000000        0.000000        0.000000        0.000000        0.000000        0.000000        0.000000        1.000000        0.000000        0.000000               1   0.0000    
          20    0.000000        0.000000        1.000000        1.000000        0.000000        0.000000        0.000000        0.000000        0.000000        0.000000        1.000000        0.000000        0.000000               1   0.0000    
          30    0.000000        0.000000        1.000000        1.000000        0.000000        0.000000        0.000000        0.000000        0.000000        0.000000        1.000000        0.000000        0.000000               1   0.0000    
          40    0.000000        1.000000        1.900000        2.000000        0.000000        2.000000        3.000000      -0.4273540E-01    0.000000      -0.1709416        1.000000        2.000000       0.1578947               2   0.0000    
          50    0.000000       -1.000000       0.7368421        1.000000        0.000000        1.000000        0.000000      -0.5741225E-01    0.000000      -0.1161196        1.000000        0.000000        0.000000               1   0.0000    
          60    0.000000        0.000000       0.8571429        1.000000        0.000000        1.000000        1.000000      -0.5752018E-01    0.000000      -0.5805981E-01    1.000000        0.000000       0.8333333E-01           1   0.0000    
          70    0.000000        0.000000       0.8333333        1.000000        0.000000        0.000000        0.000000      -0.4930301E-01    0.000000        0.000000        1.000000        0.000000        0.000000               1   0.0000    
          80    0.000000        0.000000        1.000000        1.000000        0.000000        0.000000        0.000000      -0.4314013E-01    0.000000        0.000000        1.000000        0.000000        0.000000               1   0.0000    
          90    0.000000        0.000000        1.000000        1.000000        0.000000        0.000000        0.000000      -0.3834678E-01    0.000000        0.000000        1.000000        0.000000        0.000000               1   0.0000    
         100    0.000000        0.000000        1.000000        1.000000        0.000000        0.000000        0.000000      -0.3451211E-01    0.000000        0.000000        1.000000        0.000000        0.000000               1   0.0000    
 - - - - - - - - - - - - - - - - - - - - - - - -
 Total loop-time:   3.999948501586914E-003
 - - - - - - - - - - - - - - - - - - - - - - - -
 
Current reference: 
(    1,    2,    3)
111000000000000000000000000000000000000000000000000000
 
Most occupied          1 determinants as excitations from reference: 
 
 Excitation   ExcitLevel   Seniority    Walkers    Weight    Init?   Proc
111000000000000000000000000000000000000000000000000000    0    1    1.000000      1.00000  Y      0
 

 Load balancing information based on the last iteration:
 Mean number of determinants/process       1.0000000000
 Min number of determinants/process                  1
 Max number of determinants/process                  1


Calculating approximate errorbar for energy estimates...

Calculation has not entered variable shift phase. Error analysis therefore not performed.
Direct reblocking of instantaneous energy possible, but this would contain finite sampling bias.


RESULTS FOR STATE 1.1
=====================

 Current reference energy                              -7.432425204372
 Projected correlation energy                          -0.034512105327
 No automatic errorbar obtained for projected energy
 No reliable averaged shift correlation energy could be obtained automatically

 Total projected energy          -7.46693731
 !FCIQMC STATE 1.1 ENERGY              -7.466937309699


 
 ================================================================
 Memory usage
 Maximum memory defined is (MB) :    8192.0
 Maximum memory used is    (MB) :      20.7
 
 Large memory allocations:
 
 Name              Allocated in       Deallocated in         Size
 - - - - - - - - - - - - - - - - - - - - - - - - - - - - - - - - 
 WalkVecDets       InitFCIMCPar       DeallocFciMCMemPar   13.3MB
 WalkVecH          InitFCIMCPar       DeallocFciMCMemPar    6.7MB
 UMat              IntInit            IntCleanup          559.6KB
 SpawnVec          InitFCIMCPar       DeallocFciMCMemPar   46.9KB
 SpawnVec2         InitFCIMCPar       DeallocFciMCMemPar   46.9KB
 TMAT2D            SetupTMAT          not deallocated      22.8KB
 SymPairProds      GenSymStatePairs   EndSym                3.0KB
 G1                SysInit            not deallocated       3.0KB
 Arr               SysInit            not deallocated        864B
 SymReps           GENMOLPSYMREPS     EndSym                 432B
 ================================================================

 ================================================================
 Timing report.

 Timing of most expensive procedures.

 Procedure                    Calls       CPU    system     total
 - - - - - - - - - - - - - - - - - - - - - - - - - - - - - - - - 
 NECICUBE                         1      0.02      0.00      0.02
 SysInit                          1      0.00      0.00      0.00
 SyncTime                       104      0.00      0.00      0.00
 WalkerTime                     100      0.00      0.00      0.00
 AnnihilTime                    100      0.00      0.00      0.00
 CommsTime                      100      0.00      0.00      0.00
 Compression interface          100      0.00      0.00      0.00
 Compress Sort interface        100      0.00      0.00      0.00
 AnnMainTime                    100      0.00      0.00      0.00
 SortTime                       100      0.00      0.00      0.00
 - - - - - - - - - - - - - - - - - - - - - - - - - - - - - - - - 
 Total                                   0.02      0.00      0.02

 Global CPU time          0.04
 Global system time       0.00
 Global total time        0.04
 ================================================================
 Calculation ended 31/01/2018 at 14:08:08
 ================================================================
 
 CPU-time for FCIQMC:            0.0 sec
 Elapsed-time for FCIQMC         0.1 sec


 **********************************************************************************************************************************
 DATASETS  * FILE   NREC   LENGTH (MB)   RECORD NAMES
              1      20        7.63       500      610      700      900      950      970     1000      129      960     1100   
                                          VAR    BASINP    GEOM    SYMINP    ZMAT    AOBASIS   BASIS     P2S    ABASIS      S 
                                         1400     1410     1200     1210     1080     1600     1650     1300     1700     1380   
                                           T        V       H0       H01     AOSYM     SMH    MOLCAS    ERIS     OPER     JKOP   

              2       5        0.33       700     1000      520     2100     2140   
                                         GEOM     BASIS   MCVARS     RHF     MCSCF   

 PROGRAMS   *        TOTAL    FCIQMC       FCI    CASSCF  RCCSD(T)       RHF       INT
 CPU TIMES  *         0.40      0.06      0.07      0.03      0.06      0.01      0.06
 REAL TIME  *         0.87 SEC
 DISK USED  *        12.26 MB      
 **********************************************************************************************************************************

        FCIQMC          FCI             CASSCF          RCCSD(T)        RHF-SCF 
     -7.46693731     -7.46608294     -7.43242520     -7.46608222     -7.43242520
 **********************************************************************************************************************************
 Variable memory released
