 **********************************************************************
                          MRCC program system
 **********************************************************************
 
                              Written by
    Mihaly Kallay, Zoltan Rolik, Jozsef Csontos, Istvan Ladjanszki,
       Lorant Szegedy, Bence Ladoczki, Gyula Samu, Klara Petrov,
        Mate Farkas, Peter Nagy, David Mester, and Bence Hegely
 
        Department of Physical Chemistry and Materials Science
            Budapest University of Technology and Economics
                  Budapest P.O.Box 91, H-1521 Hungary
 
                              www.mrcc.hu

 ************************ 2017-11-11 16:58:13 *************************
 Executing minp...

 Reading input from MINP...
 
 Input file:
 
# TITLE
basis=atomtype
Li:aCVDZ-EMSL
H:aVDZ-EMSL
uncontract=off
#iface=cfour
itol=18
scftol=13
cctol=9
calc=CC(4)
mem=22GB
core=corr
ccmaxit=999
scfmaxit=9999
scftype=RHF

scfiguess=ao
rohftype=standard
mult=1
charge=0
rest=2

unit=bohr
geom
Li
H 1 R

R=3.0152359721231985   # converted from Coxon using 2014 CODATA:  1.59559416124/0.52917721067


 
 
 Checking keyword combinations...
 
 Keywords:
 
 active=none
 agrid=ld0006-ld0590
 basis=atomtype
 basopt=off
 bpcompo=0.985
 bpcompv=0.98
 bpdfo=0.985
 bpocc=0.985
 bppdo=0.985
 bppdv=0.98
 bpedo=0.985
 bpedv=0.98
 calc=cc(4)
 ccmaxit=999
 ccprog=mrcc
 cctol=9
 charge=0
 cialg=disk
 ciguess=off
 cmpgrp=auto
 core=corr
 corembed=off
 dboc=off
 dendec=cholesky
 dens=0
 dfalg=invsqrt
 dfbasis_cor=none
 dfbasis_scf=none
 dfintran=ovirt
 dft=off
 diag=david
 domrad=10.d0
 drpaalg=fit
 ecp=auto
 edisp=off
 embed=off
 epert=none
 eps=0.975
 excrad=0.d0
 excrad_fin=0.000000000D+00
 freq=off
 gauss=spher
 geom=zmat
 gopt=off
 ghost=none
 gtol=7
 grtol=10
 hamilton=dc
 iface=none
 intalg=auto
 itol=18
 lcorthr=loose
 lccrest=off
 lmp2dens=on
 lnoepso=3e-5
 lnoepsv=1e-6
 localcc=off
 locintrf=disk
 maxact=off
 maxex=0
 bfbasis=none
 mem=22gb
 molden=on
 mulmet=0
 mult=1
 nacto=0
 nactv=0
 naf_cor=off
 naf_scf=off
 nafalg=albe
 naftyp=
 nchol=auto
 ndeps=1e-3
 nstate=1
 nsing=0
 ntrip=0
 occ=
 optalg=
 optmaxit=50
 optetol=1e-6
 optgtol=1e-4
 optstol=1e-3
 orblocc=off
 orbloco=off
 orblocv=off
 osveps=1e-3
 ovirt=off
 ovosnorb=80.0
 ptfreq=0.0
 popul=off
 pressure=100000
 qmmm=off
 refdet=none
 rest=2
 rgrid=log3
 rohftype=standard
 scspe=1.d0
 scsps=1.2d0
 scspt=0.33333333333333
 scfalg=auto
 scfdamp=off
 scfdiis=on
 scfdiis_end=9999
 scfdiis_start=1
 scfdiis_step=1
 scfdtol=17
 scfext=10
 scfiguess=ao
 scflshift=off
 scfmaxit=9999
 scftype=rhf
 scftol=13
 spairtol=1e-4
 symm=
 talg=occ
 temp=298.15
 test=off
 tprint=off
 uncontract=off
 unit=bohr
 verbosity=2
 wpairtol=0.100000000E-05

 ************************ 2017-11-11 16:58:13 *************************
 Executing integ...

 Allocation of 22.0 Gbytes of memory...
 
 Number of atoms:            2
 Charge:                     0
 Number of electrons:        4
 Number of core electrons:   2
 Spin multiplicity:          1
 
                 Cartesian coordinates [bohr]      Atomic mass [AMU]  Z
   1  Li    0.00000000    0.00000000    0.00000000     7.016003       3
   2  H     3.01523597    0.00000000    0.00000000     1.007825       1
 
 This molecule is linear.
 
 Rotational constants [cm-1]: 
      7.513777398918
 
 Point group: Cxv 
 Computational point group: C2v 
 
 Cartesian coordinates in standard orientation [bohr]
   1  Li    0.00000000    0.00000000   -0.37872575
   2  H     0.00000000    0.00000000    2.63651022
 
 Nuclear repulsion energy [au]:          0.994947005056
 
 
 Basis set information:
 
 Maximum angular momentum: d
 Maximum number of contracted Gaussians:    5
 Maximum number of primitive Gaussians:    11
 Spherical harmonic GTOs are used.
 
    1  Li acvdz-emsl [ 11s 6p 2d | 5s 4p 2d ]
    2  H  avdz-emsl [ 5s 2p | 3s 2p ]
 
 Total number of basis functions:    36
 
 
 Character table for point group C2v:
 
          E  C2  Qh  Qv  
    A1    1   1   1   1
    B1    1  -1   1  -1
    B2    1  -1  -1   1
    A2    1   1  -1  -1
 
 Number of basis functions per irrep:
    A1     18
    B1      8
    B2      8
    A2      2
 
 
 Calculation of overlap integrals...
 CPU time [min]:     0.023                   Wall time [min]:     0.028
 Calculation of kinetic energy integrals...
 CPU time [min]:     0.036                   Wall time [min]:     0.029
 Calculation of nuclear attraction integrals...
 CPU time [min]:     0.052                   Wall time [min]:     0.029
 
 Calculation of prescreening integrals...
 CPU time [min]:     0.089                   Wall time [min]:     0.031
 
 Calculation of two-electron integrals...
   5% done.
  32% done.
  49% done.
 100% done.
 CPU time [min]:     0.207                   Wall time [min]:     0.036

 ************************ 2017-11-11 16:58:16 *************************
 Executing scf...

 Allocation of 22.0 Gbytes of memory...
 ======================================================================
 ITERATION STEP   1
 CPU time [min]:     0.020                   Wall time [min]:     0.015
 
 ALPHA OCC:   2   0   0   0
 BETA  OCC:   2   0   0   0
 ***HARTREE-FOCK ENERGY IN STEP   1 IS      -7.7790125338020282 [AU]
 ======================================================================
 ITERATION STEP   2
 CPU time [min]:     0.078                   Wall time [min]:     0.019
 
 ALPHA OCC:   2   0   0   0
 BETA  OCC:   2   0   0   0
 ***HARTREE-FOCK ENERGY IN STEP   2 IS      -7.9774873063727600 [AU]
 ======================================================================
 ITERATION STEP   3
 CPU time [min]:     0.133                   Wall time [min]:     0.022
 
 ALPHA OCC:   2   0   0   0
 BETA  OCC:   2   0   0   0
 ***HARTREE-FOCK ENERGY IN STEP   3 IS      -7.9839231231938754 [AU]
 ======================================================================
 ITERATION STEP   4
 CPU time [min]:     0.195                   Wall time [min]:     0.026
 
 ALPHA OCC:   2   0   0   0
 BETA  OCC:   2   0   0   0
 ***HARTREE-FOCK ENERGY IN STEP   4 IS      -7.9843390614143575 [AU]
 ======================================================================
 ITERATION STEP   5
 CPU time [min]:     0.249                   Wall time [min]:     0.030
 
 ALPHA OCC:   2   0   0   0
 BETA  OCC:   2   0   0   0
 ***HARTREE-FOCK ENERGY IN STEP   5 IS      -7.9844064314607657 [AU]
 ======================================================================
 ITERATION STEP   6
 CPU time [min]:     0.304                   Wall time [min]:     0.033
 
 ALPHA OCC:   2   0   0   0
 BETA  OCC:   2   0   0   0
 ***HARTREE-FOCK ENERGY IN STEP   6 IS      -7.9844099859515065 [AU]
 ======================================================================
 ITERATION STEP   7
 CPU time [min]:     0.372                   Wall time [min]:     0.038
 
 ALPHA OCC:   2   0   0   0
 BETA  OCC:   2   0   0   0
 ***HARTREE-FOCK ENERGY IN STEP   7 IS      -7.9844100318787792 [AU]
 ======================================================================
 ITERATION STEP   8
 CPU time [min]:     0.424                   Wall time [min]:     0.041
 
 ALPHA OCC:   2   0   0   0
 BETA  OCC:   2   0   0   0
 ***HARTREE-FOCK ENERGY IN STEP   8 IS      -7.9844100322851634 [AU]
 ======================================================================
 ITERATION STEP   9
 CPU time [min]:     0.481                   Wall time [min]:     0.045
 
 ALPHA OCC:   2   0   0   0
 BETA  OCC:   2   0   0   0
 ***HARTREE-FOCK ENERGY IN STEP   9 IS      -7.9844100322906346 [AU]
 ======================================================================
 ITERATION STEP  10
 CPU time [min]:     0.535                   Wall time [min]:     0.049
 
 ALPHA OCC:   2   0   0   0
 BETA  OCC:   2   0   0   0
 ***HARTREE-FOCK ENERGY IN STEP  10 IS      -7.9844100322907323 [AU]
 ======================================================================
 ITERATION STEP  11
 CPU time [min]:     0.582                   Wall time [min]:     0.052
 
 ALPHA OCC:   2   0   0   0
 BETA  OCC:   2   0   0   0
 ***HARTREE-FOCK ENERGY IN STEP  11 IS      -7.9844100322907128 [AU]
 ======================================================================
 ITERATION STEP  12
 CPU time [min]:     0.629                   Wall time [min]:     0.055
 
 ALPHA OCC:   2   0   0   0
 BETA  OCC:   2   0   0   0
 ***HARTREE-FOCK ENERGY IN STEP  12 IS      -7.9844100322907243 [AU]
 ======================================================================
 ITERATION STEP  13
 CPU time [min]:     0.676                   Wall time [min]:     0.058
 
 ALPHA OCC:   2   0   0   0
 BETA  OCC:   2   0   0   0
 ***HARTREE-FOCK ENERGY IN STEP  13 IS      -7.9844100322907101 [AU]
 ======================================================================
 ITERATION STEP  14
 CPU time [min]:     0.727                   Wall time [min]:     0.061
 
 ALPHA OCC:   2   0   0   0
 BETA  OCC:   2   0   0   0
 ***HARTREE-FOCK ENERGY IN STEP  14 IS      -7.9844100322907146 [AU]
 ======================================================================
 ITERATION STEP  15
 CPU time [min]:     0.774                   Wall time [min]:     0.064
 
 ALPHA OCC:   2   0   0   0
 BETA  OCC:   2   0   0   0
 ***HARTREE-FOCK ENERGY IN STEP  15 IS      -7.9844100322907092 [AU]
 ======================================================================
 ITERATION STEP  16
 CPU time [min]:     0.823                   Wall time [min]:     0.068
 
 ALPHA OCC:   2   0   0   0
 BETA  OCC:   2   0   0   0
 ***HARTREE-FOCK ENERGY IN STEP  16 IS      -7.9844100322907021 [AU]
 ======================================================================
 
 SUCCESS...
 THE SCF ITERATION HAS CONVERGED!
 
                   A1  B1  B2  A2  
 FINAL ALPHA OCC:   2   0   0   0
 FINAL BETA  OCC:   2   0   0   0
 
 ***FINAL HARTREE-FOCK ENERGY:     -7.9844100322907021 [AU]
 
 RETURNING FROM SCF ALGORITHM
 ======================================================================

 ************************ 2017-11-11 16:58:21 *************************
 Executing ovirt...

 ovirt, the routine of orbital optimization and integral transformation 
Sat Nov 11 16:58:22 EST 2017
 Allocated memory:                   22528  Mb
 RHF calculation! 
 integral transforamtion: AOs ------ MOs
 # of basis functions, # of int. blocks    36     1
100 % 
 second part
100 %
 integral transformation is completed! 
CPU and WC time           6.08           0.85     AOs -> MOs 
Integrals are written to fort.55
Sat Nov 11 16:58:24 EST 2017
  ovirt terminated normally 

 ************************ 2017-11-11 16:58:24 *************************
 Executing goldstone...

 Generation of CC equations in terms of H and T...
 Generation of antisymmetrized Goldstone diagrams...
 Number of diagrams in T^1 equations:    15
 Number of diagrams in T^2 equations:    38
 Number of diagrams in T^3 equations:    53
 Number of diagrams in T^4 equations:    74
 Translation of diagrams to factorized equations...
 Optimizing intermediate calculation...
 Number of floating-point operations per iteration step:   1.6650E+09
 Probable CPU time per iteration step (hours):      0.02
 Required memory (Mbytes):     176.0
 Number of intermediates:                                 106
 Number of intermediates to be stored:                     43
 Length of intermediate file (Mbytes):      11.5

 ************************ 2017-11-11 16:58:28 *************************
 Executing xmrcc...

 **********************************************************************
 CC(                     4 ) calculation 
 
 
 Allocation of 176.0 Mbytes of memory...
 Number of spinorbitals:                    72
 Number of alpha electrons:                        2
 Number of beta electrons:                         2
 Spin multiplicity:                     1
 z-component of spin:  0.0
 Spatial symmetry:                      1
 Convergence criterion:  1.0E-09
 Construction of occupation graphs...
 Number of                     0 -fold excitations:                      1
 Number of                     1 -fold excitations:                     64
 Number of                     2 -fold excitations:                   1906
 Number of                     3 -fold excitations:                  21312
 Number of                     4 -fold excitations:                  82017
 Total number of configurations:                 105300
 Calculation of coupling coefficients...
 Length of intermediate file (Mbytes):       9.7
 
 ======================================================================
 
 Memory requirements /Mbyte/: 
               Minimal        Optimal
 Real*8:        168.7776       173.7089
 Integer:         0.5753
 Total:         169.3529       174.2841
 

 ************************ 2017-11-11 16:58:29 *************************
 Executing goldstone...

 Generation of CC equations in terms of H and T...
 Generation of antisymmetrized Goldstone diagrams...
 Number of diagrams in T^1 equations:    15
 Number of diagrams in T^2 equations:    33
 Number of diagrams in T^3 equations:     2
 Translation of diagrams to factorized equations...
 Optimizing intermediate calculation...
 Number of floating-point operations per iteration step:   1.6363E+07
 Probable CPU time per iteration step (hours):      0.00
 Required memory (Mbytes):     176.0
 Number of intermediates:                                  48
 Number of intermediates to be stored:                     20
 Length of intermediate file (Mbytes):       6.3

 ************************ 2017-11-11 16:58:31 *************************
 Executing xmrcc...

 **********************************************************************
 CC(2)(3) calculation 
 
 
 Allocation of 176.0 Mbytes of memory...
 Number of spinorbitals:                    72
 Number of alpha electrons:                        2
 Number of beta electrons:                         2
 Spin multiplicity:                     1
 z-component of spin:  0.0
 Spatial symmetry:                      1
 Convergence criterion:  1.0E-09
 Construction of occupation graphs...
 Number of                     0 -fold excitations:                      1
 Number of                     1 -fold excitations:                     64
 Number of                     2 -fold excitations:                   1906
 Total number of configurations:                   1971
 Calculation of coupling coefficients...
 Length of intermediate file (Mbytes):       5.3
 
 ======================================================================
 
 Spin case  1   Alpha:  1   Beta:  2
 Number of excitations:                  10656
 Number of                     3 -fold excitations:                  21312
 
 Memory requirements /Mbyte/: 
               Minimal        Optimal
 Real*8:          8.1683        18.1299
 Integer:         0.3793
 Total:           8.5476        18.5092
 

 ************************ 2017-11-11 16:58:32 *************************
 Executing mrcc...

 **********************************************************************
 CCSD(T) calculation                                                    
 
 
 OpenMP parallel version is running.
 Number of CPUs:  32
 Allocation of   18.1 Mbytes of memory...
 Number of spinorbitals:  72
 Number of alpha electrons:  2
 Number of beta  electrons:  2
 Spin multiplicity: 1
 z-component of spin:  0.0
 Spatial symmetry: 1
 Convergence criterion:  1.0E-09
 Construction of occupation graphs...
 Number of 0-fold excitations: 1
 Number of 1-fold excitations: 64
 Number of 2-fold excitations: 1906
 Total number of determinants: 1971
 Calculation of coupling coefficients...
 Initial cluster amplitudes are generated.
 Length of intermediate file (Mbytes):       5.3
 Reading integral list from unit 55...
 Sorting integrals...
 Energy of reference determinant [au]:      -7.984410032291
 Calculation of MP denominators...
 
 Starting CC iteration...
 ======================================================================
 Norm of residual vector:     0.68615640
 CPU time [min]:     0.838                   Wall time [min]:     0.033
 
 Iteration  1  CC energy:    -8.03810793  Energy decrease:   0.05369790
 ======================================================================
 Norm of residual vector:     0.10546605
 CPU time [min]:     1.266                   Wall time [min]:     0.047
 
 Iteration  2  CC energy:    -8.05122996  Energy decrease:   0.01312203
 ======================================================================
 Norm of residual vector:     0.01624729
 CPU time [min]:     1.615                   Wall time [min]:     0.058
 
 Iteration  3  CC energy:    -8.05180367  Energy decrease:   0.00057370
 ======================================================================
 Norm of residual vector:     0.00458957
 CPU time [min]:     1.954                   Wall time [min]:     0.069
 
 Iteration  4  CC energy:    -8.05177942  Energy decrease:   0.00002424
 ======================================================================
 Norm of residual vector:     0.00192885
 CPU time [min]:     2.276                   Wall time [min]:     0.079
 
 Iteration  5  CC energy:    -8.05182985  Energy decrease:   0.00005043
 ======================================================================
 Norm of residual vector:     0.00075859
 CPU time [min]:     2.614                   Wall time [min]:     0.090
 
 Iteration  6  CC energy:    -8.05183628  Energy decrease:   0.00000642
 ======================================================================
 Norm of residual vector:     0.00024800
 CPU time [min]:     2.956                   Wall time [min]:     0.100
 
 Iteration  7  CC energy:    -8.05183283  Energy decrease:   0.00000345
 ======================================================================
 Norm of residual vector:     0.00008814
 CPU time [min]:     3.296                   Wall time [min]:     0.111
 
 Iteration  8  CC energy:    -8.05183454  Energy decrease:   0.00000171
 ======================================================================
 Norm of residual vector:     0.00002638
 CPU time [min]:     3.631                   Wall time [min]:     0.121
 
 Iteration  9  CC energy:    -8.05183487  Energy decrease:   0.00000034
 ======================================================================
 Norm of residual vector:     0.00000856
 CPU time [min]:     3.961                   Wall time [min]:     0.132
 
 Iteration 10  CC energy:    -8.05183474  Energy decrease:   0.00000013
 ======================================================================
 Norm of residual vector:     0.00000267
 CPU time [min]:     4.302                   Wall time [min]:     0.142
 
 Iteration 11  CC energy:    -8.05183474  Energy decrease:   1.0731E-09
 ======================================================================
 Norm of residual vector:     0.00000079
 CPU time [min]:     4.638                   Wall time [min]:     0.153
 
 Iteration 12  CC energy:    -8.05183477  Energy decrease:   0.00000003
 ======================================================================
 Norm of residual vector:     0.00000025
 CPU time [min]:     4.968                   Wall time [min]:     0.163
 
 Iteration 13  CC energy:    -8.05183476  Energy decrease:   4.3146E-09
 ======================================================================
 Norm of residual vector:     0.00000007
 CPU time [min]:     5.311                   Wall time [min]:     0.174
 
 Iteration 14  CC energy:    -8.05183476  Energy decrease:   2.9606E-09
 ======================================================================
 Norm of residual vector:     0.00000003
 CPU time [min]:     5.640                   Wall time [min]:     0.184
 
 Iteration 15  CC energy:    -8.05183476  Energy decrease:   1.2064E-09
 ======================================================================
 Norm of residual vector:     0.00000001
 CPU time [min]:     5.997                   Wall time [min]:     0.196
 
 Iteration 16  CC energy:    -8.05183476  Energy decrease:   2.9886E-10
 ======================================================================
 Norm of residual vector:     2.3567E-09
 CPU time [min]:     6.330                   Wall time [min]:     0.206
 
 Iteration 17  CC energy:    -8.05183476  Energy decrease:   1.3217E-10
 ======================================================================
 Norm of residual vector:     4.7773E-10
 CPU time [min]:     6.654                   Wall time [min]:     0.216
 
 Iteration 18  CC energy:    -8.05183476  Energy decrease:   4.8281E-12
 ======================================================================
 
 Iteration has converged in 18 steps.
 
 Final results:
 Total CCSD energy [au]:              -8.051834762559
 Total MP2 energy [au]:               -8.038107929631
 
 Perturbative corrections are calculated...
 ======================================================================
 Spin case  1   Alpha:  1   Beta:  2
 Number of excitations:        10656
 CPU time [min]:     6.816                   Wall time [min]:     0.222
 ======================================================================
 Number of 3-fold excitations: 21312
 CPU time [min]:     6.827                   Wall time [min]:     0.223
 
 Total CCSD[T] energy [au]:           -8.051890922089
 Total CCSD(T) energy [au]:           -8.051890068199

 ************************ 2017-11-11 16:58:46 *************************
 Executing goldstone...

 Generation of CC equations in terms of H and T...
 Generation of antisymmetrized Goldstone diagrams...
 Number of diagrams in T^1 equations:    15
 Number of diagrams in T^2 equations:    38
 Number of diagrams in T^3 equations:    49
 Number of diagrams in T^4 equations:     5
 Translation of diagrams to factorized equations...
 Optimizing intermediate calculation...
 Number of floating-point operations per iteration step:   5.2111E+08
 Probable CPU time per iteration step (hours):      0.01
 Required memory (Mbytes):     176.0
 Number of intermediates:                                  80
 Number of intermediates to be stored:                     32
 Length of intermediate file (Mbytes):       7.0

 ************************ 2017-11-11 16:58:49 *************************
 Executing xmrcc...

 **********************************************************************
 CC(3)(4) calculation 
 
 
 Allocation of 176.0 Mbytes of memory...
 Number of spinorbitals:                    72
 Number of alpha electrons:                        2
 Number of beta electrons:                         2
 Spin multiplicity:                     1
 z-component of spin:  0.0
 Spatial symmetry:                      1
 Convergence criterion:  1.0E-09
 Construction of occupation graphs...
 Number of                     0 -fold excitations:                      1
 Number of                     1 -fold excitations:                     64
 Number of                     2 -fold excitations:                   1906
 Number of                     3 -fold excitations:                  21312
 Total number of configurations:                  23283
 Calculation of coupling coefficients...
 Length of intermediate file (Mbytes):       6.1
 
 ======================================================================
 
 Spin case  1   Alpha:  2   Beta:  2
 Number of excitations:                  82017
 Number of                     4 -fold excitations:                  82017
 
 Memory requirements /Mbyte/: 
               Minimal        Optimal
 Real*8:          8.1683        13.4878
 Integer:         0.4781
 Total:           8.6464        13.9658
 

 ************************ 2017-11-11 16:58:50 *************************
 Executing mrcc...

 **********************************************************************
 CCSDT(Q) calculation                                                   
 
 
 OpenMP parallel version is running.
 Number of CPUs:  32
 Allocation of   13.5 Mbytes of memory...
 Number of spinorbitals:  72
 Number of alpha electrons:  2
 Number of beta  electrons:  2
 Spin multiplicity: 1
 z-component of spin:  0.0
 Spatial symmetry: 1
 Convergence criterion:  1.0E-09
 Construction of occupation graphs...
 Number of 0-fold excitations: 1
 Number of 1-fold excitations: 64
 Number of 2-fold excitations: 1906
 Number of 3-fold excitations: 21312
 Total number of determinants: 23283
 Calculation of coupling coefficients...
 Initial cluster amplitudes are read from unit 16.
 Length of intermediate file (Mbytes):       6.1
 Reading integral list from unit 55...
 Sorting integrals...
 Energy of reference determinant [au]:      -7.984410032291
 Calculation of MP denominators...
 
 Starting CC iteration...
 ======================================================================
 Norm of residual vector:     0.02290336
 CPU time [min]:     1.518                   Wall time [min]:     0.062
 
 Iteration  1  CC energy:    -8.05183476  Energy decrease:   2.7889E-13
 ======================================================================
 Norm of residual vector:     0.00345300
 CPU time [min]:     2.860                   Wall time [min]:     0.108
 
 Iteration  2  CC energy:    -8.05187928  Energy decrease:   0.00004452
 ======================================================================
 Norm of residual vector:     0.00046609
 CPU time [min]:     4.057                   Wall time [min]:     0.146
 
 Iteration  3  CC energy:    -8.05189176  Energy decrease:   0.00001248
 ======================================================================
 Norm of residual vector:     0.00010274
 CPU time [min]:     5.604                   Wall time [min]:     0.196
 
 Iteration  4  CC energy:    -8.05189690  Energy decrease:   0.00000515
 ======================================================================
 Norm of residual vector:     0.00003658
 CPU time [min]:     6.742                   Wall time [min]:     0.233
 
 Iteration  5  CC energy:    -8.05189871  Energy decrease:   0.00000181
 ======================================================================
 Norm of residual vector:     0.00001679
 CPU time [min]:     7.663                   Wall time [min]:     0.262
 
 Iteration  6  CC energy:    -8.05189866  Energy decrease:   0.00000005
 ======================================================================
 Norm of residual vector:     0.00000673
 CPU time [min]:     8.468                   Wall time [min]:     0.288
 
 Iteration  7  CC energy:    -8.05189850  Energy decrease:   0.00000017
 ======================================================================
 Norm of residual vector:     0.00000235
 CPU time [min]:     9.278                   Wall time [min]:     0.313
 
 Iteration  8  CC energy:    -8.05189848  Energy decrease:   0.00000002
 ======================================================================
 Norm of residual vector:     0.00000067
 CPU time [min]:    10.298                   Wall time [min]:     0.346
 
 Iteration  9  CC energy:    -8.05189849  Energy decrease:   0.00000001
 ======================================================================
 Norm of residual vector:     0.00000022
 CPU time [min]:    11.560                   Wall time [min]:     0.387
 
 Iteration 10  CC energy:    -8.05189849  Energy decrease:   4.7791E-09
 ======================================================================
 Norm of residual vector:     0.00000007
 CPU time [min]:    12.792                   Wall time [min]:     0.426
 
 Iteration 11  CC energy:    -8.05189849  Energy decrease:   4.8445E-10
 ======================================================================
 Norm of residual vector:     0.00000002
 CPU time [min]:    14.048                   Wall time [min]:     0.470
 
 Iteration 12  CC energy:    -8.05189849  Energy decrease:   2.3256E-10
 ======================================================================
 Norm of residual vector:     0.00000001
 CPU time [min]:    15.464                   Wall time [min]:     0.519
 
 Iteration 13  CC energy:    -8.05189849  Energy decrease:   1.2186E-10
 ======================================================================
 Norm of residual vector:     2.0752E-09
 CPU time [min]:    16.833                   Wall time [min]:     0.563
 
 Iteration 14  CC energy:    -8.05189849  Energy decrease:   2.1897E-11
 ======================================================================
 Norm of residual vector:     5.4743E-10
 CPU time [min]:    17.724                   Wall time [min]:     0.591
 
 Iteration 15  CC energy:    -8.05189849  Energy decrease:   5.5458E-12
 ======================================================================
 
 Iteration has converged in 15 steps.
 
 Final results:
 Total CCSDT energy [au]:             -8.051898493603
 
 Perturbative corrections are calculated...
 ======================================================================
 Spin case  1   Alpha:  2   Beta:  2
 Number of excitations:        82017
 CPU time [min]:    18.773                   Wall time [min]:     0.624
 ======================================================================
 Number of 4-fold excitations: 82017
 CPU time [min]:    18.784                   Wall time [min]:     0.624
 
 Total CCSDT[Q] energy [au]:          -8.051898471829
 Total CCSDT(Q) energy [au]:          -8.051898673820

 ************************ 2017-11-11 16:59:29 *************************
 Executing goldstone...

 Generation of CC equations in terms of H and T...
 Generation of antisymmetrized Goldstone diagrams...
 Number of diagrams in T^1 equations:    15
 Number of diagrams in T^2 equations:    38
 Number of diagrams in T^3 equations:    53
 Number of diagrams in T^4 equations:    74
 Translation of diagrams to factorized equations...
 Optimizing intermediate calculation...
 Number of floating-point operations per iteration step:   1.6650E+09
 Probable CPU time per iteration step (hours):      0.02
 Required memory (Mbytes):     176.0
 Number of intermediates:                                 106
 Number of intermediates to be stored:                     43
 Length of intermediate file (Mbytes):      11.5

 ************************ 2017-11-11 16:59:32 *************************
 Executing xmrcc...

 **********************************************************************
 CC(                     4 ) calculation 
 
 
 Allocation of 176.0 Mbytes of memory...
 Number of spinorbitals:                    72
 Number of alpha electrons:                        2
 Number of beta electrons:                         2
 Spin multiplicity:                     1
 z-component of spin:  0.0
 Spatial symmetry:                      1
 Convergence criterion:  1.0E-09
 Construction of occupation graphs...
 Number of                     0 -fold excitations:                      1
 Number of                     1 -fold excitations:                     64
 Number of                     2 -fold excitations:                   1906
 Number of                     3 -fold excitations:                  21312
 Number of                     4 -fold excitations:                  82017
 Total number of configurations:                 105300
 Calculation of coupling coefficients...
 Length of intermediate file (Mbytes):       9.7
 
 ======================================================================
 
 Memory requirements /Mbyte/: 
               Minimal        Optimal
 Real*8:        168.7776       173.7089
 Integer:         0.5753
 Total:         169.3529       174.2841
 

 ************************ 2017-11-11 16:59:33 *************************
 Executing mrcc...

 **********************************************************************
 CCSDTQ calculation                                                     
 
 
 OpenMP parallel version is running.
 Number of CPUs:  32
 Allocation of  173.7 Mbytes of memory...
 Number of spinorbitals:  72
 Number of alpha electrons:  2
 Number of beta  electrons:  2
 Spin multiplicity: 1
 z-component of spin:  0.0
 Spatial symmetry: 1
 Convergence criterion:  1.0E-09
 Construction of occupation graphs...
 Number of 0-fold excitations: 1
 Number of 1-fold excitations: 64
 Number of 2-fold excitations: 1906
 Number of 3-fold excitations: 21312
 Number of 4-fold excitations: 82017
 Total number of determinants: 105300
 Calculation of coupling coefficients...
 Initial cluster amplitudes are read from unit 16.
 Length of intermediate file (Mbytes):       9.7
 Reading integral list from unit 55...
 Sorting integrals...
 Energy of reference determinant [au]:      -7.984410032291
 Calculation of MP denominators...
 
 Starting CC iteration...
 ======================================================================
 Norm of residual vector:     0.00172213
 CPU time [min]:     3.628                   Wall time [min]:     0.120
 
 Iteration  1  CC energy:    -8.05189849  Energy decrease:   2.3022E-12
 ======================================================================
 Norm of residual vector:     0.00028376
 CPU time [min]:     6.633                   Wall time [min]:     0.214
 
 Iteration  2  CC energy:    -8.05189847  Energy decrease:   0.00000002
 ======================================================================
 Norm of residual vector:     0.00004627
 CPU time [min]:     9.579                   Wall time [min]:     0.307
 
 Iteration  3  CC energy:    -8.05189863  Energy decrease:   0.00000016
 ======================================================================
 Norm of residual vector:     0.00000652
 CPU time [min]:    12.616                   Wall time [min]:     0.402
 
 Iteration  4  CC energy:    -8.05189867  Energy decrease:   0.00000004
 ======================================================================
 Norm of residual vector:     0.00000125
 CPU time [min]:    15.745                   Wall time [min]:     0.501
 
 Iteration  5  CC energy:    -8.05189868  Energy decrease:   0.00000001
 ======================================================================
 Norm of residual vector:     0.00000030
 CPU time [min]:    18.795                   Wall time [min]:     0.596
 
 Iteration  6  CC energy:    -8.05189868  Energy decrease:   2.5605E-09
 ======================================================================
 Norm of residual vector:     0.00000019
 CPU time [min]:    21.816                   Wall time [min]:     0.691
 
 Iteration  7  CC energy:    -8.05189867  Energy decrease:   4.4509E-09
 ======================================================================
 Norm of residual vector:     0.00000009
 CPU time [min]:    24.889                   Wall time [min]:     0.787
 
 Iteration  8  CC energy:    -8.05189867  Energy decrease:   1.6682E-09
 ======================================================================
 Norm of residual vector:     0.00000002
 CPU time [min]:    27.904                   Wall time [min]:     0.882
 
 Iteration  9  CC energy:    -8.05189867  Energy decrease:   2.8778E-10
 ======================================================================
 Norm of residual vector:     0.00000001
 CPU time [min]:    31.004                   Wall time [min]:     0.979
 
 Iteration 10  CC energy:    -8.05189867  Energy decrease:   1.4467E-11
 ======================================================================
 Norm of residual vector:     2.2338E-09
 CPU time [min]:    33.988                   Wall time [min]:     1.072
 
 Iteration 11  CC energy:    -8.05189867  Energy decrease:   3.3470E-11
 ======================================================================
 Norm of residual vector:     7.3666E-10
 CPU time [min]:    36.848                   Wall time [min]:     1.162
 
 Iteration 12  CC energy:    -8.05189867  Energy decrease:   9.5834E-12
 ======================================================================
 
 Iteration has converged in 12 steps.
 
 Final results:
 Total CCSDTQ energy [au]:            -8.051898670815
 
 ************************ 2017-11-11 17:00:44 *************************
                      Normal termination of mrcc.
 **********************************************************************
--- SharcNET Job Epilogue ---
Job completed successfully.
               jobid: 1490385
               resid: 2971639
         exit status: 0
      allocated time: 151.994
           user time: 3142.8
         system time: 746.02
peak rss=278220800; peak vsz=278220800 (bytes)
atime=151.994; utime=3142.8; stime=746.02; exit=0
