 --invoking executable--
/project1/nike/cfour_v2.00beta_May2019xnmol_noLABBASIS/bin/xjoda


   *************************************************************************
         <<<     CCCCCC     CCCCCC   |||     CCCCCC     CCCCCC   >>>
       <<<      CCC        CCC       |||    CCC        CCC         >>>
      <<<      CCC        CCC        |||   CCC        CCC            >>>
    <<<        CCC        CCC        |||   CCC        CCC              >>>
      <<<      CCC        CCC        |||   CCC        CCC            >>>
       <<<      CCC        CCC       |||    CCC        CCC         >>>
         <<<     CCCCCC     CCCCCC   |||     CCCCCC     CCCCCC   >>>
   *************************************************************************

     ****************************************************************
     * CFOUR Coupled-Cluster techniques for Computational Chemistry *
     ****************************************************************
 

   Department of Chemistry                Institut fuer Physikalische Chemie
   University of Texas at Austin          Universitaet Mainz
   Austin, TX  78712, USA                 D-55099 Mainz, Germany
 
                       Version 2.00beta
 
                     req126                                            
                     Sat Mar 14 14:31:47 EDT 2020                      
                     integer*8 version is running
 
********************************************************************************
*                          Input from ZMAT file                                *
********************************************************************************
TITLE                                                                           
C        0.00000        0.00000        0.00000                                  
C        1.32560        0.00000        0.00000                                  
H       -0.52840        0.94237        0.00000                                  
H        1.93370        0.89011        0.00000                                  
H       -0.57247       -0.91508       -0.00000                                  
Br       2.34093       -1.58640        0.00000                                  
                                                                                
*ACES2(CALC=CCSD(T)                                                             
#UNITS=BOHR                                                                     
#GEOM=2.6729874*10/5.29177210903_Pentasilane_def2-QZVP_pbe                      
COORD=CARTESIAN                                                                 
#COORD=INTERNAL                                                                 
PRINT=4                                                                         
JODA_PRINT=4                                                                    
INPUT_MRCC=OFF                                                                  
#CC_PROG=MRCC                                                                   
#FROZEN_CORE=ON                                                                 
DROPMO=1>16                                                                     
CONTRACTION=GENERAL                                                             
#CONTRACTION=SEGMENTED                                                          
RELATIVISTIC=OFF                                                                
#EXCITE=EOMEE                                                                   
#ESTATE_CONV=5                                                                  
#ESTATE_SYM=2/2/2/2/2/2/2/2                                                     
XFORM_TOL=18                                                                    
SAVE_INTS=ON                                                                    
SCF_EXPORDER=6                                                                  
SCF_EXPSTART=5                                                                  
#SCF_DAMPING=1000                                                               
SCF_EXTRAPOLATION=ON                                                            
SCF_CONV=11                                                                     
SCF_MAXCYC=99999                                                                
CC_CONV=9                                                                       
CC_MAXCYC=999                                                                   
T3_EXTRAPOL=ON                                                                  
REFERENCE=RHF                                                                   
#SYMMETRY=OFF                                                                   
#HFSTABILITY=FOLLOW                                                             
CHARGE=+1                                                                       
MULT=2                                                                          
ABCDTYPE=STANDARD                                                               
#OCCUPATION=3-2-2-0-1-0-0-0/3-1-1-0-1-0-0-0                                     
MEM=4                                                                           
MEM_UNIT=GB                                                                     
BASIS=SPECIAL)                                                                  
                                                                                
C:def2-TZVPP                                                                    
C:def2-TZVPP                                                                    
H:def2-TZVPP                                                                    
H:def2-TZVPP                                                                    
H:def2-TZVPP                                                                    
BR:def2-TZVPP                                                                   
                                                                                
********************************************************************************
  @GTFLGS-W, Keyword #UNITS not known and is ignored.
  @GTFLGS-W, Keyword #GEOM not known and is ignored.
  @GTFLGS-W, Keyword #COORD not known and is ignored.
  @GTFLGS-W, Keyword #CC_PROG not known and is ignored.
  @GTFLGS-W, Keyword #FROZEN_CORE not known and is ignored.
  @GTFLGS-W, Keyword #CONTRACTION not known and is ignored.
  @GTFLGS-W, Keyword #EXCITE not known and is ignored.
  @GTFLGS-W, Keyword #ESTATE_CONV not known and is ignored.
  @GTFLGS-W, Keyword #ESTATE_SYM not known and is ignored.
  @GTFLGS-W, Keyword #SCF_DAMPING not known and is ignored.
  @GTFLGS-W, Keyword #SYMMETRY not known and is ignored.
  @GTFLGS-W, Keyword #HFSTABILITY not known and is ignored.
  @GTFLGS-W, Keyword #OCCUPATION not known and is ignored.
  @GTFLGS-I, Calculation type set to UHF.
    -------------------------------------------------------------------
                    CFOUR Control Parameters 
    -------------------------------------------------------------------
        External           Internal           Value            Units
          Name               Name
    -------------------------------------------------------------------
       ABCDTYPE             IABCDT         STANDARD     [  0]   ***   
       ANHARMONIC           IANHAR         OFF          [  0]   ***   
       ANH_ALGORIT          IANALG         STANDARD     [  0]   ***   
       ANH_DERIVAT          IANDER         SECOND       [  1]   ***   
       ANH_STEPSIZ          ICUBST             50000          x 10-6  
       ANH_SYMMETR          IANHSM         ABELIAN      [  0]   ***   
       AO_LADDERS           IAOLAD         SINGLEPASS   [  1]   ***   
       BASIS                IBASIS         SPECIAL      [  0]   ***   
       BREIT                IBREIT         OFF          [  0]   ***   
       BRUCK_CONV           IBRTOL          10D-  4             ***   
       BRUECKNER            IBRKNR             OFF      [  0]   ***   
       BUFFERSIZE           IBUFFS            600               ***   
       CACHE_RECS           ICHREC             10               ***   
       CALCLEVEL            ICLLVL           CCSD(T)    [ 22]   ***   
       CCORBOPT             ICCORB             OFF      [  0] x 0.01  
       CC_CONV              ICCCNV          10D-  9             ***   
       CC_EXPORDER          ICCEOR              5               ***   
       CC_EXTRAPOL          ICCEXT             DIIS     [  1]   ***   
       CC_MAXCYC            ICCCYC            999              cycles 
       CC_PROGRAM           ICCPRO         VCC          [  0]   ***   
       CHARGE               ICHRGE              1               ***   
       CHOLESKY             ICHOLE         OFF          [  0]   ***   
       CIS_CONV             ICISTL              5               ***   
       COMM_SIZE            IPSIZE            ***               ***   
       CONSTANT             ICONST         OLD          [  1]   ***   
       CONTINUUM            ICONTU         NONE         [  0]   ***   
       CONTRACTION          ICNTYP          GENERAL     [  1]   ***   
       COORDINATES          ICOORD         CARTESIAN    [  1]   ***   
       CPHF_CONVER          ICPHFT          10D- 16             ***   
       CPHF_MAXCYC          ICPHFC             64              cycles 
       CUBIC                ICUBIC         OFF          [  0]   ***   
       CURVILINEAR          ICURVY            OFF       [  0]   ***   
       DBOC                 IDBOC          OFF          [  0]   ***   
       DCT                  IDCT           OFF          [  0]   ***   
       DERIV_LEV            IDRLVL            ZERO      [  0]   ***   
       DIAG_MRCC            IEOMST          10D-  0             ***   
       DIFF_TYPE            IDIFTY         RELAXED      [  0]   ***   
       DIRECT               IDIRCT         OFF          [  0]   ***   
       DROPMO               IDRPMO   1,  2,  3,  4,  5,  6,  7,  8,
                                     9, 10, 11, 12, 13, 14, 15, 16,
       ECP                  IECP           OFF          [  0]   ***   
       EIGENVECTOR          IVEC                1               ***   
       EL_ANHARM            IELANH         OFF          [  0]   ***   
       EOMFOLLOW            IEOMSR         ENERGY       [  0]   ***   
       EOM_MRCC             IMRCCE         NEW          [  1]   ***   
       EOM_NONIT            EOMNON         OFF          [  0]   ***   
       EOM_NSING            IEOMSI          10D-  0             ***   
       EOM_NSTATES          IMRCCD         DAVIDSON     [  0]   ***   
       EOM_NTRIP            IEOMTR          10D-  0             ***   
       EOM_ORDER            IEXORD         ENERGY       [  0]   ***   
       ESTATE_CONV          IEXTOL          10D-  5             ***   
       ESTATE_DIAG          IEXDIG         ITERATIVE    [  0]   ***   
       ESTATE_LOCK          IESLOC         ON           [  1]   ***   
       ESTATE_MAXC          IEXMXC             20               ***   
       ESTATE_PROP          IEXPRP         OFF          [  0]   ***   
       EVAL_HESS            IRECAL              0            # of cyc.
       EXCITATION           IEXCIT              0               ***   
       EXCITE               IEXCIT         NONE         [  0]   ***   
       FCGRADNEW            IFCGNW         OFF          [  0]   ***   
       FC_FIELD             IFINFC              0             x 10-6  
       FD_CALTYPE           IFDCAL         GRADONLY     [  0]   ***   
       FD_PROJECT           IFDPRJ         OFF          [  1]   ***   
       FD_STEPSIZE          IDISFD              0            10-4 bohr
       FD_USEGROUP          IFDGRP         FULL         [  0]   ***   
       FILE_RECSIZ          IFLREC              4096           words  
       FINITE_PERT          IFIPER              0             x 10-6  
       FIXGEOM              IFIXGM         OFF          [  0]   ***   
       FOCK                 IFOCK          AO           [  1]   ***   
       FREQ_ALGORI          IVIALG         STANDARD     [  0]   ***   
       FROZEN_CORE          IFROCO         OFF          [  0]   ***   
       FROZEN_VIRT          IFROVI         OFF          [  0]   ***   
       GAMMA_ABCD           IGABCD         STORE        [  0]   ***   
       GAMMA_ABCI           IGABCI         STORE        [  0]   ***   
       GENBAS_1             IGNBS1              0               ***   
       GENBAS_2             IGNBS2              0               ***   
       GENBAS_3             IGNBS3              0               ***   
       GENBAS_4             IGNBS4              0               ***   
       GEO_CONV             ICONTL              5              H/bohr 
       GEO_MAXCYC           IOPTCY             50               ***   
       GEO_MAXSTEP          IMXSTP            300            millibohr
       GEO_METHOD           INR            SINGLE_POINT [  5]   ***   
       GIAO                 IGIAO          OFF          [  1]   ***   
       GIMIC                IGIMIC         OFF          [  0]   ***   
       GRID                 IGRID          OFF          [  0]   ***   
       GRID_ALGO            IGALGO         SERIAL       [  0]   ***   
       GUESS                IGUESS            MOREAD    [  0]   ***   
       HBAR                 IHBAR              OFF      [  0]   ***   
       HESS_TYPE            IHESTP         SCF          [  0]   ***   
       HF2_FILE             IHF2Fl         USE          [  1]   ***   
       HFSTABILITY          ISTABL         OFF          [  0]   ***   
       INCORE               INCORE             OFF      [  0]   ***   
       INPUT_MRCC           IMRCC          OFF          [  0]   ***   
       INTEGRALS            INTTYP             VMOL     [  1]   ***   
       JODA_PRINT           IJPRNT              4               ***   
       LINDEP_TOL           ILINDP              8               ***   
       LINEQ_CONV           IZTACN          10D-  7           cycles  
       LINEQ_EXPOR          ILMAXD              5               ***   
       LINEQ_MAXCY          ILMAXC             50               ***   
       LINEQ_TYPE           ILTYPE         DIIS         [  1]   ***   
       LOCK_ORBOCC          ILOCOC             OFF      [  0]   ***   
       MEMORY_SIZE          IMEMSZ         500000000           words  
       MEM_UNIT             IMEMU          GB           [  3]   ***   
       MRCC                 IMRCCC         OFF          [  0]   ***   
       MULTIPLICTY          IMULTP              2               ***   
       NEGEVAL              IDIE             ABORT      [  0]   ***   
       NEWNORM              INEWNO         OFF          [  0]   ***   
       NON-HF               INONHF             OFF      [  0]   ***   
       NTOP_TAMP            ITOPT2             15               ***   
       NUC_MODEL            INUCMO         POINT        [  0]   ***   
       OCCUPATION           IOCCU   ESTIMATED BY SCF 
       OPEN-SHELL           IOPEN          SPIN-ORBITAL [  0]   ***   
       ORBITALS             IORBTP           STANDARD   [  0]   ***   
       PARALLEL             IPARAL         ON           [  1]   ***   
       PARA_INT             IPINTS         ON           [  1]   ***   
       PARA_PRINT           IPPRIN              0               ***   
       PERT_ORB             IPTORB         STANDARD     [  0]   ***   
       POINTS               IGRDFD              0               ***   
       PRINT                IPRNT               4               ***   
       PROPS                IPROPS             OFF      [  0]   ***   
       PROP_INTEGR          IINTYP         INTERNAL     [  0]   ***   
       PSI                  IPSI           OFF          [  0]   ***   
       QUARTIC              IQUART         OFF          [  0]   ***   
       RAMAN_INT            IRAMIN         OFF          [  0]   ***   
       RAMAN_ORB            IRAMRE         UNRELAXED    [  0]   ***   
       RDO                  IRDOFM             OFF      [  0]   ***   
       REFERENCE            IREFNC             UHF      [  1]   ***   
       RELATIVIST           IRELAT         OFF          [  0]   ***   
       RELAX_DENS           IRDENS             OFF      [  0]   ***   
       RESET_FLAGS          IRESET             OFF      [  0]   ***   
       RESTART_CC           ICCRES         OFF          [  0]   ***   
       ROT_EVEC             ROTVEC              0               ***   
       SAVE_INTS            ISVINT              ON      [  1]   ***   
       SCALE_ON             ISTCRT              0               ***   
       SCF_CONV             ISCFCV          10D- 11             ***   
       SCF_DAMPING          IDAMP               0             x 10-3  
       SCF_EXPORDE          IRPPOR              6               ***   
       SCF_EXPSTAR          IRPPLS              5               ***   
       SCF_EXTRAPO          IRPP                ON      [  1]   ***   
       SCF_MAXCYC           ISCFCY            ***              cycles 
       SCF_NOSTOP           ISCFST         OFF          [  0]   ***   
       SCF_PRINT            ISCFPR              0               ***   
       SD_FIELD             IFINSD              0             x 10-6  
       SEQUENCE             ISEQUE         OFF          [  0]   ***   
       SOPERT               IPERSO         OFF          [  0]   ***   
       SPHERICAL            IDFGHI             ON       [  1]   ***   
       SPINORBIT            ISOCAL         OFF          [  0]   ***   
       SPINROTATIO          ISRCON         OFF          [  0]   ***   
       SPIN_FLIP            ISPFLP         OFF          [  0]   ***   
       SPIN_ORBIT           ISPORB         OFF          [  0]   ***   
       SPIN_SCAL            ISCSMP         OFF          [  0]   ***   
       SUBGROUP             ISUBGP         DEFAULT      [  0]   ***   
       SUBGRPAXIS           ISBXYZ         X            [  0]   ***   
       SYMMETRY             ISYM             ON         [  0]   ***   
       SYM_CHECK            ISYMCK         OVERRIDE     [  1]   ***   
       T3_EXTRAPOL          IT3EXT         ON           [  1]   ***   
       TAMP_SUM             IEVERY              5               ***   
       TESTSUITE            ITESTS         OFF          [  0]   ***   
       THERMOCH             ITHERM         OFF          [  0]   ***   
       TOL_CHOLESK          ITOLCH          10D-  4             ***   
       TRANGRAD             IRESRM         OFF          [  0]   ***   
       TRANS_INV            ITRAIN         USE          [  0]   ***   
       TREAT_PERT           ITREAT         SIMULTANEOUS [  0]   ***   
       UIJ_THRESHO          IUIJTH              1               ***   
       UNITS                IUNITS         ANGSTROM     [  0]   ***   
       UNOS                 IUNOS          OFF          [  0]   ***   
       UPDATE_HESS          IHUPDT         ON           [  1]   ***   
       VIBPHASE             ISETPH         STANDARD     [  0]   ***   
       VIBRATION            IVIB              NO        [  0]   ***   
       VIB_ALGORIT          IGEALG         STANDARD     [  0]   ***   
       VNATORB              IVNORB         OFF          [  0]   ***   
       VTRAN                IVTRAN         FULL/PARTIAL [  0]   ***   
       XFIELD               IXEFLD              0             x 10-6  
       XFORM_TOL            IXFTOL          10D- 18             ***   
       YFIELD               IYEFLD              0             x 10-6  
       ZFIELD               IZEFLD              0             x 10-6  
    -------------------------------------------------------------------
  @GETXYZ-I,     6 atoms read from ZMAT.
  1  C          6    12.00000
  2  C          6    12.00000
  3  H          1     1.00783
  4  H          1     1.00783
  5  H          1     1.00783
  6  BR        35    78.91834
  1  C          6    12.00000
  2  C          6    12.00000
  3  H          1     1.00783
  4  H          1     1.00783
  5  H          1     1.00783
  6  BR        35    78.91834
   12.0000000000
   12.0000000000
    1.0078250350
    1.0078250350
    1.0078250350
   78.9183361000
 After translation to center of mass coordinates 
       -3.594037276832    2.216679981086    0.000000000000
       -1.089015801035    2.216679981086    0.000000000000
       -4.592568770353    3.997501562367    0.000000000000
        0.060126896183    3.898744454397    0.000000000000
       -4.675849018119    0.487429036553    0.000000000000
        0.829680227194   -0.781182171301    0.000000000000
  Inertia tensor (amu*bohr**2)
  197.75131  196.28260    0.00000
  196.28260  266.85669    0.00000
    0.00000    0.00000  464.60800
    Inertia tensor:
      197.751309109348  196.282596185638    0.000000000000
      196.282596185638  266.856692332015    0.000000000000
        0.000000000000    0.000000000000  464.608001441363
    Principal axis orientation for molecular system: 
       -4.177960122920   -0.612717958850    0.000000000000
       -2.259230019582    0.997750105021    0.000000000000
       -6.087671782511    0.109356846924    0.000000000000
       -2.460432458095    3.024912508403    0.000000000000
       -3.894849309983   -2.632736211329    0.000000000000
        1.137715342780   -0.064951235236    0.000000000000
    Diagonalized inertia tensor:
       33.003358315891    0.000000000000    0.000000000000
        0.000000000000  431.604643125472    0.000000000000
        0.000000000000    0.000000000000  464.608001441363
    Eigenvectors of inertia tensor: 
        0.765953554441    0.642895911045    0.000000000000
       -0.642895911045    0.765953554441    0.000000000000
        0.000000000000    0.000000000000    1.000000000000
 factor:   60.1997200000000     
   Rotational constants (in cm-1): 
          0.1295709928             0.1394788517             1.8240483112
   Rotational constants (in MHz): 
       3884.4411852812          4181.4713640264         54683.6003335161
  @SYMMETRY-I, Handedness of inertial frame: 1.00000
  @SYMMETRY-I, The symmetry group is 1-fold degenerate.
  @SYMMETRY-I, The molecule belongs to an Abelian group.
   Principal axis orientation for molecule:
       -4.177960122920   -0.612717958850    0.000000000000
       -2.259230019582    0.997750105021    0.000000000000
       -6.087671782511    0.109356846924    0.000000000000
       -2.460432458095    3.024912508403    0.000000000000
       -3.894849309983   -2.632736211329    0.000000000000
        1.137715342780   -0.064951235236    0.000000000000
   Reflection in plane  3 is a valid symmetry operation.
  Symmetry bits:    4   0   0
********************************************************************************
   The full molecular point group is C s .
   The largest Abelian subgroup of the full molecular point group is C s .
   The computational point group is C s .
********************************************************************************
 ----------------------------------------------------------------
 Z-matrix   Atomic            Coordinates (in bohr)
  Symbol    Number           X              Y              Z
 ----------------------------------------------------------------
     C         6        -4.17796012    -0.61271796     0.00000000
     C         6        -2.25923002     0.99775011     0.00000000
     H         1        -6.08767178     0.10935685     0.00000000
     H         1        -2.46043246     3.02491251     0.00000000
     H         1        -3.89484931    -2.63273621     0.00000000
     BR       35         1.13771534    -0.06495124     0.00000000
 ----------------------------------------------------------------
   Interatomic distance matrix (Angstroms) 
 
                 C             C             H             H             H    
                [ 1]        [ 2]        [ 3]        [ 4]        [ 5]
  C    [ 1]     0.00000
  C    [ 2]     1.32560     0.00000
  H    [ 3]     1.08040     2.07975     0.00000
  H    [ 4]     2.12873     1.07800     2.46265     0.00000
  H    [ 5]     1.07939     2.10714     1.85797     3.08862     0.00000
  BR   [ 6]     2.82783     1.88350     3.82462     2.50977     2.98974
 
                 BR   
                [ 6]
  BR   [ 6]     0.00000
  Inertia tensor (amu*bohr**2)
   33.00336    0.00000    0.00000
    0.00000  431.60464    0.00000
    0.00000    0.00000  464.60800
   Rotational constants (in cm-1): 
          1.8240483112             0.1394788517             0.1295709928
   Rotational constants (in MHz): 
      54683.6003335160          4181.4713640264          3884.4411852812
  @GTFLGS-W, Keyword #UNITS not known and is ignored.
  @GTFLGS-W, Keyword #GEOM not known and is ignored.
  @GTFLGS-W, Keyword #COORD not known and is ignored.
  @GTFLGS-W, Keyword #CC_PROG not known and is ignored.
  @GTFLGS-W, Keyword #FROZEN_CORE not known and is ignored.
  @GTFLGS-W, Keyword #CONTRACTION not known and is ignored.
  @GTFLGS-W, Keyword #EXCITE not known and is ignored.
  @GTFLGS-W, Keyword #ESTATE_CONV not known and is ignored.
  @GTFLGS-W, Keyword #ESTATE_SYM not known and is ignored.
  @GTFLGS-W, Keyword #SCF_DAMPING not known and is ignored.
  @GTFLGS-W, Keyword #SYMMETRY not known and is ignored.
  @GTFLGS-W, Keyword #HFSTABILITY not known and is ignored.
  @GTFLGS-W, Keyword #OCCUPATION not known and is ignored.
  @GTFLGS-I, Calculation type set to UHF.
  There are  152 basis functions.
 @GEOPT-W, Archive file not created for single-point calculation.
  @CHECKOUT-I, Total execution time (CPU/WALL):        0.72/       0.92 seconds.
--executable xjoda finished with status     0 in        1.06 seconds (walltime).
 --invoking executable--
/project1/nike/cfour_v2.00beta_May2019xnmol_noLABBASIS/bin/xvmol
Running with 1 threads/proc

********************************************************************************
                   INPUT FROM MOL FILE                                          
********************************************************************************
INTGRL        1    0    1    0    0    0    0    0    0
         *** CFOUR Program System (Release V0.1) *** 
TITLE
    6    1 Z          0.10E-08              0    0
   9999.00      3.00
          6.00000000    1    4    1    1    1    1
C #1  -4.177960122920117  -0.612717958849565   0.000000000000000
   11    5
   13575.3496820000       2.224581435200000E-004  0.000000000000000E+000
  0.000000000000000E+000  0.000000000000000E+000  0.000000000000000E+000
   2035.23336800000       1.723273825200000E-003  0.000000000000000E+000
  0.000000000000000E+000  0.000000000000000E+000  0.000000000000000E+000
   463.225623590000       8.925571531400001E-003  0.000000000000000E+000
  0.000000000000000E+000  0.000000000000000E+000  0.000000000000000E+000
   131.200195980000       3.572798450200000E-002  0.000000000000000E+000
  0.000000000000000E+000  0.000000000000000E+000  0.000000000000000E+000
   42.8530158910000       0.110762599310000       0.000000000000000E+000
  0.000000000000000E+000  0.000000000000000E+000  0.000000000000000E+000
   15.5841857660000       0.242956276260000       0.000000000000000E+000
  0.000000000000000E+000  0.000000000000000E+000  0.000000000000000E+000
   6.20671385080000       0.000000000000000E+000  0.414402634480000     
  0.000000000000000E+000  0.000000000000000E+000  0.000000000000000E+000
   2.57648965270000       0.000000000000000E+000  0.237449686550000     
  0.000000000000000E+000  0.000000000000000E+000  0.000000000000000E+000
  0.576963394190000       0.000000000000000E+000  0.000000000000000E+000
   1.00000000000000       0.000000000000000E+000  0.000000000000000E+000
  0.229728313580000       0.000000000000000E+000  0.000000000000000E+000
  0.000000000000000E+000   1.00000000000000       0.000000000000000E+000
  9.516444002799999E-002  0.000000000000000E+000  0.000000000000000E+000
  0.000000000000000E+000  0.000000000000000E+000   1.00000000000000     
    6    3
   34.6972322440000       5.333365780500000E-003  0.000000000000000E+000
  0.000000000000000E+000
   7.95826228260000       3.586410909200000E-002  0.000000000000000E+000
  0.000000000000000E+000
   2.37808268830000       0.142158733290000       0.000000000000000E+000
  0.000000000000000E+000
  0.814332081830000       0.342704718450000       0.000000000000000E+000
  0.000000000000000E+000
  0.288875472530000       0.000000000000000E+000  0.464458224330000     
  0.000000000000000E+000
  0.100568236710000       0.000000000000000E+000  0.000000000000000E+000
  0.249557898740000     
    2    2
   1.09700000000000        1.00000000000000       0.000000000000000E+000
  0.318000000000000       0.000000000000000E+000   1.00000000000000     
    1    1
  0.761000000000000        1.00000000000000     
          6.00000000    1    4    1    1    1    1
C #2  -2.259230019582023   0.997750105021491   0.000000000000000
   11    5
   13575.3496820000       2.224581435200000E-004  0.000000000000000E+000
  0.000000000000000E+000  0.000000000000000E+000  0.000000000000000E+000
   2035.23336800000       1.723273825200000E-003  0.000000000000000E+000
  0.000000000000000E+000  0.000000000000000E+000  0.000000000000000E+000
   463.225623590000       8.925571531400001E-003  0.000000000000000E+000
  0.000000000000000E+000  0.000000000000000E+000  0.000000000000000E+000
   131.200195980000       3.572798450200000E-002  0.000000000000000E+000
  0.000000000000000E+000  0.000000000000000E+000  0.000000000000000E+000
   42.8530158910000       0.110762599310000       0.000000000000000E+000
  0.000000000000000E+000  0.000000000000000E+000  0.000000000000000E+000
   15.5841857660000       0.242956276260000       0.000000000000000E+000
  0.000000000000000E+000  0.000000000000000E+000  0.000000000000000E+000
   6.20671385080000       0.000000000000000E+000  0.414402634480000     
  0.000000000000000E+000  0.000000000000000E+000  0.000000000000000E+000
   2.57648965270000       0.000000000000000E+000  0.237449686550000     
  0.000000000000000E+000  0.000000000000000E+000  0.000000000000000E+000
  0.576963394190000       0.000000000000000E+000  0.000000000000000E+000
   1.00000000000000       0.000000000000000E+000  0.000000000000000E+000
  0.229728313580000       0.000000000000000E+000  0.000000000000000E+000
  0.000000000000000E+000   1.00000000000000       0.000000000000000E+000
  9.516444002799999E-002  0.000000000000000E+000  0.000000000000000E+000
  0.000000000000000E+000  0.000000000000000E+000   1.00000000000000     
    6    3
   34.6972322440000       5.333365780500000E-003  0.000000000000000E+000
  0.000000000000000E+000
   7.95826228260000       3.586410909200000E-002  0.000000000000000E+000
  0.000000000000000E+000
   2.37808268830000       0.142158733290000       0.000000000000000E+000
  0.000000000000000E+000
  0.814332081830000       0.342704718450000       0.000000000000000E+000
  0.000000000000000E+000
  0.288875472530000       0.000000000000000E+000  0.464458224330000     
  0.000000000000000E+000
  0.100568236710000       0.000000000000000E+000  0.000000000000000E+000
  0.249557898740000     
    2    2
   1.09700000000000        1.00000000000000       0.000000000000000E+000
  0.318000000000000       0.000000000000000E+000   1.00000000000000     
    1    1
  0.761000000000000        1.00000000000000     
          1.00000000    1    3    1    1    1
H #3  -6.087671782511258   0.109356846923860   0.000000000000000
    5    3
   34.0613410000000       6.025197800000000E-003  0.000000000000000E+000
  0.000000000000000E+000
   5.12357460000000       4.502109400000000E-002  0.000000000000000E+000
  0.000000000000000E+000
   1.16466260000000       0.201897260000000       0.000000000000000E+000
  0.000000000000000E+000
  0.327230410000000       0.000000000000000E+000   1.00000000000000     
  0.000000000000000E+000
  0.103072410000000       0.000000000000000E+000  0.000000000000000E+000
   1.00000000000000     
    2    2
   1.40700000000000        1.00000000000000       0.000000000000000E+000
  0.388000000000000       0.000000000000000E+000   1.00000000000000     
    1    1
   1.05700000000000        1.00000000000000     
          1.00000000    1    3    1    1    1
H #4  -2.460432458094675   3.024912508402798   0.000000000000000
    5    3
   34.0613410000000       6.025197800000000E-003  0.000000000000000E+000
  0.000000000000000E+000
   5.12357460000000       4.502109400000000E-002  0.000000000000000E+000
  0.000000000000000E+000
   1.16466260000000       0.201897260000000       0.000000000000000E+000
  0.000000000000000E+000
  0.327230410000000       0.000000000000000E+000   1.00000000000000     
  0.000000000000000E+000
  0.103072410000000       0.000000000000000E+000  0.000000000000000E+000
   1.00000000000000     
    2    2
   1.40700000000000        1.00000000000000       0.000000000000000E+000
  0.388000000000000       0.000000000000000E+000   1.00000000000000     
    1    1
   1.05700000000000        1.00000000000000     
          1.00000000    1    3    1    1    1
H #5  -3.894849309983207  -2.632736211329112   0.000000000000000
    5    3
   34.0613410000000       6.025197800000000E-003  0.000000000000000E+000
  0.000000000000000E+000
   5.12357460000000       4.502109400000000E-002  0.000000000000000E+000
  0.000000000000000E+000
   1.16466260000000       0.201897260000000       0.000000000000000E+000
  0.000000000000000E+000
  0.327230410000000       0.000000000000000E+000   1.00000000000000     
  0.000000000000000E+000
  0.103072410000000       0.000000000000000E+000  0.000000000000000E+000
   1.00000000000000     
    2    2
   1.40700000000000        1.00000000000000       0.000000000000000E+000
  0.388000000000000       0.000000000000000E+000   1.00000000000000     
    1    1
   1.05700000000000        1.00000000000000     
         35.00000000    1    4    1    1    1    1
BR#6   1.137715342780162  -0.064951235236017   0.000000000000000
   17    6
   565073.252560000       2.366031469000000E-004  0.000000000000000E+000
  0.000000000000000E+000  0.000000000000000E+000  0.000000000000000E+000
  0.000000000000000E+000
   84701.7231790000       1.834833250800000E-003  0.000000000000000E+000
  0.000000000000000E+000  0.000000000000000E+000  0.000000000000000E+000
  0.000000000000000E+000
   19276.2719000000       9.546584986000001E-003  0.000000000000000E+000
  0.000000000000000E+000  0.000000000000000E+000  0.000000000000000E+000
  0.000000000000000E+000
   5456.42845760000       3.887714215300000E-002  0.000000000000000E+000
  0.000000000000000E+000  0.000000000000000E+000  0.000000000000000E+000
  0.000000000000000E+000
   1776.95035000000       0.127183142310000       0.000000000000000E+000
  0.000000000000000E+000  0.000000000000000E+000  0.000000000000000E+000
  0.000000000000000E+000
   639.193982760000       0.304376621910000       0.000000000000000E+000
  0.000000000000000E+000  0.000000000000000E+000  0.000000000000000E+000
  0.000000000000000E+000
   248.788239610000       0.444909404970000       0.000000000000000E+000
  0.000000000000000E+000  0.000000000000000E+000  0.000000000000000E+000
  0.000000000000000E+000
   98.6783054940000       0.243816430580000       0.000000000000000E+000
  0.000000000000000E+000  0.000000000000000E+000  0.000000000000000E+000
  0.000000000000000E+000
   606.078245680000       0.000000000000000E+000 -2.652715870900000E-002
  0.000000000000000E+000  0.000000000000000E+000  0.000000000000000E+000
  0.000000000000000E+000
   188.455984840000       0.000000000000000E+000 -0.124845848090000     
  0.000000000000000E+000  0.000000000000000E+000  0.000000000000000E+000
  0.000000000000000E+000
   31.4971445060000       0.000000000000000E+000  0.564686835590000     
  0.000000000000000E+000  0.000000000000000E+000  0.000000000000000E+000
  0.000000000000000E+000
   13.7360083200000       0.000000000000000E+000  0.555552685640000     
  0.000000000000000E+000  0.000000000000000E+000  0.000000000000000E+000
  0.000000000000000E+000
   21.2032127660000       0.000000000000000E+000  0.000000000000000E+000
 -0.249409204930000       0.000000000000000E+000  0.000000000000000E+000
  0.000000000000000E+000
   3.76164201780000       0.000000000000000E+000  0.000000000000000E+000
  0.712131197430000       0.000000000000000E+000  0.000000000000000E+000
  0.000000000000000E+000
   1.77359339620000       0.000000000000000E+000  0.000000000000000E+000
  0.000000000000000E+000   1.00000000000000       0.000000000000000E+000
  0.000000000000000E+000
  0.451974136640000       0.000000000000000E+000  0.000000000000000E+000
  0.000000000000000E+000  0.000000000000000E+000   1.00000000000000     
  0.000000000000000E+000
  0.166133770990000       0.000000000000000E+000  0.000000000000000E+000
  0.000000000000000E+000  0.000000000000000E+000  0.000000000000000E+000
   1.00000000000000     
   13    5
   3019.69557230000       2.497104979800000E-003  0.000000000000000E+000
  0.000000000000000E+000  0.000000000000000E+000  0.000000000000000E+000
   715.354811260000       2.041926759600000E-002  0.000000000000000E+000
  0.000000000000000E+000  0.000000000000000E+000  0.000000000000000E+000
   229.983287510000       9.689714830899999E-002  0.000000000000000E+000
  0.000000000000000E+000  0.000000000000000E+000  0.000000000000000E+000
   86.1678446150000       0.280539012520000       0.000000000000000E+000
  0.000000000000000E+000  0.000000000000000E+000  0.000000000000000E+000
   34.6678708020000       0.446063904730000       0.000000000000000E+000
  0.000000000000000E+000  0.000000000000000E+000  0.000000000000000E+000
   14.1138703070000       0.244100739230000       0.000000000000000E+000
  0.000000000000000E+000  0.000000000000000E+000  0.000000000000000E+000
   57.0856530820000       0.000000000000000E+000 -2.185595071000000E-002
  0.000000000000000E+000  0.000000000000000E+000  0.000000000000000E+000
   8.81938458400000       0.000000000000000E+000  0.327070753200000     
  0.000000000000000E+000  0.000000000000000E+000  0.000000000000000E+000
   3.93403028720000       0.000000000000000E+000  0.578552295200000     
  0.000000000000000E+000  0.000000000000000E+000  0.000000000000000E+000
   1.79988303840000       0.000000000000000E+000  0.335709876980000     
  0.000000000000000E+000  0.000000000000000E+000  0.000000000000000E+000
  0.668994105120000       0.000000000000000E+000  0.000000000000000E+000
   1.00000000000000       0.000000000000000E+000  0.000000000000000E+000
  0.271362382310000       0.000000000000000E+000  0.000000000000000E+000
  0.000000000000000E+000   1.00000000000000       0.000000000000000E+000
  0.100837902430000       0.000000000000000E+000  0.000000000000000E+000
  0.000000000000000E+000  0.000000000000000E+000   1.00000000000000     
    8    4
   168.853702570000       8.966398198799999E-003  0.000000000000000E+000
  0.000000000000000E+000  0.000000000000000E+000
   49.9779499190000       6.206205931600000E-002  0.000000000000000E+000
  0.000000000000000E+000  0.000000000000000E+000
   18.2749133380000       0.214747323840000       0.000000000000000E+000
  0.000000000000000E+000  0.000000000000000E+000
   7.24556946310000       0.403353367460000       0.000000000000000E+000
  0.000000000000000E+000  0.000000000000000E+000
   2.85623150250000       0.422088130800000       0.000000000000000E+000
  0.000000000000000E+000  0.000000000000000E+000
   1.04596211440000       0.000000000000000E+000  0.178748132670000     
  0.000000000000000E+000  0.000000000000000E+000
  0.568656550000000       0.000000000000000E+000  0.000000000000000E+000
   1.00000000000000       0.000000000000000E+000
  0.220314900000000       0.000000000000000E+000  0.000000000000000E+000
  0.000000000000000E+000   1.00000000000000     
    1    1
  0.570833120000000        1.00000000000000     
FINISH
                                                                                
********************************************************************************

ONE- AND TWO-ELECTRON INTEGRALS OVER SYMMETRY-ADAPTED AOS ARE CALCULATED.


    BASIS FUNCTION NOT NORMALIZED:
    CENTER (AS ORDERED IN MOL FILE): ?
    ANGULAR MOMENTUM TYPE:           S
    OFFSET WITHIN ANGULAR MOMENTUM:  1
    <CHI|CHI>:                       0.1345548646

    BASIS FUNCTION NOT NORMALIZED:
    CENTER (AS ORDERED IN MOL FILE): ?
    ANGULAR MOMENTUM TYPE:           S
    OFFSET WITHIN ANGULAR MOMENTUM:  2
    <CHI|CHI>:                       0.3991162928

    BASIS FUNCTION NOT NORMALIZED:
    CENTER (AS ORDERED IN MOL FILE): ?
    ANGULAR MOMENTUM TYPE:           P
    OFFSET WITHIN ANGULAR MOMENTUM:  1
    <CHI|CHI>:                       0.2216950870

    BASIS FUNCTION NOT NORMALIZED:
    CENTER (AS ORDERED IN MOL FILE): ?
    ANGULAR MOMENTUM TYPE:           P
    OFFSET WITHIN ANGULAR MOMENTUM:  2
    <CHI|CHI>:                       0.2157214421

    BASIS FUNCTION NOT NORMALIZED:
    CENTER (AS ORDERED IN MOL FILE): ?
    ANGULAR MOMENTUM TYPE:           P
    OFFSET WITHIN ANGULAR MOMENTUM:  3
    <CHI|CHI>:                       0.0622791448

    BASIS FUNCTION NOT NORMALIZED:
    CENTER (AS ORDERED IN MOL FILE): ?
    ANGULAR MOMENTUM TYPE:           S
    OFFSET WITHIN ANGULAR MOMENTUM:  1
    <CHI|CHI>:                       0.1345548646

    BASIS FUNCTION NOT NORMALIZED:
    CENTER (AS ORDERED IN MOL FILE): ?
    ANGULAR MOMENTUM TYPE:           S
    OFFSET WITHIN ANGULAR MOMENTUM:  2
    <CHI|CHI>:                       0.3991162928

    BASIS FUNCTION NOT NORMALIZED:
    CENTER (AS ORDERED IN MOL FILE): ?
    ANGULAR MOMENTUM TYPE:           P
    OFFSET WITHIN ANGULAR MOMENTUM:  1
    <CHI|CHI>:                       0.2216950870

    BASIS FUNCTION NOT NORMALIZED:
    CENTER (AS ORDERED IN MOL FILE): ?
    ANGULAR MOMENTUM TYPE:           P
    OFFSET WITHIN ANGULAR MOMENTUM:  2
    <CHI|CHI>:                       0.2157214421

    BASIS FUNCTION NOT NORMALIZED:
    CENTER (AS ORDERED IN MOL FILE): ?
    ANGULAR MOMENTUM TYPE:           P
    OFFSET WITHIN ANGULAR MOMENTUM:  3
    <CHI|CHI>:                       0.0622791448

    BASIS FUNCTION NOT NORMALIZED:
    CENTER (AS ORDERED IN MOL FILE): ?
    ANGULAR MOMENTUM TYPE:           S
    OFFSET WITHIN ANGULAR MOMENTUM:  1
    <CHI|CHI>:                       0.0560960211

    BASIS FUNCTION NOT NORMALIZED:
    CENTER (AS ORDERED IN MOL FILE): ?
    ANGULAR MOMENTUM TYPE:           S
    OFFSET WITHIN ANGULAR MOMENTUM:  1
    <CHI|CHI>:                       0.0560960211

    BASIS FUNCTION NOT NORMALIZED:
    CENTER (AS ORDERED IN MOL FILE): ?
    ANGULAR MOMENTUM TYPE:           S
    OFFSET WITHIN ANGULAR MOMENTUM:  1
    <CHI|CHI>:                       0.0560960211

    BASIS FUNCTION NOT NORMALIZED:
    CENTER (AS ORDERED IN MOL FILE): ?
    ANGULAR MOMENTUM TYPE:           S
    OFFSET WITHIN ANGULAR MOMENTUM:  1
    <CHI|CHI>:                       1.0454795098

    BASIS FUNCTION NOT NORMALIZED:
    CENTER (AS ORDERED IN MOL FILE): ?
    ANGULAR MOMENTUM TYPE:           S
    OFFSET WITHIN ANGULAR MOMENTUM:  2
    <CHI|CHI>:                       1.0569176006

    BASIS FUNCTION NOT NORMALIZED:
    CENTER (AS ORDERED IN MOL FILE): ?
    ANGULAR MOMENTUM TYPE:           S
    OFFSET WITHIN ANGULAR MOMENTUM:  3
    <CHI|CHI>:                       0.3543606425

    BASIS FUNCTION NOT NORMALIZED:
    CENTER (AS ORDERED IN MOL FILE): ?
    ANGULAR MOMENTUM TYPE:           P
    OFFSET WITHIN ANGULAR MOMENTUM:  1
    <CHI|CHI>:                       0.8566885477

    BASIS FUNCTION NOT NORMALIZED:
    CENTER (AS ORDERED IN MOL FILE): ?
    ANGULAR MOMENTUM TYPE:           P
    OFFSET WITHIN ANGULAR MOMENTUM:  2
    <CHI|CHI>:                       1.2839749870

    BASIS FUNCTION NOT NORMALIZED:
    CENTER (AS ORDERED IN MOL FILE): ?
    ANGULAR MOMENTUM TYPE:           D
    OFFSET WITHIN ANGULAR MOMENTUM:  1
    <CHI|CHI>:                       0.8298436536

    BASIS FUNCTION NOT NORMALIZED:
    CENTER (AS ORDERED IN MOL FILE): ?
    ANGULAR MOMENTUM TYPE:           D
    OFFSET WITHIN ANGULAR MOMENTUM:  2
    <CHI|CHI>:                       0.0319508949
CARTESIAN GAUSSIANS ARE USED.

6 TYPES OF ATOMS
1 SYMMETRY OPERATIONS

REFLECTION IN THE XY-PLANE

INTEGRALS LESS THAN 1e-14 ARE NEGLECTED.

ATOMIC TYPE NUMBER 1:
---------------------

    NUCLEAR CHARGE:                       6
    NUMBER OF SYMMETRY INDEPENDENT ATOMS: 1
    HIGHEST ORBITAL TYPE:                 F

    1 GROUPS OF CGTOS OF S TYPE
    1 GROUPS OF CGTOS OF P TYPE
    1 GROUPS OF CGTOS OF D TYPE
    1 GROUPS OF CGTOS OF F TYPE

    NUCLEAR COORDINATES (IN A.U.) ARE:

    C #1  -4.177960122920117  -0.612717958849565   0.000000000000000

ATOMIC TYPE NUMBER 2:
---------------------

    NUCLEAR CHARGE:                       6
    NUMBER OF SYMMETRY INDEPENDENT ATOMS: 1
    HIGHEST ORBITAL TYPE:                 F

    1 GROUPS OF CGTOS OF S TYPE
    1 GROUPS OF CGTOS OF P TYPE
    1 GROUPS OF CGTOS OF D TYPE
    1 GROUPS OF CGTOS OF F TYPE

    NUCLEAR COORDINATES (IN A.U.) ARE:

    C #2  -2.259230019582023   0.997750105021491   0.000000000000000

ATOMIC TYPE NUMBER 3:
---------------------

    NUCLEAR CHARGE:                       1
    NUMBER OF SYMMETRY INDEPENDENT ATOMS: 1
    HIGHEST ORBITAL TYPE:                 D

    1 GROUPS OF CGTOS OF S TYPE
    1 GROUPS OF CGTOS OF P TYPE
    1 GROUPS OF CGTOS OF D TYPE

    NUCLEAR COORDINATES (IN A.U.) ARE:

    H #3  -6.087671782511258   0.109356846923860   0.000000000000000

ATOMIC TYPE NUMBER 4:
---------------------

    NUCLEAR CHARGE:                       1
    NUMBER OF SYMMETRY INDEPENDENT ATOMS: 1
    HIGHEST ORBITAL TYPE:                 D

    1 GROUPS OF CGTOS OF S TYPE
    1 GROUPS OF CGTOS OF P TYPE
    1 GROUPS OF CGTOS OF D TYPE

    NUCLEAR COORDINATES (IN A.U.) ARE:

    H #4  -2.460432458094675   3.024912508402798   0.000000000000000

ATOMIC TYPE NUMBER 5:
---------------------

    NUCLEAR CHARGE:                       1
    NUMBER OF SYMMETRY INDEPENDENT ATOMS: 1
    HIGHEST ORBITAL TYPE:                 D

    1 GROUPS OF CGTOS OF S TYPE
    1 GROUPS OF CGTOS OF P TYPE
    1 GROUPS OF CGTOS OF D TYPE

    NUCLEAR COORDINATES (IN A.U.) ARE:

    H #5  -3.894849309983207  -2.632736211329112   0.000000000000000

ATOMIC TYPE NUMBER 6:
---------------------

    NUCLEAR CHARGE:                       35
    NUMBER OF SYMMETRY INDEPENDENT ATOMS: 1
    HIGHEST ORBITAL TYPE:                 F

    1 GROUPS OF CGTOS OF S TYPE
    1 GROUPS OF CGTOS OF P TYPE
    1 GROUPS OF CGTOS OF D TYPE
    1 GROUPS OF CGTOS OF F TYPE

    NUCLEAR COORDINATES (IN A.U.) ARE:

    BR#6   1.137715342780162  -0.064951235236017   0.000000000000000

INTERNUCLEAR DISTANCES (A):

    FOR ATOM C #1 (COORDINATES:  -4.17796  -0.61272   0.00000)

    C #2 1 DISTANCE IS   1.32560
    H #3 1 DISTANCE IS   1.08040
    H #4 1 DISTANCE IS   2.12873
    H #5 1 DISTANCE IS   1.07940
    BR#6 1 DISTANCE IS   2.82783

    FOR ATOM C #2 (COORDINATES:  -2.25923   0.99775   0.00000)

    H #3 1 DISTANCE IS   2.07975
    H #4 1 DISTANCE IS   1.07800
    H #5 1 DISTANCE IS   2.10714
    BR#6 1 DISTANCE IS   1.88350

    FOR ATOM H #3 (COORDINATES:  -6.08767   0.10936   0.00000)

    H #4 1 DISTANCE IS   2.46265
    H #5 1 DISTANCE IS   1.85797
    BR#6 1 DISTANCE IS   3.82462

    FOR ATOM H #4 (COORDINATES:  -2.46043   3.02491   0.00000)

    H #5 1 DISTANCE IS   3.08862
    BR#6 1 DISTANCE IS   2.50977

    FOR ATOM H #5 (COORDINATES:  -3.89485  -2.63274   0.00000)

    BR#6 1 DISTANCE IS   2.98974

    FOR ATOM BR#6 (COORDINATES:   1.13772  -0.06495   0.00000)


GROUP MULTIPLICATION TABLE:

    1 2
    2 1

GAUSSIAN BASIS INFORMATION:

ATOM                EXPONENT       COEFFICIENTS

C #1  1  S   
                  1   13575.349682   0.5435906   0.0000000   0.0000000   0.0000000   0.0000000
                  2    2035.233368   1.0145544   0.0000000   0.0000000   0.0000000   0.0000000
                  3     463.225624   1.7315732   0.0000000   0.0000000   0.0000000   0.0000000
                  4     131.200196   2.6910376   0.0000000   0.0000000   0.0000000   0.0000000
                  5      42.853016   3.6044547   0.0000000   0.0000000   0.0000000   0.0000000
                  6      15.584186   3.7025557   0.0000000   0.0000000   0.0000000   0.0000000
                  7       6.206714   0.0000000   1.8383541   0.0000000   0.0000000   0.0000000
                  8       2.576490   0.0000000   0.5447576   0.0000000   0.0000000   0.0000000
                  9       0.576963   0.0000000   0.0000000   0.4718145   0.0000000   0.0000000
                 10       0.229728   0.0000000   0.0000000   0.0000000   0.2364945   0.0000000
                 11       0.095164   0.0000000   0.0000000   0.0000000   0.0000000   0.1221142

C #1  1  X   
                 12      34.697232   1.3596651   0.0000000   0.0000000
                 13       7.958262   1.4512589   0.0000000   0.0000000
                 14       2.378083   1.2709231   0.0000000   0.0000000
                 15       0.814332   0.8025721   0.0000000   0.0000000
                 16       0.288875   0.0000000   0.3018759   0.0000000
                 17       0.100568   0.0000000   0.0000000   0.0807265

C #1  1  Y   
                 18      34.697232   1.3596651   0.0000000   0.0000000
                 19       7.958262   1.4512589   0.0000000   0.0000000
                 20       2.378083   1.2709231   0.0000000   0.0000000
                 21       0.814332   0.8025721   0.0000000   0.0000000
                 22       0.288875   0.0000000   0.3018759   0.0000000
                 23       0.100568   0.0000000   0.0000000   0.0807265

C #1  1  Z   
                 24      34.697232   1.3596651   0.0000000   0.0000000
                 25       7.958262   1.4512589   0.0000000   0.0000000
                 26       2.378083   1.2709231   0.0000000   0.0000000
                 27       0.814332   0.8025721   0.0000000   0.0000000
                 28       0.288875   0.0000000   0.3018759   0.0000000
                 29       0.100568   0.0000000   0.0000000   0.0807265

C #1  1  XX  
                 30       1.097000   3.3522136   0.0000000
                 31       0.318000   0.0000000   0.3838995

C #1  1  XY  
                 32       1.097000   3.3522136   0.0000000
                 33       0.318000   0.0000000   0.3838995

C #1  1  XZ  
                 34       1.097000   3.3522136   0.0000000
                 35       0.318000   0.0000000   0.3838995

C #1  1  YY  
                 36       1.097000   3.3522136   0.0000000
                 37       0.318000   0.0000000   0.3838995

C #1  1  YZ  
                 38       1.097000   3.3522136   0.0000000
                 39       0.318000   0.0000000   0.3838995

C #1  1  ZZ  
                 40       1.097000   3.3522136   0.0000000
                 41       0.318000   0.0000000   0.3838995

C #1  1  F300
                 42       0.761000   3.0840084

C #1  1  F210
                 43       0.761000   3.0840084

C #1  1  F201
                 44       0.761000   3.0840084

C #1  1  F120
                 45       0.761000   3.0840084

C #1  1  F111
                 46       0.761000   3.0840084

C #1  1  F102
                 47       0.761000   3.0840084

C #1  1  F030
                 48       0.761000   3.0840084

C #1  1  F021
                 49       0.761000   3.0840084

C #1  1  F012
                 50       0.761000   3.0840084

C #1  1  F003
                 51       0.761000   3.0840084

C #2  1  S   
                 52   13575.349682   0.5435906   0.0000000   0.0000000   0.0000000   0.0000000
                 53    2035.233368   1.0145544   0.0000000   0.0000000   0.0000000   0.0000000
                 54     463.225624   1.7315732   0.0000000   0.0000000   0.0000000   0.0000000
                 55     131.200196   2.6910376   0.0000000   0.0000000   0.0000000   0.0000000
                 56      42.853016   3.6044547   0.0000000   0.0000000   0.0000000   0.0000000
                 57      15.584186   3.7025557   0.0000000   0.0000000   0.0000000   0.0000000
                 58       6.206714   0.0000000   1.8383541   0.0000000   0.0000000   0.0000000
                 59       2.576490   0.0000000   0.5447576   0.0000000   0.0000000   0.0000000
                 60       0.576963   0.0000000   0.0000000   0.4718145   0.0000000   0.0000000
                 61       0.229728   0.0000000   0.0000000   0.0000000   0.2364945   0.0000000
                 62       0.095164   0.0000000   0.0000000   0.0000000   0.0000000   0.1221142

C #2  1  X   
                 63      34.697232   1.3596651   0.0000000   0.0000000
                 64       7.958262   1.4512589   0.0000000   0.0000000
                 65       2.378083   1.2709231   0.0000000   0.0000000
                 66       0.814332   0.8025721   0.0000000   0.0000000
                 67       0.288875   0.0000000   0.3018759   0.0000000
                 68       0.100568   0.0000000   0.0000000   0.0807265

C #2  1  Y   
                 69      34.697232   1.3596651   0.0000000   0.0000000
                 70       7.958262   1.4512589   0.0000000   0.0000000
                 71       2.378083   1.2709231   0.0000000   0.0000000
                 72       0.814332   0.8025721   0.0000000   0.0000000
                 73       0.288875   0.0000000   0.3018759   0.0000000
                 74       0.100568   0.0000000   0.0000000   0.0807265

C #2  1  Z   
                 75      34.697232   1.3596651   0.0000000   0.0000000
                 76       7.958262   1.4512589   0.0000000   0.0000000
                 77       2.378083   1.2709231   0.0000000   0.0000000
                 78       0.814332   0.8025721   0.0000000   0.0000000
                 79       0.288875   0.0000000   0.3018759   0.0000000
                 80       0.100568   0.0000000   0.0000000   0.0807265

C #2  1  XX  
                 81       1.097000   3.3522136   0.0000000
                 82       0.318000   0.0000000   0.3838995

C #2  1  XY  
                 83       1.097000   3.3522136   0.0000000
                 84       0.318000   0.0000000   0.3838995

C #2  1  XZ  
                 85       1.097000   3.3522136   0.0000000
                 86       0.318000   0.0000000   0.3838995

C #2  1  YY  
                 87       1.097000   3.3522136   0.0000000
                 88       0.318000   0.0000000   0.3838995

C #2  1  YZ  
                 89       1.097000   3.3522136   0.0000000
                 90       0.318000   0.0000000   0.3838995

C #2  1  ZZ  
                 91       1.097000   3.3522136   0.0000000
                 92       0.318000   0.0000000   0.3838995

C #2  1  F300
                 93       0.761000   3.0840084

C #2  1  F210
                 94       0.761000   3.0840084

C #2  1  F201
                 95       0.761000   3.0840084

C #2  1  F120
                 96       0.761000   3.0840084

C #2  1  F111
                 97       0.761000   3.0840084

C #2  1  F102
                 98       0.761000   3.0840084

C #2  1  F030
                 99       0.761000   3.0840084

C #2  1  F021
                100       0.761000   3.0840084

C #2  1  F012
                101       0.761000   3.0840084

C #2  1  F003
                102       0.761000   3.0840084

H #3  1  S   
                103      34.061341   0.2556299   0.0000000   0.0000000
                104       5.123575   0.4613600   0.0000000   0.0000000
                105       1.164663   0.6811215   0.0000000   0.0000000
                106       0.327230   0.0000000   0.3083545   0.0000000
                107       0.103072   0.0000000   0.0000000   0.1296483

H #3  1  X   
                108       1.407000   2.1842770   0.0000000
                109       0.388000   0.0000000   0.4364955

H #3  1  Y   
                110       1.407000   2.1842770   0.0000000
                111       0.388000   0.0000000   0.4364955

H #3  1  Z   
                112       1.407000   2.1842770   0.0000000
                113       0.388000   0.0000000   0.4364955

H #3  1  XX  
                114       1.057000   3.1412414

H #3  1  XY  
                115       1.057000   3.1412414

H #3  1  XZ  
                116       1.057000   3.1412414

H #3  1  YY  
                117       1.057000   3.1412414

H #3  1  YZ  
                118       1.057000   3.1412414

H #3  1  ZZ  
                119       1.057000   3.1412414

H #4  1  S   
                120      34.061341   0.2556299   0.0000000   0.0000000
                121       5.123575   0.4613600   0.0000000   0.0000000
                122       1.164663   0.6811215   0.0000000   0.0000000
                123       0.327230   0.0000000   0.3083545   0.0000000
                124       0.103072   0.0000000   0.0000000   0.1296483

H #4  1  X   
                125       1.407000   2.1842770   0.0000000
                126       0.388000   0.0000000   0.4364955

H #4  1  Y   
                127       1.407000   2.1842770   0.0000000
                128       0.388000   0.0000000   0.4364955

H #4  1  Z   
                129       1.407000   2.1842770   0.0000000
                130       0.388000   0.0000000   0.4364955

H #4  1  XX  
                131       1.057000   3.1412414

H #4  1  XY  
                132       1.057000   3.1412414

H #4  1  XZ  
                133       1.057000   3.1412414

H #4  1  YY  
                134       1.057000   3.1412414

H #4  1  YZ  
                135       1.057000   3.1412414

H #4  1  ZZ  
                136       1.057000   3.1412414

H #5  1  S   
                137      34.061341   0.2556299   0.0000000   0.0000000
                138       5.123575   0.4613600   0.0000000   0.0000000
                139       1.164663   0.6811215   0.0000000   0.0000000
                140       0.327230   0.0000000   0.3083545   0.0000000
                141       0.103072   0.0000000   0.0000000   0.1296483

H #5  1  X   
                142       1.407000   2.1842770   0.0000000
                143       0.388000   0.0000000   0.4364955

H #5  1  Y   
                144       1.407000   2.1842770   0.0000000
                145       0.388000   0.0000000   0.4364955

H #5  1  Z   
                146       1.407000   2.1842770   0.0000000
                147       0.388000   0.0000000   0.4364955

H #5  1  XX  
                148       1.057000   3.1412414

H #5  1  XY  
                149       1.057000   3.1412414

H #5  1  XZ  
                150       1.057000   3.1412414

H #5  1  YY  
                151       1.057000   3.1412414

H #5  1  YZ  
                152       1.057000   3.1412414

H #5  1  ZZ  
                153       1.057000   3.1412414

BR#6  1  S   
                154  565073.252560   3.3990019   0.0000000   0.0000000   0.0000000   0.0000000   0.0000000
                155   84701.723179   6.3499180   0.0000000   0.0000000   0.0000000   0.0000000   0.0000000
                156   19276.271900  10.8859831   0.0000000   0.0000000   0.0000000   0.0000000   0.0000000
                157    5456.428458  17.2039436   0.0000000   0.0000000   0.0000000   0.0000000   0.0000000
                158    1776.950350  24.2626565   0.0000000   0.0000000   0.0000000   0.0000000   0.0000000
                159     639.193983  26.9704461   0.0000000   0.0000000   0.0000000   0.0000000   0.0000000
                160     248.788240  19.4265778   0.0000000   0.0000000   0.0000000   0.0000000   0.0000000
                161      98.678305   5.3208567   0.0000000   0.0000000   0.0000000   0.0000000   0.0000000
                162     606.078246   0.0000000  -2.2463467   0.0000000   0.0000000   0.0000000   0.0000000
                163     188.455985   0.0000000  -4.4022133   0.0000000   0.0000000   0.0000000   0.0000000
                164      31.497145   0.0000000   5.2047584   0.0000000   0.0000000   0.0000000   0.0000000
                165      13.736008   0.0000000   2.7479586   0.0000000   0.0000000   0.0000000   0.0000000
                166      21.203213   0.0000000   0.0000000  -2.9505371   0.0000000   0.0000000   0.0000000
                167       3.761642   0.0000000   0.0000000   2.3029285   0.0000000   0.0000000   0.0000000
                168       1.773593   0.0000000   0.0000000   0.0000000   1.0953443   0.0000000   0.0000000
                169       0.451974   0.0000000   0.0000000   0.0000000   0.0000000   0.3928668   0.0000000
                170       0.166134   0.0000000   0.0000000   0.0000000   0.0000000   0.0000000   0.1854614

BR#6  1  X   
                171    3019.695572  86.0833899   0.0000000   0.0000000   0.0000000   0.0000000
                172     715.354811 116.3377462   0.0000000   0.0000000   0.0000000   0.0000000
                173     229.983288 133.6472264   0.0000000   0.0000000   0.0000000   0.0000000
                174      86.167845 113.4235950   0.0000000   0.0000000   0.0000000   0.0000000
                175      34.667871  57.7875990   0.0000000   0.0000000   0.0000000   0.0000000
                176      14.113870  10.2838410   0.0000000   0.0000000   0.0000000   0.0000000
                177      57.085653   0.0000000  -4.3141002   0.0000000   0.0000000   0.0000000
                178       8.819385   0.0000000   6.2531863   0.0000000   0.0000000   0.0000000
                179       3.934030   0.0000000   4.0322881   0.0000000   0.0000000   0.0000000
                180       1.799883   0.0000000   0.8804025   0.0000000   0.0000000   0.0000000
                181       0.668994   0.0000000   0.0000000   0.8624183   0.0000000   0.0000000
                182       0.271362   0.0000000   0.0000000   0.0000000   0.2791754   0.0000000
                183       0.100838   0.0000000   0.0000000   0.0000000   0.0000000   0.0809972

BR#6  1  Y   
                184    3019.695572  86.0833899   0.0000000   0.0000000   0.0000000   0.0000000
                185     715.354811 116.3377462   0.0000000   0.0000000   0.0000000   0.0000000
                186     229.983288 133.6472264   0.0000000   0.0000000   0.0000000   0.0000000
                187      86.167845 113.4235950   0.0000000   0.0000000   0.0000000   0.0000000
                188      34.667871  57.7875990   0.0000000   0.0000000   0.0000000   0.0000000
                189      14.113870  10.2838410   0.0000000   0.0000000   0.0000000   0.0000000
                190      57.085653   0.0000000  -4.3141002   0.0000000   0.0000000   0.0000000
                191       8.819385   0.0000000   6.2531863   0.0000000   0.0000000   0.0000000
                192       3.934030   0.0000000   4.0322881   0.0000000   0.0000000   0.0000000
                193       1.799883   0.0000000   0.8804025   0.0000000   0.0000000   0.0000000
                194       0.668994   0.0000000   0.0000000   0.8624183   0.0000000   0.0000000
                195       0.271362   0.0000000   0.0000000   0.0000000   0.2791754   0.0000000
                196       0.100838   0.0000000   0.0000000   0.0000000   0.0000000   0.0809972

BR#6  1  Z   
                197    3019.695572  86.0833899   0.0000000   0.0000000   0.0000000   0.0000000
                198     715.354811 116.3377462   0.0000000   0.0000000   0.0000000   0.0000000
                199     229.983288 133.6472264   0.0000000   0.0000000   0.0000000   0.0000000
                200      86.167845 113.4235950   0.0000000   0.0000000   0.0000000   0.0000000
                201      34.667871  57.7875990   0.0000000   0.0000000   0.0000000   0.0000000
                202      14.113870  10.2838410   0.0000000   0.0000000   0.0000000   0.0000000
                203      57.085653   0.0000000  -4.3141002   0.0000000   0.0000000   0.0000000
                204       8.819385   0.0000000   6.2531863   0.0000000   0.0000000   0.0000000
                205       3.934030   0.0000000   4.0322881   0.0000000   0.0000000   0.0000000
                206       1.799883   0.0000000   0.8804025   0.0000000   0.0000000   0.0000000
                207       0.668994   0.0000000   0.0000000   0.8624183   0.0000000   0.0000000
                208       0.271362   0.0000000   0.0000000   0.0000000   0.2791754   0.0000000
                209       0.100838   0.0000000   0.0000000   0.0000000   0.0000000   0.0809972

BR#6  1  XX  
                210     168.853703 221.9389343   0.0000000   0.0000000   0.0000000
                211      49.977950 182.4569424   0.0000000   0.0000000   0.0000000
                212      18.274913 108.5541738   0.0000000   0.0000000   0.0000000
                213       7.245569  40.3909948   0.0000000   0.0000000   0.0000000
                214       2.856232   8.2892177   0.0000000   0.0000000   0.0000000
                215       1.045962   0.0000000   3.0840613   0.0000000   0.0000000
                216       0.568657   0.0000000   0.0000000   1.0615921   0.0000000
                217       0.220315   0.0000000   0.0000000   0.0000000   0.2019746

BR#6  1  XY  
                218     168.853703 221.9389343   0.0000000   0.0000000   0.0000000
                219      49.977950 182.4569424   0.0000000   0.0000000   0.0000000
                220      18.274913 108.5541738   0.0000000   0.0000000   0.0000000
                221       7.245569  40.3909948   0.0000000   0.0000000   0.0000000
                222       2.856232   8.2892177   0.0000000   0.0000000   0.0000000
                223       1.045962   0.0000000   3.0840613   0.0000000   0.0000000
                224       0.568657   0.0000000   0.0000000   1.0615921   0.0000000
                225       0.220315   0.0000000   0.0000000   0.0000000   0.2019746

BR#6  1  XZ  
                226     168.853703 221.9389343   0.0000000   0.0000000   0.0000000
                227      49.977950 182.4569424   0.0000000   0.0000000   0.0000000
                228      18.274913 108.5541738   0.0000000   0.0000000   0.0000000
                229       7.245569  40.3909948   0.0000000   0.0000000   0.0000000
                230       2.856232   8.2892177   0.0000000   0.0000000   0.0000000
                231       1.045962   0.0000000   3.0840613   0.0000000   0.0000000
                232       0.568657   0.0000000   0.0000000   1.0615921   0.0000000
                233       0.220315   0.0000000   0.0000000   0.0000000   0.2019746

BR#6  1  YY  
                234     168.853703 221.9389343   0.0000000   0.0000000   0.0000000
                235      49.977950 182.4569424   0.0000000   0.0000000   0.0000000
                236      18.274913 108.5541738   0.0000000   0.0000000   0.0000000
                237       7.245569  40.3909948   0.0000000   0.0000000   0.0000000
                238       2.856232   8.2892177   0.0000000   0.0000000   0.0000000
                239       1.045962   0.0000000   3.0840613   0.0000000   0.0000000
                240       0.568657   0.0000000   0.0000000   1.0615921   0.0000000
                241       0.220315   0.0000000   0.0000000   0.0000000   0.2019746

BR#6  1  YZ  
                242     168.853703 221.9389343   0.0000000   0.0000000   0.0000000
                243      49.977950 182.4569424   0.0000000   0.0000000   0.0000000
                244      18.274913 108.5541738   0.0000000   0.0000000   0.0000000
                245       7.245569  40.3909948   0.0000000   0.0000000   0.0000000
                246       2.856232   8.2892177   0.0000000   0.0000000   0.0000000
                247       1.045962   0.0000000   3.0840613   0.0000000   0.0000000
                248       0.568657   0.0000000   0.0000000   1.0615921   0.0000000
                249       0.220315   0.0000000   0.0000000   0.0000000   0.2019746

BR#6  1  ZZ  
                250     168.853703 221.9389343   0.0000000   0.0000000   0.0000000
                251      49.977950 182.4569424   0.0000000   0.0000000   0.0000000
                252      18.274913 108.5541738   0.0000000   0.0000000   0.0000000
                253       7.245569  40.3909948   0.0000000   0.0000000   0.0000000
                254       2.856232   8.2892177   0.0000000   0.0000000   0.0000000
                255       1.045962   0.0000000   3.0840613   0.0000000   0.0000000
                256       0.568657   0.0000000   0.0000000   1.0615921   0.0000000
                257       0.220315   0.0000000   0.0000000   0.0000000   0.2019746

BR#6  1  F300
                258       0.570833   1.6149002

BR#6  1  F210
                259       0.570833   1.6149002

BR#6  1  F201
                260       0.570833   1.6149002

BR#6  1  F120
                261       0.570833   1.6149002

BR#6  1  F111
                262       0.570833   1.6149002

BR#6  1  F102
                263       0.570833   1.6149002

BR#6  1  F030
                264       0.570833   1.6149002

BR#6  1  F021
                265       0.570833   1.6149002

BR#6  1  F012
                266       0.570833   1.6149002

BR#6  1  F003
                267       0.570833   1.6149002

SYMMETRY TRANSFORMATION INTO 152 SYMMETRY-ADAPTED BASIS FUNCTIONS

    IRREDUCIBLE REPRESENTATION NUMBER 1

    1    1 C #1 S      1   1.0
    2    2 C #1 S      2   1.0
    3    3 C #1 S      3   1.0
    4    4 C #1 S      4   1.0
    5    5 C #1 S      5   1.0
    6    6 C #1 X      6   1.0
    7    7 C #1 X      7   1.0
    8    8 C #1 X      8   1.0
    9    9 C #1 Y      9   1.0
   10   10 C #1 Y     10   1.0
   11   11 C #1 Y     11   1.0
   12   12 C #1 XX    15  -1.0  21  -1.0  25   2.0
   13   13 C #1 XX    16  -1.0  22  -1.0  26   2.0
   14   14 C #1 XY    17   1.0
   15   15 C #1 XY    18   1.0
   16   16 C #1 YY    15   1.0  21  -1.0
   17   17 C #1 YY    16   1.0  22  -1.0
   18   18 C #1 ZZ    27  -1.0  30  -1.0  32   4.0
   19   19 C #1 ZZ    28  -1.0  33  -1.0  35   4.0
   20   20 C #1 F300  27   1.0  30  -3.0
   21   21 C #1 F210  28   3.0  33  -1.0
   22   22 C #1 F120  37   1.0
   23   23 C #1 F102  38   1.0
   24   24 C #1 F030  39   1.0
   25   25 C #1 F012  40   1.0
   26   26 C #2 S     41   1.0
   27   27 C #2 S     42   1.0
   28   28 C #2 S     43   1.0
   29   29 C #2 S     44   1.0
   30   30 C #2 S     45   1.0
   31   31 C #2 X     46   1.0
   32   32 C #2 X     47   1.0
   33   33 C #2 X     51  -1.0  57  -1.0  61   2.0
   34   34 C #2 Y     52  -1.0  58  -1.0  62   2.0
   35   35 C #2 Y     53   1.0
   36   36 C #2 Y     54   1.0
   37   37 C #2 XX    51   1.0  57  -1.0
   38   38 C #2 XX    52   1.0  58  -1.0
   39   39 C #2 XY    63  -1.0  66  -1.0  68   4.0
   40   40 C #2 XY    64  -1.0  69  -1.0  71   4.0
   41   41 C #2 YY    63   1.0  66  -3.0
   42   42 C #2 YY    64   3.0  69  -1.0
   43   43 C #2 ZZ    73   1.0
   44   44 C #2 ZZ    74   1.0
   45   45 C #2 F300  75   1.0
   46   46 C #2 F210  76   1.0
   47   47 C #2 F120  77   1.0
   48   48 C #2 F102  78   1.0
   49   49 C #2 F030  79   1.0
   50   50 C #2 F012  82  -1.0  85  -1.0  87   2.0
   51   51 H #3 S     83   1.0
   52   52 H #3 S     82   1.0  85  -1.0
   53   53 H #3 S     88   1.0
   54   54 H #3 X     89   1.0
   55   55 H #3 X     90   1.0
   56   56 H #3 Y     91   1.0
   57   57 H #3 Y     92   1.0
   58   58 H #3 XX    93   1.0
   59   59 H #3 XY    94   1.0
   60   60 H #3 YY    97  -1.0 100  -1.0 102   2.0
   61   61 H #3 ZZ    98   1.0
   62   62 H #4 S     97   1.0 100  -1.0
   63   63 H #4 S    103   1.0
   64   64 H #4 S    104   1.0
   65   65 H #4 X    105   1.0
   66   66 H #4 X    106   1.0
   67   67 H #4 Y    107   1.0
   68   68 H #4 Y    108   1.0
   69   69 H #4 XX   109   1.0
   70   70 H #4 XY   112  -1.0 115  -1.0 117   2.0
   71   71 H #4 YY   113   1.0
   72   72 H #4 ZZ   112   1.0 115  -1.0
   73   73 H #5 S    118   1.0
   74   74 H #5 S    119   1.0
   75   75 H #5 S    120   1.0
   76   76 H #5 X    121   1.0
   77   77 H #5 X    122   1.0
   78   78 H #5 Y    123   1.0
   79   79 H #5 Y    124   1.0
   80   80 H #5 XX   125   1.0
   81   81 H #5 XY   126   1.0
   82   82 H #5 YY   127   1.0
   83   83 H #5 ZZ   128   1.0
   84   84 BR#6 S    129   1.0
   85   85 BR#6 S    130   1.0
   86   86 BR#6 S    131   1.0
   87   87 BR#6 S    132   1.0
   88   88 BR#6 S    133   1.0
   89   89 BR#6 S    139  -1.0 151  -1.0 159   2.0
   90   90 BR#6 X    140  -1.0 152  -1.0 160   2.0
   91   91 BR#6 X    141  -1.0 153  -1.0 161   2.0
   92   92 BR#6 X    142  -1.0 154  -1.0 162   2.0
   93   93 BR#6 X    143   1.0
   94   94 BR#6 X    144   1.0
   95   95 BR#6 Y    145   1.0
   96   96 BR#6 Y    146   1.0
   97   97 BR#6 Y    139   1.0 151  -1.0
   98   98 BR#6 Y    140   1.0 152  -1.0
   99   99 BR#6 Y    141   1.0 153  -1.0
  100  100 BR#6 XX   142   1.0 154  -1.0
  101  101 BR#6 XX   163  -1.0 166  -1.0 168   4.0
  102  102 BR#6 XX   164  -1.0 169  -1.0 171   4.0
  103  103 BR#6 XX   163   1.0 166  -3.0
  104  104 BR#6 XY   164   3.0 169  -1.0
  105  105 BR#6 XY    12   1.0
  106  106 BR#6 XY    13   1.0
  107  107 BR#6 XY    14   1.0
  108  108 BR#6 YY    19   1.0
  109  109 BR#6 YY    20   1.0
  110  110 BR#6 YY    23   1.0
  111  111 BR#6 YY    24   1.0
  112  112 BR#6 ZZ    29  -3.0  34  -3.0  36   2.0
  113  113 BR#6 ZZ    31   1.0
  114  114 BR#6 ZZ    29   1.0  34  -1.0
  115  115 BR#6 ZZ    48   1.0
  116  116 BR#6 F300  49   1.0
  117  117 BR#6 F210  50   1.0
  118  118 BR#6 F120  55   1.0
  119  119 BR#6 F102  56   1.0
  120  120 BR#6 F030  59   1.0
  121  121 BR#6 F012  60   1.0

    IRREDUCIBLE REPRESENTATION NUMBER 2

  122    1 C #1 Z     65  -3.0  70  -3.0  72   2.0
  123    2 C #1 Z     67   1.0
  124    3 C #1 Z     65   1.0  70  -1.0
  125    4 C #1 XZ    80   1.0
  126    5 C #1 XZ    81   1.0
  127    6 C #1 YZ    84   1.0
  128    7 C #1 YZ    86   1.0
  129    8 C #1 F201  95   1.0
  130    9 C #1 F111  96   1.0
  131   10 C #1 F021  99   1.0
  132   11 C #1 F003 101   1.0
  133   12 C #2 Z    110   1.0
  134   13 C #2 Z    111   1.0
  135   14 C #2 Z    114   1.0
  136   15 C #2 XZ   116   1.0
  137   16 C #2 XZ   134   1.0
  138   17 C #2 YZ   135   1.0
  139   18 C #2 YZ   136   1.0
  140   19 C #2 F201 137   1.0
  141   20 C #2 F111 138   1.0
  142   21 C #2 F021 147   1.0
  143   22 C #2 F003 148   1.0
  144   23 H #3 Z    149   1.0
  145   24 H #3 Z    150   1.0
  146   25 H #3 XZ   155   1.0
  147   26 H #3 YZ   156   1.0
  148   27 H #4 Z    157   1.0
  149   28 H #4 Z    158   1.0
  150   29 H #4 XZ   165  -3.0 170  -3.0 172   2.0
  151   30 H #4 YZ   167   1.0
  152   31 H #5 Z    165   1.0 170  -1.0
  153   32 H #5 Z   
  154   33 H #5 XZ  
  155   34 H #5 YZ  
  156   35 BR#6 Z   
  157   36 BR#6 Z   
  158   37 BR#6 Z   
  159   38 BR#6 Z   
  160   39 BR#6 Z   
  161   40 BR#6 XZ  
  162   41 BR#6 XZ  
  163   42 BR#6 XZ  
  164   43 BR#6 XZ  
  165   44 BR#6 YZ  
  166   45 BR#6 YZ  
  167   46 BR#6 YZ  
  168   47 BR#6 YZ  
  169   48 BR#6 F201
  170   49 BR#6 F111
  171   50 BR#6 F021
  172   51 BR#6 F003

NUCLEAR REPULSION ENERGY:  145.1081324133 A.U.

One-electron integrals took 0.176413 seconds

  @TWOEL-I,   14522789 INTEGRALS OF SYMMETRY TYPE  I I I I
  @TWOEL-I,   11442962 INTEGRALS OF SYMMETRY TYPE  I J I J
  @TWOEL-I,    6004749 INTEGRALS OF SYMMETRY TYPE  I I J J
  @TWOEL-I, TOTAL NUMBER OF 2-E INTEGRALS   31970500

Two-electron integrals took 78.846619 seconds

Nuclear repulsion energy: 145.108132413324
--executable xvmol finished with status     0 in       80.17 seconds (walltime).
 --invoking executable--
/project1/nike/cfour_v2.00beta_May2019xnmol_noLABBASIS/bin/xvmol2ja
--executable xvmol2ja finished with status     0 in        0.36 seconds (walltime).
 --invoking executable--
/project1/nike/cfour_v2.00beta_May2019xnmol_noLABBASIS/bin/xvscf
  There are  152 functions in the AO basis.

  There are 2 irreducible representations.

       Irrep        # of functions
         1                104
         2                 48


  Parameters for SCF calculation: 
        SCF reference function:  UHF  
  Maximum number of iterations: ****
     Full symmetry point group: C s 
     Computational point group: C s 
        Initial density matrix: CORE                   
     SCF convergence tolerance: 10**(-11)
  DIIS convergence acceleration:  ON
          Latest start for DIIS:   5
                     DIIS order:   6

  Memory information:    1165262 words required.
  Fock matrices are constructed from AO integral file.
 @GETMEM-I,  Allocated       8 MB of main memory.
  Initialization and symmetry analysis required      0.003 seconds.

  @INITGES-I, Occupancies from core Hamiltonian:

          Alpha population by irrep:  18    7
           Beta population by irrep:  17    7


 total no. of electrons in initial guess :  0.000000000000000E+000
 total no. of electrons in initial guess :  0.000000000000000E+000
  --------------------------------------------------------------------
  Iteration         Total Energy            Largest Density Difference
  --------------------------------------------------------------------
       0           145.108132413323517              0.0000000000D+00
   current occupation vector 
    18  7
    17  7
  processed               14522789  ao basis integrals from 
                 24205  buffers.
  processed                6004749  ao basis integrals from 
                 10008  buffers.
  processed               11442962  ao basis integrals from 
                 19072  buffers.
       1         -2515.116296186362888              0.1041170471D+02
   current occupation vector 
    18  7
    17  7
  processed               14522789  ao basis integrals from 
                 24205  buffers.
  processed                6004749  ao basis integrals from 
                 10008  buffers.
  processed               11442962  ao basis integrals from 
                 19072  buffers.
       2         -2175.345223591210015              0.1561716054D+02
   current occupation vector 
    19  6
    18  6
  processed               14522789  ao basis integrals from 
                 24205  buffers.
  processed                6004749  ao basis integrals from 
                 10008  buffers.
  processed               11442962  ao basis integrals from 
                 19072  buffers.
       3         -2448.143983237659995              0.1747915867D+02
   current occupation vector 
    18  7
    17  7
  processed               14522789  ao basis integrals from 
                 24205  buffers.
  processed                6004749  ao basis integrals from 
                 10008  buffers.
  processed               11442962  ao basis integrals from 
                 19072  buffers.
       4         -2155.173456015202646              0.1747885353D+02
   current occupation vector 
    19  6
    18  6
 
 sum over diagonal and offdiagdiagonal of C(T)*S*C for irrep
                     1
 -3.930189507173054E-012  2.124020245214464E-012
 reorthoganalization of MOs is carried out
 sum over diagonal and offdiagdiagonal of C(T)*S*C for irrep
                     1
  7.605027718682322E-014  4.408690563885429E-013
 
 sum over diagonal and offdiagdiagonal of C(T)*S*C for irrep
                     2
 -1.909583602355269E-014 -1.712715282676550E-013
 reorthoganalization of MOs is carried out
 sum over diagonal and offdiagdiagonal of C(T)*S*C for irrep
                     2
  2.553512956637860E-015  1.543879196399921E-014
 
 sum over diagonal and offdiagdiagonal of C(T)*S*C for irrep
                     1
 -4.498290628873747E-012  2.972593709900958E-012
 reorthoganalization of MOs is carried out
 sum over diagonal and offdiagdiagonal of C(T)*S*C for irrep
                     1
 -4.840572387365683E-014 -7.454591594411187E-013
 
 sum over diagonal and offdiagdiagonal of C(T)*S*C for irrep
                     2
 -2.886579864025407E-015 -2.415644807825383E-013
 reorthoganalization of MOs is carried out
 sum over diagonal and offdiagdiagonal of C(T)*S*C for irrep
                     2
  5.551115123125783E-016  2.747542072243376E-014
  processed               14522789  ao basis integrals from 
[...]
-----------------------------------------------------------------------------
   Norm of T2BB vector (   115600 symmetry allowed elements):  0.1244389420.
-----------------------------------------------------------------------------
   Largest T2 amplitudes for spin case AB:
       _       _                 _       _                 _       _
   i   j   a   b             i   j   a   b             i   j   a   b
-----------------------------------------------------------------------------
[  9   8  95  95]-0.10110 [  9   8  95 100]-0.04078 [  9   8 100  95]-0.04022
[  9   7  95  95]-0.03818 [  8   8  95  95]-0.02824 [  7   6  10  10]-0.02814
[  5   5  10  10]-0.02370 [  9   8  95  98]-0.02359 [  9   8 100 100]-0.02322
[  9   7 100  95]-0.02301 [  8   7  97  98]-0.02300 [  8   2  97   9] 0.02153
[  5   6  10  10]-0.02065 [  8   7  95  95]-0.01991 [  8   1  97   9]-0.01927
-----------------------------------------------------------------------------
   Norm of T2AB vector (   604136 symmetry allowed elements):  0.4055744109.
-----------------------------------------------------------------------------
  W(mnij) AA contribution =  0.0068822411 a.u.
  W(mnij) BB contribution =  0.0056571970 a.u.
  W(mnij) AB contribution =  0.0849999857 a.u.
  W(abef) AA contribution =  0.0096320803 a.u.
  W(abef) BB contribution =  0.0079396545 a.u.
  W(abef) AB contribution =  0.1213930524 a.u.
  W(mbej) AA contribution =  -0.0168336417 a.u.
  W(mbej) BB contribution =  -0.0133168980 a.u.
  W(mbej) AB contribution = -0.2907290511 a.u.
   After  26 iterations, amplitude changes are:
    -------------------------------------------------------------------
                 Spin      RMS          Max.      Max. change for
     Amplitude   Case     Change       Change       i    j    a    b
    -------------------------------------------------------------------
        T1        AA    0.0000000000 0.0000000002    9        95
        T1        BB    0.0000000000-0.0000000019    6         9
        T2        AA    0.0000000000 0.0000000000    9    5   95   10
        T2        BB    0.0000000000-0.0000000001    8    6   95    9
        T2        AB    0.0000000000-0.0000000001    4    6   10    9
    -------------------------------------------------------------------
   The AA contribution to the correlation energy is:   -0.0529237 a.u.
   The BB contribution to the correlation energy is:   -0.0427935 a.u.
   The AB contribution to the correlation energy is:   -0.3891597 a.u.
   The total correlation energy is -0.484876898283 a.u.
   The total correlation energy is -0.484876898283 a.u.
  Current DIIS expansion coefficients : 
 [   1] 1.1294701920 [   2]-0.0439310286 [   3] 0.1086870589 [   4]-0.1604477729
 [   5]-0.0337784494
  Convergence information after    26 iterations: 
  Largest element of residual vector : -0.19210853E-08.
  Largest element of DIIS residual   : -0.91545868E-09.
  W(mnij) AA contribution =  0.0068822411 a.u.
  W(mnij) BB contribution =  0.0056571970 a.u.
  W(mnij) AB contribution =  0.0849999857 a.u.
  W(abef) AA contribution =  0.0096320803 a.u.
  W(abef) BB contribution =  0.0079396545 a.u.
  W(abef) AB contribution =  0.1213930524 a.u.
  W(mbej) AA contribution =  -0.0168336417 a.u.
  W(mbej) BB contribution =  -0.0133168980 a.u.
  W(mbej) AB contribution = -0.2907290511 a.u.
   After  27 iterations, amplitude changes are:
    -------------------------------------------------------------------
                 Spin      RMS          Max.      Max. change for
     Amplitude   Case     Change       Change       i    j    a    b
    -------------------------------------------------------------------
        T1        AA    0.0000000000 0.0000000001    9        95
        T1        BB    0.0000000000-0.0000000012    6         9
        T2        AA    0.0000000000 0.0000000000    9    3   95   10
        T2        BB    0.0000000000-0.0000000001    8    6   95    9
        T2        AB    0.0000000000-0.0000000001    9    6   95    9
    -------------------------------------------------------------------
   The AA contribution to the correlation energy is:   -0.0529237 a.u.
   The BB contribution to the correlation energy is:   -0.0427935 a.u.
   The AB contribution to the correlation energy is:   -0.3891597 a.u.
   The total correlation energy is -0.484876898274 a.u.
   The total correlation energy is -0.484876898274 a.u.
  Current DIIS expansion coefficients : 
 [   1]-1.0327150324 [   2] 2.2207318715 [   3] 0.0004005513 [   4] 0.1283225182
 [   5]-0.3167399085
  Convergence information after    27 iterations: 
  Largest element of residual vector : -0.11619253E-08.
  Largest element of DIIS residual   : -0.38072789E-09.
  W(mnij) AA contribution =  0.0068822411 a.u.
  W(mnij) BB contribution =  0.0056571970 a.u.
  W(mnij) AB contribution =  0.0849999856 a.u.
  W(abef) AA contribution =  0.0096320803 a.u.
  W(abef) BB contribution =  0.0079396545 a.u.
  W(abef) AB contribution =  0.1213930524 a.u.
  W(mbej) AA contribution =  -0.0168336417 a.u.
  W(mbej) BB contribution =  -0.0133168980 a.u.
  W(mbej) AB contribution = -0.2907290510 a.u.
   After  28 iterations, amplitude changes are:
    -------------------------------------------------------------------
                 Spin      RMS          Max.      Max. change for
     Amplitude   Case     Change       Change       i    j    a    b
    -------------------------------------------------------------------
        T1        AA    0.0000000000 0.0000000002    9        95
        T1        BB    0.0000000000-0.0000000003    6         9
        T2        AA    0.0000000000 0.0000000000    9    3   95   10
        T2        BB    0.0000000000 0.0000000000    8    4   95    9
        T2        AB    0.0000000000 0.0000000001    9    8   95   95
    -------------------------------------------------------------------
   The AA contribution to the correlation energy is:   -0.0529237 a.u.
   The BB contribution to the correlation energy is:   -0.0427935 a.u.
   The AB contribution to the correlation energy is:   -0.3891597 a.u.
   The total correlation energy is -0.484876898242 a.u.
   The total correlation energy is -0.484876898242 a.u.
  Current DIIS expansion coefficients : 
 [   1] 0.2483740087 [   2]-1.0807487570 [   3] 1.5953022367 [   4]-0.0876175554
 [   5] 0.3246900670
  Convergence information after    28 iterations: 
  Largest element of residual vector : -0.25261223E-09.
  Largest element of DIIS residual   : -0.84545134E-10.
  Amplitude equations converged in    28iterations.
   The AA contribution to the correlation energy is:   -0.0529237 a.u.
   The BB contribution to the correlation energy is:   -0.0427935 a.u.
   The AB contribution to the correlation energy is:   -0.3891597 a.u.
   The total correlation energy is -0.484876898237 a.u.
   The total correlation energy is -0.484876898237 a.u.
   The CC iterations have converged.

            ----------------------------------------------
                     Projected spin multiplicities: 
            ----------------------------------------------
             <0|S^2|0>                  =    0.7778485032.
             <0|S^2 (T2+T1**2) |0>      =   -0.0099130731.
             <0|S^2 T1|0>               =   -0.0157049927.
             Projected <0|S^2 exp(T)|0> =    0.7522304374.
             Approximate spin mult.     =    2.0022291951.
            ----------------------------------------------
   Largest T1 amplitudes for spin case AA:
   i       a                 i       a                 i       a    
-----------------------------------------------------------------------------
[  9      95    ]-0.02160 [  8      95    ]-0.01426 [  9     111    ] 0.01253
[  4      10    ] 0.01252 [  9      98    ] 0.01245 [  9     102    ] 0.01102
[  9      96    ] 0.01088 [  5      10    ]-0.01004 [  9      99    ]-0.00870
[  4      18    ] 0.00710 [  3      10    ] 0.00667 [  9     103    ]-0.00619
[  4      26    ] 0.00570 [  5      26    ]-0.00561 [  5      18    ]-0.00549
-----------------------------------------------------------------------------
   Norm of T1AA vector (      679 symmetry allowed elements):  0.0530841244.
-----------------------------------------------------------------------------
   Largest T2 amplitudes for spin case AA:
   i   j   a   b             i   j   a   b             i   j   a   b
-----------------------------------------------------------------------------
[  8   6  97  20] 0.01257 [  9   5  95  27] 0.01146 [  8   6  97  17]-0.01076
[  6   5  16  10]-0.01054 [  9   7  95  18] 0.01047 [  8   6  97  14]-0.01045
[  8   6  97  21] 0.00955 [  8   5  95  10]-0.00886 [  7   6  16  10] 0.00861
[  9   7  95  10] 0.00848 [  9   5  98  10] 0.00829 [  9   5  95  21] 0.00761
[  8   4  95  10] 0.00734 [  8   7  95  10]-0.00716 [  7   6  19  10] 0.00716
-----------------------------------------------------------------------------
   Norm of T2AA vector (   147462 symmetry allowed elements):  0.1367534915.
-----------------------------------------------------------------------------
   Largest T1 amplitudes for spin case BB:
   i       a                 i       a                 i       a    
-----------------------------------------------------------------------------
[  8      95    ] 0.06625 [  5       9    ] 0.03530 [  4       9    ] 0.03479
[  8     100    ] 0.01952 [  8      97    ] 0.01520 [  4      10    ] 0.01495
[  8      96    ] 0.01345 [  3       9    ]-0.01328 [  7      95    ] 0.01197
[  8     110    ] 0.01107 [  6       9    ]-0.01073 [  8      98    ] 0.01004
[  8     102    ] 0.00990 [  7     100    ] 0.00825 [  1      10    ] 0.00813
-----------------------------------------------------------------------------
   Norm of T1BB vector (      600 symmetry allowed elements):  0.1009143974.
-----------------------------------------------------------------------------
   Largest T2 amplitudes for spin case BB:
   i   j   a   b             i   j   a   b             i   j   a   b
-----------------------------------------------------------------------------
[  8   6  95  18] 0.01170 [  8   5  95  27] 0.01166 [  5   4  10   9]-0.01127
[  6   5  10   9]-0.01022 [  7   2  98   9] 0.00976 [  8   6  95  10] 0.00937
[  8   5  95  25] 0.00912 [  8   5  97  10] 0.00866 [  7   4  95  10] 0.00864
[  8   3  95  17]-0.00833 [  8   6  97  10] 0.00807 [  8   6  99  10] 0.00790
[  8   5  95  21] 0.00786 [  7   5  95  10]-0.00776 [  7   1  98   9]-0.00769
-----------------------------------------------------------------------------
   Norm of T2BB vector (   115600 symmetry allowed elements):  0.1244389420.
-----------------------------------------------------------------------------
   Largest T2 amplitudes for spin case AB:
       _       _                 _       _                 _       _
   i   j   a   b             i   j   a   b             i   j   a   b
-----------------------------------------------------------------------------
[  9   8  95  95]-0.10110 [  9   8  95 100]-0.04078 [  9   8 100  95]-0.04022
[  9   7  95  95]-0.03818 [  8   8  95  95]-0.02824 [  7   6  10  10]-0.02814
[  5   5  10  10]-0.02370 [  9   8  95  98]-0.02359 [  9   8 100 100]-0.02322
[  9   7 100  95]-0.02301 [  8   7  97  98]-0.02300 [  8   2  97   9] 0.02153
[  5   6  10  10]-0.02065 [  8   7  95  95]-0.01991 [  8   1  97   9]-0.01927
-----------------------------------------------------------------------------
   Norm of T2AB vector (   604136 symmetry allowed elements):  0.4055744107.
-----------------------------------------------------------------------------
       Summary of iterative solution of CC equations 
      -----------------------------------------------------------
                       Correlation           Total
       Iteration         Energy              Energy
      -----------------------------------------------------------
            0        -0.447319514006   -2649.986064132928  DIIS 
            1        -0.467887380893   -2650.006631999815  DIIS 
            2        -0.480300003446   -2650.019044622368  DIIS 
            3        -0.482367695397   -2650.021112314319  DIIS 
            4        -0.484316620012   -2650.023061238934  DIIS 
            5        -0.484753016446   -2650.023497635368  DIIS 
            6        -0.484843568005   -2650.023588186927  DIIS 
            7        -0.484863976369   -2650.023608595291  DIIS 
            8        -0.484858557396   -2650.023603176318  DIIS 
            9        -0.484872655161   -2650.023617274083  DIIS 
           10        -0.484873314937   -2650.023617933859  DIIS 
           11        -0.484876303153   -2650.023620922075  DIIS 
           12        -0.484877444766   -2650.023622063688  DIIS 
           13        -0.484877504236   -2650.023622123157  DIIS 
           14        -0.484877359133   -2650.023621978055  DIIS 
           15        -0.484876922055   -2650.023621540976  DIIS 
           16        -0.484876899610   -2650.023621518532  DIIS 
           17        -0.484876864923   -2650.023621483845  DIIS 
           18        -0.484876883441   -2650.023621502362  DIIS 
           19        -0.484876894034   -2650.023621512956  DIIS 
           20        -0.484876896245   -2650.023621515166  DIIS 
           21        -0.484876897657   -2650.023621516578  DIIS 
           22        -0.484876897728   -2650.023621516650  DIIS 
           23        -0.484876898044   -2650.023621516966  DIIS 
           24        -0.484876898187   -2650.023621517108  DIIS 
           25        -0.484876898289   -2650.023621517210  DIIS 
           26        -0.484876898283   -2650.023621517204  DIIS 
           27        -0.484876898274   -2650.023621517196  DIIS 
           28        -0.484876898237   -2650.023621517159  DIIS 
      -----------------------------------------------------------
      A miracle has come to pass. The CC iterations have converged.
 @DIMT3-I, Dimensions of T3 amplitudes : 
               # abc          # ijk       Symmetry    Spin 
                   171955             42     1          1
                   161420             42     2          1
                   531006            160     1          2
                   493122            128     2          2
                   535564            136     1          3
                   496692            116     2          3
                   176386             26     1          4
                   164990             30     2          4
 @DIMT3-I, Dimensions of T3 amplitudes : 
               # abc          # ijk       Symmetry    Spin 
                   171955             42     1          1
                   161420             42     2          1
                   531006            160     1          2
                   493122            128     2          2
                   535564            136     1          3
                   496692            116     2          3
                   176386             26     1          4
                   164990             30     2          4
 @TRPS-I, Welcome to TRPS. Watch your RUs ! 
 @TRPS-I, Method is CCSD(T) 
 @TRPS-I, Calculation type is energy 
 @TRPS-I, Reference function information : 
          Reference function is Hartree-Fock 
          Reference function is UHF Hartree-Fock 
 @TRPS-I, INT1 is true 
 @TRPS-I, INT2 is false 
 @TRPS-I, Lengths of ijka integrals. #1      21434
                                     #2      14688
                                     #3      38296
                                     #4      43672
                                    Max      43672
 @INITRP-I, Initializing W intermediate lists. 
 @TSPABCI-I, AbIc/AbcI record transposition. 
 @TSPABCI-I, (O,v) ---> (v,O) transposition. 
 @TSPABCI-I, In-core algorithm is being used. 
 @TSPABCI-I, In-core algorithm is being used. 
 @TRPS-I, Available memory in integer words    499959040
          Number of pre-allocated words for TRPS14       131252
          Number of free words for TRPS14    499827788
 @TRPS14-I, Spin case AAA 
 @TRPS14-I, Number of free integer words  499827788
            Number of free double words   499827788
            Ratio                                 1
 @TRPS14-I, E4TAAA      -0.000599568222
 @TRPS14-I, E5ST A    0.000023581671471
 @TRPS-I, Available memory in integer words    499959040
          Number of pre-allocated words for TRPS14       131244
          Number of free words for TRPS14    499827796
 @TRPS14-I, Spin case BBB 
 @TRPS14-I, Number of free integer words  499827796
            Number of free double words   499827796
            Ratio                                 1
 @TRPS14-I, E4TBBB      -0.000490270448
 @TRPS14-I, E5ST B    0.000028026199847
 @SETOOOV-I, Some OOOV lists are being transposed. 
 @TRPS-I, Available memory in integer words    499959040
          Number of pre-allocated words for TRPS2       357528
          Number of free words for TRPS2    499601512
 @TRPS2-I, Spin case AAB 
 @TRPS2-I, Number of free integer words  499601512
           Number of free double  words  499601512
           Ratio                                 1
 @TRPS2-I, E4TBAA      -0.011097148756
 @TRPS2-I, E5ST A    0.000171154783048
 @TRPS2-I, E5ST B    0.000217555186848
 @SETOOOV-I, Some OOOV lists are being transposed. 
 @TSPABCI2-I, (Alpha,Beta) ---> (Beta,Alpha). 
 @TSPABCI2-I, In-core algorithm is being used. 
 @TSPABCI2-I, In-core algorithm is being used. 
 @TSPABCI2-I, In-core algorithm is being used. 
 @TSPABCI2-I, In-core algorithm is being used. 
 @AT2IAB-I, Some AbIj lists are being altered. 
 @TRPS-I, Available memory in integer words    499959040
          Number of pre-allocated words for TRPS3       883118
          Number of free words for TRPS3    499075922
 @TRPS3-I, Spin case BBA 
 @TRPS3-I, Number of free integer words  499075922
           Number of free double  words  499075922
           Ratio                                 1
 @TRPS3-I, E4TBBA      -0.010172648108
 @TRPS3-I, E5ST A    0.000250539896646
 @TRPS3-I, E5ST B    0.000468092665263
 @TSPABCI2-I, (Beta,Alpha) ---> (Alpha,Beta). 
 @TSPABCI2-I, In-core algorithm is being used. 
 @TSPABCI2-I, In-core algorithm is being used. 
 @TSPABCI2-I, In-core algorithm is being used. 
 @TSPABCI2-I, In-core algorithm is being used. 
 @AT2IAB-I, Some AbIj lists are being altered. 
 @TSPABCI-I, AbIc/AbcI record transposition. 
 @TSPABCI-I, (v,O) ---> (O,v) transposition. 
 @TSPABCI-I, In-core algorithm is being used. 
 @TSPABCI-I, In-core algorithm is being used. 
 @CCENRG-I, CCSD/QCISD energy will now be evaluated. 
 @CCENRG-I, Correlation energies. ECCAA       -0.052923653776
                                  ECCBB       -0.042793543056
                                  ECCAB       -0.389159701405
                                  Total       -0.484876898237
 @CCENRG-I, Reference   energy   -2649.538744618922
            CCSD/QCISD energy    -2650.023621517159
          E4T (T(CCSD)) = -0.022359635535
          E5ST          =  0.000718632562
          E4ST          =  0.000000000000
          In other words  
          <T3[2](Dagger) D3  T3[2]> = -0.022359635535
          <T1   (Dagger) Q1 WT3[2]> =  0.000718632562
          <T2   (Dagger) Q2 FT3[2]> =  0.000000000000
        E(CCSD)           =   -2650.023621517159
        E(CCSD + T(CCSD)) =   -2650.045981152693
        E(CCSD(T))        =   -2650.045262520131
  @CHECKOUT-I, Total execution time (CPU/WALL):     2438.00/    2501.20 seconds.
--executable xvcc finished with status     0 in     2502.80 seconds (walltime).
  The final electronic energy is     -2650.045262520131018 a.u. 
  This computation required                         3439.75 seconds (walltime).
--- SharcNET Job Epilogue ---
Job completed successfully.
               jobid: 1979119
               resid: 3447516
         exit status: 0
      allocated time: 3440.85
           user time: 3099.71
         system time: 238.88
peak rss=3751690240; peak vsz=3751690240 (bytes)
atime=3440.85; utime=3099.71; stime=238.88; exit=0
