 --invoking executable--
/home/nike/cfour_v2.00beta/cfour_v2.00beta/bin/xjoda


   *************************************************************************
         <<<     CCCCCC     CCCCCC   |||     CCCCCC     CCCCCC   >>>
       <<<      CCC        CCC       |||    CCC        CCC         >>>
      <<<      CCC        CCC        |||   CCC        CCC            >>>
    <<<        CCC        CCC        |||   CCC        CCC              >>>
      <<<      CCC        CCC        |||   CCC        CCC            >>>
       <<<      CCC        CCC       |||    CCC        CCC         >>>
         <<<     CCCCCC     CCCCCC   |||     CCCCCC     CCCCCC   >>>
   *************************************************************************

     ****************************************************************
     * CFOUR Coupled-Cluster techniques for Computational Chemistry *
     ****************************************************************
 

   Department of Chemistry                Institut fuer Physikalische Chemie
   University of Texas at Austin          Universitaet Mainz
   Austin, TX  78712, USA                 D-55099 Mainz, Germany
 
                       Version 2.00beta
 
                     blg9312.int.ets1.calculquebec.ca                  
                     So 23. Feb 13:45:25 EST 2020                      
                     integer*8 version is running
 
********************************************************************************
*                          Input from ZMAT file                                *
********************************************************************************
TITLE                                                                           
C    -0.5698992    0.0010721   -0.5106280                                       
C    -1.9574388   -0.0010272    0.1310139                                       
C     0.5699130    0.0010684    0.5106802                                       
H    -2.1019869   -0.8898549    0.7620598                                       
H    -2.1011958    0.8826120    0.7695094                                       
H    -2.7542204    0.0025732   -0.6252247                                       
H    -0.4643309   -0.8776931   -1.1680830                                       
H    -0.4658369    0.8818734   -1.1655696                                       
H     0.4658491    0.8818113    1.1656828                                       
H     0.4644008   -0.8777422    1.1680681                                       
C     1.9574251   -0.0010272   -0.1310574                                       
H     2.7542844    0.0069401    0.6250702                                       
H     2.1035257   -0.8919972   -0.7587064                                       
H     2.0995094    0.8804516   -0.7729107                                       
                                                                                
*ACES2(CALC=CCSD(T)                                                             
#UNITS=BOHR                                                                     
UNITS=ANGSTROM                                                                  
#GEOM=1.329*10/5.29177210903_1985BredohlButLookAtMahmoud2015                    
COORD=CARTESIAN                                                                 
#COORD=INTERNAL                                                                 
PRINT=4                                                                         
JODA_PRINT=4                                                                    
INPUT_MRCC=OFF                                                                  
#CC_PROG=MRCC                                                                   
FROZEN_CORE=ON                                                                  
#DROPMO=1>5                                                                     
CONTRACTION=GENERAL                                                             
#CONTRACTION=SEGMENTED                                                          
RELATIVISTIC=OFF                                                                
#EXCITE=EOMEE                                                                   
#ESTATE_CONV=5                                                                  
#ESTATE_SYM=2/2/2/2/2/2/2/2                                                     
XFORM_TOL=18                                                                    
SAVE_INTS=ON                                                                    
SCF_EXPORDER=6                                                                  
SCF_EXPSTART=5                                                                  
#SCF_DAMPING=1000                                                               
SCF_EXTRAPOLATION=ON                                                            
SCF_CONV=11                                                                     
SCF_MAXCYC=99999                                                                
CC_CONV=9                                                                       
CC_MAXCYC=999                                                                   
T3_EXTRAPOL=ON                                                                  
REFERENCE=RHF                                                                   
CHARGE=+0                                                                       
MULT=1                                                                          
ABCDTYPE=STANDARD                                                               
#OCCUPATION=3-2-2-0-1-0-0-0/3-1-1-0-1-0-0-0                                     
MEM=24                                                                          
MEM_UNIT=GB                                                                     
BASIS=SPECIAL)                                                                  
                                                                                
C:def2-TZVPP                                                                    
C:def2-TZVPP                                                                    
C:def2-TZVPP                                                                    
H:def2-TZVPP                                                                    
H:def2-TZVPP                                                                    
H:def2-TZVPP                                                                    
H:def2-TZVPP                                                                    
H:def2-TZVPP                                                                    
H:def2-TZVPP                                                                    
H:def2-TZVPP                                                                    
C:def2-TZVPP                                                                    
H:def2-TZVPP                                                                    
H:def2-TZVPP                                                                    
H:def2-TZVPP                                                                    
                                                                                
********************************************************************************
  @GTFLGS-W, Keyword #UNITS not known and is ignored.
  @GTFLGS-W, Keyword #GEOM not known and is ignored.
  @GTFLGS-W, Keyword #COORD not known and is ignored.
  @GTFLGS-W, Keyword #CC_PROG not known and is ignored.
  @GTFLGS-W, Keyword #DROPMO not known and is ignored.
  @GTFLGS-W, Keyword #CONTRACTION not known and is ignored.
  @GTFLGS-W, Keyword #EXCITE not known and is ignored.
  @GTFLGS-W, Keyword #ESTATE_CONV not known and is ignored.
  @GTFLGS-W, Keyword #ESTATE_SYM not known and is ignored.
  @GTFLGS-W, Keyword #SCF_DAMPING not known and is ignored.
  @GTFLGS-W, Keyword #OCCUPATION not known and is ignored.
    -------------------------------------------------------------------
                    CFOUR Control Parameters 
    -------------------------------------------------------------------
        External           Internal           Value            Units
          Name               Name
    -------------------------------------------------------------------
       ABCDTYPE             IABCDT         STANDARD     [  0]   ***   
       ANHARMONIC           IANHAR         OFF          [  0]   ***   
       ANH_ALGORIT          IANALG         STANDARD     [  0]   ***   
       ANH_DERIVAT          IANDER         SECOND       [  1]   ***   
       ANH_STEPSIZ          ICUBST             50000          x 10-6  
       ANH_SYMMETR          IANHSM         ABELIAN      [  0]   ***   
       AO_LADDERS           IAOLAD         SINGLEPASS   [  1]   ***   
       BASIS                IBASIS         SPECIAL      [  0]   ***   
       BREIT                IBREIT         OFF          [  0]   ***   
       BRUCK_CONV           IBRTOL          10D-  4             ***   
       BRUECKNER            IBRKNR             OFF      [  0]   ***   
       BUFFERSIZE           IBUFFS            600               ***   
       CACHE_RECS           ICHREC             10               ***   
       CALCLEVEL            ICLLVL           CCSD(T)    [ 22]   ***   
       CCORBOPT             ICCORB             OFF      [  0] x 0.01  
       CC_CONV              ICCCNV          10D-  9             ***   
       CC_EXPORDER          ICCEOR              5               ***   
       CC_EXTRAPOL          ICCEXT             DIIS     [  1]   ***   
       CC_MAXCYC            ICCCYC            999              cycles 
       CC_PROGRAM           ICCPRO         VCC          [  0]   ***   
       CHARGE               ICHRGE              0               ***   
       CHOLESKY             ICHOLE         OFF          [  0]   ***   
       CIS_CONV             ICISTL              5               ***   
       COMM_SIZE            IPSIZE            ***               ***   
       CONSTANT             ICONST         OLD          [  1]   ***   
       CONTINUUM            ICONTU         NONE         [  0]   ***   
       CONTRACTION          ICNTYP          GENERAL     [  1]   ***   
       COORDINATES          ICOORD         CARTESIAN    [  1]   ***   
       CPHF_CONVER          ICPHFT          10D- 16             ***   
       CPHF_MAXCYC          ICPHFC             64              cycles 
       CUBIC                ICUBIC         OFF          [  0]   ***   
       CURVILINEAR          ICURVY            OFF       [  0]   ***   
       DBOC                 IDBOC          OFF          [  0]   ***   
       DCT                  IDCT           OFF          [  0]   ***   
       DERIV_LEV            IDRLVL            ZERO      [  0]   ***   
       DIAG_MRCC            IEOMST          10D-  0             ***   
       DIFF_TYPE            IDIFTY         RELAXED      [  0]   ***   
       DIRECT               IDIRCT         OFF          [  0]   ***   
       DROPMO               IDRPMO      NONE         
       ECP                  IECP           OFF          [  0]   ***   
       EIGENVECTOR          IVEC                1               ***   
       EL_ANHARM            IELANH         OFF          [  0]   ***   
       EOMFOLLOW            IEOMSR         ENERGY       [  0]   ***   
       EOM_MRCC             IMRCCE         NEW          [  1]   ***   
       EOM_NONIT            EOMNON         OFF          [  0]   ***   
       EOM_NSING            IEOMSI          10D-  0             ***   
       EOM_NSTATES          IMRCCD         DAVIDSON     [  0]   ***   
       EOM_NTRIP            IEOMTR          10D-  0             ***   
       EOM_ORDER            IEXORD         ENERGY       [  0]   ***   
       ESTATE_CONV          IEXTOL          10D-  5             ***   
       ESTATE_DIAG          IEXDIG         ITERATIVE    [  0]   ***   
       ESTATE_LOCK          IESLOC         ON           [  1]   ***   
       ESTATE_MAXC          IEXMXC             20               ***   
       ESTATE_PROP          IEXPRP         OFF          [  0]   ***   
       EVAL_HESS            IRECAL              0            # of cyc.
       EXCITATION           IEXCIT              0               ***   
       EXCITE               IEXCIT         NONE         [  0]   ***   
       FCGRADNEW            IFCGNW         OFF          [  0]   ***   
       FC_FIELD             IFINFC              0             x 10-6  
       FD_CALTYPE           IFDCAL         GRADONLY     [  0]   ***   
       FD_PROJECT           IFDPRJ         OFF          [  1]   ***   
       FD_STEPSIZE          IDISFD              0            10-4 bohr
       FD_USEGROUP          IFDGRP         FULL         [  0]   ***   
       FILE_RECSIZ          IFLREC              4096           words  
       FINITE_PERT          IFIPER              0             x 10-6  
       FIXGEOM              IFIXGM         OFF          [  0]   ***   
       FOCK                 IFOCK          AO           [  1]   ***   
       FREQ_ALGORI          IVIALG         STANDARD     [  0]   ***   
       FROZEN_CORE          IFROCO         ON           [  1]   ***   
       FROZEN_VIRT          IFROVI         OFF          [  0]   ***   
       GAMMA_ABCD           IGABCD         STORE        [  0]   ***   
       GAMMA_ABCI           IGABCI         STORE        [  0]   ***   
       GENBAS_1             IGNBS1              0               ***   
       GENBAS_2             IGNBS2              0               ***   
       GENBAS_3             IGNBS3              0               ***   
       GENBAS_4             IGNBS4              0               ***   
       GEO_CONV             ICONTL              5              H/bohr 
       GEO_MAXCYC           IOPTCY             50               ***   
       GEO_MAXSTEP          IMXSTP            300            millibohr
       GEO_METHOD           INR            SINGLE_POINT [  5]   ***   
       GIAO                 IGIAO          OFF          [  1]   ***   
       GIMIC                IGIMIC         OFF          [  0]   ***   
       GRID                 IGRID          OFF          [  0]   ***   
       GRID_ALGO            IGALGO         SERIAL       [  0]   ***   
       GUESS                IGUESS            MOREAD    [  0]   ***   
       HBAR                 IHBAR              OFF      [  0]   ***   
       HESS_TYPE            IHESTP         SCF          [  0]   ***   
       HF2_FILE             IHF2Fl         USE          [  1]   ***   
       HFSTABILITY          ISTABL         OFF          [  0]   ***   
       INCORE               INCORE             OFF      [  0]   ***   
       INPUT_MRCC           IMRCC          OFF          [  0]   ***   
       INTEGRALS            INTTYP             VMOL     [  1]   ***   
       JODA_PRINT           IJPRNT              4               ***   
       LINDEP_TOL           ILINDP              8               ***   
       LINEQ_CONV           IZTACN          10D-  7           cycles  
       LINEQ_EXPOR          ILMAXD              5               ***   
       LINEQ_MAXCY          ILMAXC             50               ***   
       LINEQ_TYPE           ILTYPE         DIIS         [  1]   ***   
       LOCK_ORBOCC          ILOCOC             OFF      [  0]   ***   
       MEMORY_SIZE          IMEMSZ         *********           words  
       MEM_UNIT             IMEMU          GB           [  3]   ***   
       MRCC                 IMRCCC         OFF          [  0]   ***   
       MULTIPLICTY          IMULTP              1               ***   
       NEGEVAL              IDIE             ABORT      [  0]   ***   
       NEWNORM              INEWNO         OFF          [  0]   ***   
       NON-HF               INONHF             OFF      [  0]   ***   
       NTOP_TAMP            ITOPT2             15               ***   
       NUC_MODEL            INUCMO         POINT        [  0]   ***   
       OCCUPATION           IOCCU   ESTIMATED BY SCF 
       OPEN-SHELL           IOPEN          SPIN-ORBITAL [  0]   ***   
       ORBITALS             IORBTP           STANDARD   [  0]   ***   
       PARALLEL             IPARAL         ON           [  1]   ***   
       PARA_INT             IPINTS         ON           [  1]   ***   
       PARA_PRINT           IPPRIN              0               ***   
       PERT_ORB             IPTORB         STANDARD     [  0]   ***   
       POINTS               IGRDFD              0               ***   
       PRINT                IPRNT               4               ***   
       PROPS                IPROPS             OFF      [  0]   ***   
       PROP_INTEGR          IINTYP         INTERNAL     [  0]   ***   
       PSI                  IPSI           OFF          [  0]   ***   
       QUARTIC              IQUART         OFF          [  0]   ***   
       RAMAN_INT            IRAMIN         OFF          [  0]   ***   
       RAMAN_ORB            IRAMRE         UNRELAXED    [  0]   ***   
       RDO                  IRDOFM             OFF      [  0]   ***   
       REFERENCE            IREFNC             RHF      [  0]   ***   
       RELATIVIST           IRELAT         OFF          [  0]   ***   
       RELAX_DENS           IRDENS             OFF      [  0]   ***   
       RESET_FLAGS          IRESET             OFF      [  0]   ***   
       RESTART_CC           ICCRES         OFF          [  0]   ***   
       ROT_EVEC             ROTVEC              0               ***   
       SAVE_INTS            ISVINT              ON      [  1]   ***   
       SCALE_ON             ISTCRT              0               ***   
       SCF_CONV             ISCFCV          10D- 11             ***   
       SCF_DAMPING          IDAMP               0             x 10-3  
       SCF_EXPORDE          IRPPOR              6               ***   
       SCF_EXPSTAR          IRPPLS              5               ***   
       SCF_EXTRAPO          IRPP                ON      [  1]   ***   
       SCF_MAXCYC           ISCFCY            ***              cycles 
       SCF_NOSTOP           ISCFST         OFF          [  0]   ***   
       SCF_PRINT            ISCFPR              0               ***   
       SD_FIELD             IFINSD              0             x 10-6  
       SEQUENCE             ISEQUE         OFF          [  0]   ***   
       SOPERT               IPERSO         OFF          [  0]   ***   
       SPHERICAL            IDFGHI             ON       [  1]   ***   
       SPINORBIT            ISOCAL         OFF          [  0]   ***   
       SPINROTATIO          ISRCON         OFF          [  0]   ***   
       SPIN_FLIP            ISPFLP         OFF          [  0]   ***   
       SPIN_ORBIT           ISPORB         OFF          [  0]   ***   
       SPIN_SCAL            ISCSMP         OFF          [  0]   ***   
       SUBGROUP             ISUBGP         DEFAULT      [  0]   ***   
       SUBGRPAXIS           ISBXYZ         X            [  0]   ***   
       SYMMETRY             ISYM             ON         [  0]   ***   
       SYM_CHECK            ISYMCK         OVERRIDE     [  1]   ***   
       T3_EXTRAPOL          IT3EXT         ON           [  1]   ***   
       TAMP_SUM             IEVERY              5               ***   
       TESTSUITE            ITESTS         OFF          [  0]   ***   
       THERMOCH             ITHERM         OFF          [  0]   ***   
       TOL_CHOLESK          ITOLCH          10D-  4             ***   
       TRANGRAD             IRESRM         OFF          [  0]   ***   
       TRANS_INV            ITRAIN         USE          [  0]   ***   
       TREAT_PERT           ITREAT         SIMULTANEOUS [  0]   ***   
       UIJ_THRESHO          IUIJTH              1               ***   
       UNITS                IUNITS         ANGSTROM     [  0]   ***   
       UNOS                 IUNOS          OFF          [  0]   ***   
       UPDATE_HESS          IHUPDT         ON           [  1]   ***   
       VIBPHASE             ISETPH         STANDARD     [  0]   ***   
       VIBRATION            IVIB              NO        [  0]   ***   
       VIB_ALGORIT          IGEALG         STANDARD     [  0]   ***   
       VNATORB              IVNORB         OFF          [  0]   ***   
       VTRAN                IVTRAN         FULL/PARTIAL [  0]   ***   
       XFIELD               IXEFLD              0             x 10-6  
       XFORM_TOL            IXFTOL          10D- 18             ***   
       YFIELD               IYEFLD              0             x 10-6  
       ZFIELD               IZEFLD              0             x 10-6  
    -------------------------------------------------------------------
  @GETXYZ-I,    14 atoms read from ZMAT.
  1  C          6    12.00000
  2  C          6    12.00000
  3  C          6    12.00000
  4  H          1     1.00783
  5  H          1     1.00783
  6  H          1     1.00783
  7  H          1     1.00783
  8  H          1     1.00783
  9  H          1     1.00783
 10  H          1     1.00783
 11  C          6    12.00000
 12  H          1     1.00783
 13  H          1     1.00783
 14  H          1     1.00783
  1  C          6    12.00000
  2  C          6    12.00000
  3  C          6    12.00000
  4  H          1     1.00783
  5  H          1     1.00783
  6  H          1     1.00783
  7  H          1     1.00783
  8  H          1     1.00783
  9  H          1     1.00783
 10  H          1     1.00783
 11  C          6    12.00000
 12  H          1     1.00783
 13  H          1     1.00783
 14  H          1     1.00783
   12.0000000000
   12.0000000000
   12.0000000000
    1.0078250350
    1.0078250350
    1.0078250350
    1.0078250350
    1.0078250350
    1.0078250350
    1.0078250350
   12.0000000000
    1.0078250350
    1.0078250350
    1.0078250350
 After translation to center of mass coordinates 
       -1.076953622204    0.002025996201   -0.964947257052
       -3.699024002801   -0.001941106684    0.247580458149
        1.076979720716    0.002019004213    0.965045934263
       -3.972180380883   -1.681582383678    1.440084631138
       -3.970685418232    1.667895324258    1.454162337826
       -5.204723323501    0.004862664681   -1.181503680223
       -0.877458405952   -1.658599907679   -2.207357406698
       -0.880304334092    1.666499572250   -2.202607768061
        0.880327409042    1.666382220233    2.202821718590
        0.877590518122   -1.658692693251    2.207329283259
        3.698998133834   -0.001941106684   -0.247662627766
        5.204844286284    0.013114911425    1.181211750962
        3.975088312339   -1.685630744803   -1.433747588737
        3.967498603714    1.663812759083   -1.460589831154
  Inertia tensor (amu*bohr**2)
   77.12783   -0.00000    0.00232
   -0.00000  532.19690   -0.00000
    0.00232   -0.00000  499.96942
    Inertia tensor:
       77.127826082791   -0.000003070934    0.002322945472
       -0.000003070934  532.196897533133   -0.000000690145
        0.002322945472   -0.000000690145  499.969423214550
    Principal axis orientation for molecular system: 
       -1.076948321088   -0.964953173405    0.002026024134
       -3.699025362879    0.247560136946   -0.001941087023
        1.076974419085    0.965051850846    0.002018976279
       -3.972188303497    1.440062773320   -1.681582387712
       -3.970693395582    1.454140559951    1.667895319912
       -5.204716832617   -1.181532273051    0.004862725107
       -0.877446290674   -2.207362262637   -1.658599854486
       -0.880292222468   -2.202612568426    1.666499625360
        0.880315318734    2.202826590457    1.666382167118
        0.877578380612    2.207334068883   -1.658692746444
        3.698999494338   -0.247642306788   -0.001941126342
        5.204837797126    1.181240344840    0.013114851004
        3.975096177417   -1.433725787053   -1.685630740924
        3.967506638858   -1.460567999436    1.663812763587
    Diagonalized inertia tensor:
       77.127826070030    0.000000000000    0.000000000000
        0.000000000000  499.969423227312    0.000000000000
        0.000000000000    0.000000000000  532.196897533132
    Eigenvectors of inertia tensor: 
        0.999999999985    0.000005493654   -0.000000006748
        0.000000006748    0.000000021415    1.000000000000
       -0.000005493654    0.999999999985   -0.000000021415
 factor:   60.1997200000000     
   Rotational constants (in cm-1): 
          0.1131155035             0.1204068033             0.7805188227
   Rotational constants (in MHz): 
       3391.1179568604          3609.7056579187         23399.3689148110
  @SYMMETRY-I, Handedness of inertial frame:-1.00000
  @SYMMETRY-I, Sense of inertial frame y-axis will be changed.
  @SYMMETRY-I, The symmetry group is 1-fold degenerate.
  @SYMMETRY-I, The molecule belongs to an Abelian group.
   Principal axis orientation for molecule:
       -1.076948321088    0.964953173405    0.002026024134
       -3.699025362879   -0.247560136946   -0.001941087023
        1.076974419085   -0.965051850846    0.002018976279
       -3.972188303497   -1.440062773320   -1.681582387712
       -3.970693395582   -1.454140559951    1.667895319912
       -5.204716832617    1.181532273051    0.004862725107
       -0.877446290674    2.207362262637   -1.658599854486
       -0.880292222468    2.202612568426    1.666499625360
        0.880315318734   -2.202826590457    1.666382167118
        0.877578380612   -2.207334068883   -1.658692746444
        3.698999494338    0.247642306788   -0.001941126342
        5.204837797126   -1.181240344840    0.013114851004
        3.975096177417    1.433725787053   -1.685630740924
        3.967506638858    1.460567999436    1.663812763587
  Symmetry bits:    0   0   0
********************************************************************************
   The full molecular point group is C1  .
   The largest Abelian subgroup of the full molecular point group is C1  .
   The computational point group is C1  .
********************************************************************************
 ----------------------------------------------------------------
 Z-matrix   Atomic            Coordinates (in bohr)
  Symbol    Number           X              Y              Z
 ----------------------------------------------------------------
     C         6        -1.07694832     0.96495317     0.00202602
     C         6        -3.69902536    -0.24756014    -0.00194109
     C         6         1.07697442    -0.96505185     0.00201898
     H         1        -3.97218830    -1.44006277    -1.68158239
     H         1        -3.97069340    -1.45414056     1.66789532
     H         1        -5.20471683     1.18153227     0.00486273
     H         1        -0.87744629     2.20736226    -1.65859985
     H         1        -0.88029222     2.20261257     1.66649963
     H         1         0.88031532    -2.20282659     1.66638217
     H         1         0.87757838    -2.20733407    -1.65869275
     C         6         3.69899949     0.24764231    -0.00194113
     H         1         5.20483780    -1.18124034     0.01311485
     H         1         3.97509618     1.43372579    -1.68563074
     H         1         3.96750664     1.46056800     1.66381276
 ----------------------------------------------------------------
   Interatomic distance matrix (Angstroms) 
 
                 C             C             C             H             H    
                [ 1]        [ 2]        [ 3]        [ 4]        [ 5]
  C    [ 1]     0.00000
  C    [ 2]     1.52872     0.00000
  C    [ 3]     1.53044     2.55571     0.00000
  H    [ 4]     2.18192     1.09960     2.82772     0.00000
  H    [ 5]     2.18191     1.09962     2.82470     1.77248     0.00000
  H    [ 6]     2.18733     1.09853     3.51285     1.77381     1.77375
  H    [ 7]     1.10255     2.16462     2.15873     2.53131     3.08744
  H    [ 8]     1.10254     2.16461     2.15833     3.08736     2.53356
  H    [ 9]     2.15835     2.77890     1.10253     3.14571     2.59744
  H    [10]     2.15873     2.77658     1.10254     2.59833     3.13687
  C    [11]     2.55567     3.92363     1.52873     4.25047     4.25020
  H    [12]     3.51284     4.73756     2.18737     4.94028     4.93592
  H    [13]     2.82954     4.25169     2.18194     4.47203     4.81294
  H    [14]     2.82274     4.24887     2.18188     4.81069     4.47493
 
                 H             H             H             H             H    
                [ 6]        [ 7]        [ 8]        [ 9]        [10]
  H    [ 6]     0.00000
  H    [ 7]     2.51260     0.00000
  H    [ 8]     2.51035     1.75957     0.00000
  H    [ 9]     3.78804     3.06717     2.51053     0.00000
  H    [10]     3.78819     2.51399     3.06716     1.75956     0.00000
  C    [11]     4.73749     2.77648     2.77884     2.16466     2.16460
  H    [12]     5.64862     3.78912     3.78696     2.50890     2.51418
  H    [13]     4.94123     2.60032     3.14862     3.08734     2.52970
  H    [14]     4.93469     3.13377     2.59522     2.53515     3.08743
 
                 C             H             H             H    
                [11]        [12]        [13]        [14]
  C    [11]     0.00000
  H    [12]     1.09853     0.00000
  H    [13]     1.09960     1.77381     0.00000
  H    [14]     1.09962     1.77373     1.77251     0.00000
  Inertia tensor (amu*bohr**2)
   77.12783    0.00000   -0.00000
    0.00000  499.96942    0.00000
   -0.00000    0.00000  532.19690
   Rotational constants (in cm-1): 
          0.7805188227             0.1204068033             0.1131155035
   Rotational constants (in MHz): 
      23399.3689148108          3609.7056579187          3391.1179568604
  @GTFLGS-W, Keyword #UNITS not known and is ignored.
  @GTFLGS-W, Keyword #GEOM not known and is ignored.
  @GTFLGS-W, Keyword #COORD not known and is ignored.
  @GTFLGS-W, Keyword #CC_PROG not known and is ignored.
  @GTFLGS-W, Keyword #DROPMO not known and is ignored.
  @GTFLGS-W, Keyword #CONTRACTION not known and is ignored.
  @GTFLGS-W, Keyword #EXCITE not known and is ignored.
  @GTFLGS-W, Keyword #ESTATE_CONV not known and is ignored.
  @GTFLGS-W, Keyword #ESTATE_SYM not known and is ignored.
  @GTFLGS-W, Keyword #SCF_DAMPING not known and is ignored.
  @GTFLGS-W, Keyword #OCCUPATION not known and is ignored.
  There are   4 frozen-core orbitals.
  There are  264 basis functions.
 @GEOPT-W, Archive file not created for single-point calculation.
  @CHECKOUT-I, Total execution time (CPU/WALL):        1.09/       4.84 seconds.
--executable xjoda finished with status     0 in       11.29 seconds (walltime).
 --invoking executable--
/home/nike/cfour_v2.00beta/cfour_v2.00beta/bin/xvmol
 Serial version of molecule started
********************************************************************************
                    Input from MOL file
********************************************************************************
INTGRL        1    0    1    0    0    0    0    0    0                         
         *** CFOUR Program System (Release V0.1) ***                            
TITLE                                                                           
   14    0            0.10E-08              0    0                              
   9999.00      3.00                                                            
          6.00000000    1    4    1    1    1    1                              
C #1  -1.076948321087716   0.964953173404818   0.002026024133622                
   11    5                                                                      
   13575.3496820000       2.224581435200000E-004  0.000000000000000E+000        
  0.000000000000000E+000  0.000000000000000E+000  0.000000000000000E+000        
   2035.23336800000       1.723273825200000E-003  0.000000000000000E+000        
  0.000000000000000E+000  0.000000000000000E+000  0.000000000000000E+000        
   463.225623590000       8.925571531400001E-003  0.000000000000000E+000        
  0.000000000000000E+000  0.000000000000000E+000  0.000000000000000E+000        
   131.200195980000       3.572798450200000E-002  0.000000000000000E+000        
  0.000000000000000E+000  0.000000000000000E+000  0.000000000000000E+000        
   42.8530158910000       0.110762599310000       0.000000000000000E+000        
  0.000000000000000E+000  0.000000000000000E+000  0.000000000000000E+000        
   15.5841857660000       0.242956276260000       0.000000000000000E+000        
  0.000000000000000E+000  0.000000000000000E+000  0.000000000000000E+000        
   6.20671385080000       0.000000000000000E+000  0.414402634480000             
  0.000000000000000E+000  0.000000000000000E+000  0.000000000000000E+000        
   2.57648965270000       0.000000000000000E+000  0.237449686550000             
  0.000000000000000E+000  0.000000000000000E+000  0.000000000000000E+000        
  0.576963394190000       0.000000000000000E+000  0.000000000000000E+000        
   1.00000000000000       0.000000000000000E+000  0.000000000000000E+000        
  0.229728313580000       0.000000000000000E+000  0.000000000000000E+000        
  0.000000000000000E+000   1.00000000000000       0.000000000000000E+000        
  9.516444002799999E-002  0.000000000000000E+000  0.000000000000000E+000        
  0.000000000000000E+000  0.000000000000000E+000   1.00000000000000             
    6    3                                                                      
   34.6972322440000       5.333365780500000E-003  0.000000000000000E+000        
  0.000000000000000E+000                                                        
   7.95826228260000       3.586410909200000E-002  0.000000000000000E+000        
  0.000000000000000E+000                                                        
   2.37808268830000       0.142158733290000       0.000000000000000E+000        
  0.000000000000000E+000                                                        
  0.814332081830000       0.342704718450000       0.000000000000000E+000        
  0.000000000000000E+000                                                        
  0.288875472530000       0.000000000000000E+000  0.464458224330000             
  0.000000000000000E+000                                                        
  0.100568236710000       0.000000000000000E+000  0.000000000000000E+000        
  0.249557898740000                                                             
    2    2                                                                      
   1.09700000000000        1.00000000000000       0.000000000000000E+000        
  0.318000000000000       0.000000000000000E+000   1.00000000000000             
    1    1                                                                      
  0.761000000000000        1.00000000000000                                     
          6.00000000    1    4    1    1    1    1                              
C #2  -3.699025362879362  -0.247560136945825  -0.001941087023083                
   11    5                                                                      
   13575.3496820000       2.224581435200000E-004  0.000000000000000E+000        
  0.000000000000000E+000  0.000000000000000E+000  0.000000000000000E+000        
   2035.23336800000       1.723273825200000E-003  0.000000000000000E+000        
  0.000000000000000E+000  0.000000000000000E+000  0.000000000000000E+000        
   463.225623590000       8.925571531400001E-003  0.000000000000000E+000        
  0.000000000000000E+000  0.000000000000000E+000  0.000000000000000E+000        
   131.200195980000       3.572798450200000E-002  0.000000000000000E+000        
  0.000000000000000E+000  0.000000000000000E+000  0.000000000000000E+000        
   42.8530158910000       0.110762599310000       0.000000000000000E+000        
  0.000000000000000E+000  0.000000000000000E+000  0.000000000000000E+000        
   15.5841857660000       0.242956276260000       0.000000000000000E+000        
  0.000000000000000E+000  0.000000000000000E+000  0.000000000000000E+000        
   6.20671385080000       0.000000000000000E+000  0.414402634480000             
  0.000000000000000E+000  0.000000000000000E+000  0.000000000000000E+000        
   2.57648965270000       0.000000000000000E+000  0.237449686550000             
  0.000000000000000E+000  0.000000000000000E+000  0.000000000000000E+000        
  0.576963394190000       0.000000000000000E+000  0.000000000000000E+000        
   1.00000000000000       0.000000000000000E+000  0.000000000000000E+000        
  0.229728313580000       0.000000000000000E+000  0.000000000000000E+000        
  0.000000000000000E+000   1.00000000000000       0.000000000000000E+000        
  9.516444002799999E-002  0.000000000000000E+000  0.000000000000000E+000        
  0.000000000000000E+000  0.000000000000000E+000   1.00000000000000             
    6    3                                                                      
   34.6972322440000       5.333365780500000E-003  0.000000000000000E+000        
  0.000000000000000E+000                                                        
   7.95826228260000       3.586410909200000E-002  0.000000000000000E+000        
  0.000000000000000E+000                                                        
   2.37808268830000       0.142158733290000       0.000000000000000E+000        
  0.000000000000000E+000                                                        
  0.814332081830000       0.342704718450000       0.000000000000000E+000        
  0.000000000000000E+000                                                        
  0.288875472530000       0.000000000000000E+000  0.464458224330000             
  0.000000000000000E+000                                                        
  0.100568236710000       0.000000000000000E+000  0.000000000000000E+000        
  0.249557898740000                                                             
    2    2                                                                      
   1.09700000000000        1.00000000000000       0.000000000000000E+000        
  0.318000000000000       0.000000000000000E+000   1.00000000000000             
    1    1                                                                      
  0.761000000000000        1.00000000000000                                     
          6.00000000    1    4    1    1    1    1                              
C #3   1.076974419085279  -0.965051850845987   0.002018976278573                
   11    5                                                                      
   13575.3496820000       2.224581435200000E-004  0.000000000000000E+000        
  0.000000000000000E+000  0.000000000000000E+000  0.000000000000000E+000        
   2035.23336800000       1.723273825200000E-003  0.000000000000000E+000        
  0.000000000000000E+000  0.000000000000000E+000  0.000000000000000E+000        
   463.225623590000       8.925571531400001E-003  0.000000000000000E+000        
  0.000000000000000E+000  0.000000000000000E+000  0.000000000000000E+000        
   131.200195980000       3.572798450200000E-002  0.000000000000000E+000        
  0.000000000000000E+000  0.000000000000000E+000  0.000000000000000E+000        
   42.8530158910000       0.110762599310000       0.000000000000000E+000        
  0.000000000000000E+000  0.000000000000000E+000  0.000000000000000E+000        
   15.5841857660000       0.242956276260000       0.000000000000000E+000        
  0.000000000000000E+000  0.000000000000000E+000  0.000000000000000E+000        
   6.20671385080000       0.000000000000000E+000  0.414402634480000             
  0.000000000000000E+000  0.000000000000000E+000  0.000000000000000E+000        
   2.57648965270000       0.000000000000000E+000  0.237449686550000             
  0.000000000000000E+000  0.000000000000000E+000  0.000000000000000E+000        
  0.576963394190000       0.000000000000000E+000  0.000000000000000E+000        
   1.00000000000000       0.000000000000000E+000  0.000000000000000E+000        
  0.229728313580000       0.000000000000000E+000  0.000000000000000E+000        
  0.000000000000000E+000   1.00000000000000       0.000000000000000E+000        
  9.516444002799999E-002  0.000000000000000E+000  0.000000000000000E+000        
  0.000000000000000E+000  0.000000000000000E+000   1.00000000000000             
    6    3                                                                      
   34.6972322440000       5.333365780500000E-003  0.000000000000000E+000        
  0.000000000000000E+000                                                        
   7.95826228260000       3.586410909200000E-002  0.000000000000000E+000        
  0.000000000000000E+000                                                        
   2.37808268830000       0.142158733290000       0.000000000000000E+000        
  0.000000000000000E+000                                                        
  0.814332081830000       0.342704718450000       0.000000000000000E+000        
  0.000000000000000E+000                                                        
  0.288875472530000       0.000000000000000E+000  0.464458224330000             
  0.000000000000000E+000                                                        
  0.100568236710000       0.000000000000000E+000  0.000000000000000E+000        
  0.249557898740000                                                             
    2    2                                                                      
   1.09700000000000        1.00000000000000       0.000000000000000E+000        
  0.318000000000000       0.000000000000000E+000   1.00000000000000             
    1    1                                                                      
  0.761000000000000        1.00000000000000                                     
          1.00000000    1    3    1    1    1                                   
H #4  -3.972188303497470  -1.440062773319716  -1.681582387711561                
    5    3                                                                      
   34.0613410000000       6.025197800000000E-003  0.000000000000000E+000        
  0.000000000000000E+000                                                        
   5.12357460000000       4.502109400000000E-002  0.000000000000000E+000        
  0.000000000000000E+000                                                        
   1.16466260000000       0.201897260000000       0.000000000000000E+000        
  0.000000000000000E+000                                                        
  0.327230410000000       0.000000000000000E+000   1.00000000000000             
  0.000000000000000E+000                                                        
  0.103072410000000       0.000000000000000E+000  0.000000000000000E+000        
   1.00000000000000                                                             
    2    2                                                                      
   1.40700000000000        1.00000000000000       0.000000000000000E+000        
  0.388000000000000       0.000000000000000E+000   1.00000000000000             
    1    1                                                                      
   1.05700000000000        1.00000000000000                                     
          1.00000000    1    3    1    1    1                                   
H #5  -3.970693395581858  -1.454140559950800   1.667895319912458                
    5    3                                                                      
   34.0613410000000       6.025197800000000E-003  0.000000000000000E+000        
  0.000000000000000E+000                                                        
   5.12357460000000       4.502109400000000E-002  0.000000000000000E+000        
  0.000000000000000E+000                                                        
   1.16466260000000       0.201897260000000       0.000000000000000E+000        
  0.000000000000000E+000                                                        
  0.327230410000000       0.000000000000000E+000   1.00000000000000             
  0.000000000000000E+000                                                        
  0.103072410000000       0.000000000000000E+000  0.000000000000000E+000        
   1.00000000000000                                                             
    2    2                                                                      
   1.40700000000000        1.00000000000000       0.000000000000000E+000        
  0.388000000000000       0.000000000000000E+000   1.00000000000000             
    1    1                                                                      
   1.05700000000000        1.00000000000000                                     
          1.00000000    1    3    1    1    1                                   
H #6  -5.204716832616803   1.181532273050725   0.004862725107209                
    5    3                                                                      
   34.0613410000000       6.025197800000000E-003  0.000000000000000E+000        
  0.000000000000000E+000                                                        
   5.12357460000000       4.502109400000000E-002  0.000000000000000E+000        
  0.000000000000000E+000                                                        
   1.16466260000000       0.201897260000000       0.000000000000000E+000        
  0.000000000000000E+000                                                        
  0.327230410000000       0.000000000000000E+000   1.00000000000000             
  0.000000000000000E+000                                                        
  0.103072410000000       0.000000000000000E+000  0.000000000000000E+000        
   1.00000000000000                                                             
    2    2                                                                      
   1.40700000000000        1.00000000000000       0.000000000000000E+000        
  0.388000000000000       0.000000000000000E+000   1.00000000000000             
    1    1                                                                      
   1.05700000000000        1.00000000000000                                     
          1.00000000    1    3    1    1    1                                   
H #7  -0.877446290673674   2.207362262636740  -1.658599854485906                
    5    3                                                                      
   34.0613410000000       6.025197800000000E-003  0.000000000000000E+000        
  0.000000000000000E+000                                                        
   5.12357460000000       4.502109400000000E-002  0.000000000000000E+000        
  0.000000000000000E+000                                                        
   1.16466260000000       0.201897260000000       0.000000000000000E+000        
  0.000000000000000E+000                                                        
  0.327230410000000       0.000000000000000E+000   1.00000000000000             
  0.000000000000000E+000                                                        
  0.103072410000000       0.000000000000000E+000  0.000000000000000E+000        
   1.00000000000000                                                             
    2    2                                                                      
   1.40700000000000        1.00000000000000       0.000000000000000E+000        
  0.388000000000000       0.000000000000000E+000   1.00000000000000             
    1    1                                                                      
   1.05700000000000        1.00000000000000                                     
          1.00000000    1    3    1    1    1                                   
H #8  -0.880292222467954   2.202612568426255   1.666499625359948                
    5    3                                                                      
   34.0613410000000       6.025197800000000E-003  0.000000000000000E+000        
  0.000000000000000E+000                                                        
   5.12357460000000       4.502109400000000E-002  0.000000000000000E+000        
  0.000000000000000E+000                                                        
   1.16466260000000       0.201897260000000       0.000000000000000E+000        
  0.000000000000000E+000                                                        
  0.327230410000000       0.000000000000000E+000   1.00000000000000             
  0.000000000000000E+000                                                        
  0.103072410000000       0.000000000000000E+000  0.000000000000000E+000        
   1.00000000000000                                                             
    2    2                                                                      
   1.40700000000000        1.00000000000000       0.000000000000000E+000        
  0.388000000000000       0.000000000000000E+000   1.00000000000000             
    1    1                                                                      
   1.05700000000000        1.00000000000000                                     
          1.00000000    1    3    1    1    1                                   
H #9   0.880315318733707  -2.202826590456663   1.666382167118087                
    5    3                                                                      
   34.0613410000000       6.025197800000000E-003  0.000000000000000E+000        
  0.000000000000000E+000                                                        
   5.12357460000000       4.502109400000000E-002  0.000000000000000E+000        
  0.000000000000000E+000                                                        
   1.16466260000000       0.201897260000000       0.000000000000000E+000        
  0.000000000000000E+000                                                        
  0.327230410000000       0.000000000000000E+000   1.00000000000000             
  0.000000000000000E+000                                                        
  0.103072410000000       0.000000000000000E+000  0.000000000000000E+000        
   1.00000000000000                                                             
    2    2                                                                      
   1.40700000000000        1.00000000000000       0.000000000000000E+000        
  0.388000000000000       0.000000000000000E+000   1.00000000000000             
    1    1                                                                      
   1.05700000000000        1.00000000000000                                     
          1.00000000    1    3    1    1    1                                   
H #0   0.877578380612355  -2.207334068883283  -1.658692746443569                
    5    3                                                                      
   34.0613410000000       6.025197800000000E-003  0.000000000000000E+000        
  0.000000000000000E+000                                                        
   5.12357460000000       4.502109400000000E-002  0.000000000000000E+000        
  0.000000000000000E+000                                                        
   1.16466260000000       0.201897260000000       0.000000000000000E+000        
  0.000000000000000E+000                                                        
  0.327230410000000       0.000000000000000E+000   1.00000000000000             
  0.000000000000000E+000                                                        
  0.103072410000000       0.000000000000000E+000  0.000000000000000E+000        
   1.00000000000000                                                             
    2    2                                                                      
   1.40700000000000        1.00000000000000       0.000000000000000E+000        
  0.388000000000000       0.000000000000000E+000   1.00000000000000             
    1    1                                                                      
   1.05700000000000        1.00000000000000                                     
          6.00000000    1    4    1    1    1    1                              
C #A   3.698999494337621   0.247642306787937  -0.001941126342047                
   11    5                                                                      
   13575.3496820000       2.224581435200000E-004  0.000000000000000E+000        
  0.000000000000000E+000  0.000000000000000E+000  0.000000000000000E+000        
   2035.23336800000       1.723273825200000E-003  0.000000000000000E+000        
  0.000000000000000E+000  0.000000000000000E+000  0.000000000000000E+000        
   463.225623590000       8.925571531400001E-003  0.000000000000000E+000        
  0.000000000000000E+000  0.000000000000000E+000  0.000000000000000E+000        
   131.200195980000       3.572798450200000E-002  0.000000000000000E+000        
  0.000000000000000E+000  0.000000000000000E+000  0.000000000000000E+000        
   42.8530158910000       0.110762599310000       0.000000000000000E+000        
  0.000000000000000E+000  0.000000000000000E+000  0.000000000000000E+000        
   15.5841857660000       0.242956276260000       0.000000000000000E+000        
  0.000000000000000E+000  0.000000000000000E+000  0.000000000000000E+000        
   6.20671385080000       0.000000000000000E+000  0.414402634480000             
  0.000000000000000E+000  0.000000000000000E+000  0.000000000000000E+000        
   2.57648965270000       0.000000000000000E+000  0.237449686550000             
  0.000000000000000E+000  0.000000000000000E+000  0.000000000000000E+000        
  0.576963394190000       0.000000000000000E+000  0.000000000000000E+000        
   1.00000000000000       0.000000000000000E+000  0.000000000000000E+000        
  0.229728313580000       0.000000000000000E+000  0.000000000000000E+000        
  0.000000000000000E+000   1.00000000000000       0.000000000000000E+000        
  9.516444002799999E-002  0.000000000000000E+000  0.000000000000000E+000        
  0.000000000000000E+000  0.000000000000000E+000   1.00000000000000             
    6    3                                                                      
   34.6972322440000       5.333365780500000E-003  0.000000000000000E+000        
  0.000000000000000E+000                                                        
   7.95826228260000       3.586410909200000E-002  0.000000000000000E+000        
  0.000000000000000E+000                                                        
   2.37808268830000       0.142158733290000       0.000000000000000E+000        
  0.000000000000000E+000                                                        
  0.814332081830000       0.342704718450000       0.000000000000000E+000        
  0.000000000000000E+000                                                        
  0.288875472530000       0.000000000000000E+000  0.464458224330000             
  0.000000000000000E+000                                                        
  0.100568236710000       0.000000000000000E+000  0.000000000000000E+000        
  0.249557898740000                                                             
    2    2                                                                      
   1.09700000000000        1.00000000000000       0.000000000000000E+000        
  0.318000000000000       0.000000000000000E+000   1.00000000000000             
    1    1                                                                      
  0.761000000000000        1.00000000000000                                     
          1.00000000    1    3    1    1    1                                   
H #B   5.204837797125582  -1.181240344839599   0.013114851004290                
    5    3                                                                      
   34.0613410000000       6.025197800000000E-003  0.000000000000000E+000        
  0.000000000000000E+000                                                        
   5.12357460000000       4.502109400000000E-002  0.000000000000000E+000        
  0.000000000000000E+000                                                        
   1.16466260000000       0.201897260000000       0.000000000000000E+000        
  0.000000000000000E+000                                                        
  0.327230410000000       0.000000000000000E+000   1.00000000000000             
  0.000000000000000E+000                                                        
  0.103072410000000       0.000000000000000E+000  0.000000000000000E+000        
   1.00000000000000                                                             
    2    2                                                                      
   1.40700000000000        1.00000000000000       0.000000000000000E+000        
  0.388000000000000       0.000000000000000E+000   1.00000000000000             
    1    1                                                                      
   1.05700000000000        1.00000000000000                                     
          1.00000000    1    3    1    1    1                                   
H #C   3.975096177417421   1.433725787053377  -1.685630740924132                
    5    3                                                                      
   34.0613410000000       6.025197800000000E-003  0.000000000000000E+000        
  0.000000000000000E+000                                                        
   5.12357460000000       4.502109400000000E-002  0.000000000000000E+000        
  0.000000000000000E+000                                                        
   1.16466260000000       0.201897260000000       0.000000000000000E+000        
  0.000000000000000E+000                                                        
  0.327230410000000       0.000000000000000E+000   1.00000000000000             
  0.000000000000000E+000                                                        
  0.103072410000000       0.000000000000000E+000  0.000000000000000E+000        
   1.00000000000000                                                             
    2    2                                                                      
   1.40700000000000        1.00000000000000       0.000000000000000E+000        
  0.388000000000000       0.000000000000000E+000   1.00000000000000             
    1    1                                                                      
   1.05700000000000        1.00000000000000                                     
          1.00000000    1    3    1    1    1                                   
H #D   3.967506638857528   1.460567999436336   1.663812763587481                
    5    3                                                                      
   34.0613410000000       6.025197800000000E-003  0.000000000000000E+000        
  0.000000000000000E+000                                                        
   5.12357460000000       4.502109400000000E-002  0.000000000000000E+000        
  0.000000000000000E+000                                                        
   1.16466260000000       0.201897260000000       0.000000000000000E+000        
  0.000000000000000E+000                                                        
  0.327230410000000       0.000000000000000E+000   1.00000000000000             
  0.000000000000000E+000                                                        
  0.103072410000000       0.000000000000000E+000  0.000000000000000E+000        
   1.00000000000000                                                             
    2    2                                                                      
   1.40700000000000        1.00000000000000       0.000000000000000E+000        
  0.388000000000000       0.000000000000000E+000   1.00000000000000             
    1    1                                                                      
   1.05700000000000        1.00000000000000                                     
FINISH                                                                          
 
********************************************************************************
 One- and two-electron integrals over symmetry-adapted AOs are calculated.

  Spherical harmonics are used.
  
  14 types of atoms
   0 symmetry operations

  
  Integrals less than  0.10E-13 are neglected.

  Atomic type number  1 :
  -----------------------

    Nuclear charge:                        6
    number of symmetry independent atoms:  1
    highest orbital type:                  f

      1 groups of CGTOs of s type
      1 groups of CGTOs of p type
      1 groups of CGTOs of d type
      1 groups of CGTOs of f type

    nuclear coordinates (in a.u.) are :

    C #1       -1.076948321087716        0.964953173404818        0.002026024133622
  
   Basis function not normalized: 
   Center (as ordered in MOL file):   1
   Angular Momentum type          : s
   Offset within angular momentum :  1
   <chi|chi>                      :    2.7261534527
   Basis function not normalized: 
   Center (as ordered in MOL file):   1
   Angular Momentum type          : s
   Offset within angular momentum :  2
   <chi|chi>                      :    1.5828883092
   Basis function not normalized: 
   Center (as ordered in MOL file):   1
   Angular Momentum type          : p
   Offset within angular momentum :  1
   <chi|chi>                      :    2.1238408295
   Basis function not normalized: 
   Center (as ordered in MOL file):   1
   Angular Momentum type          : p
   Offset within angular momentum :  2
   <chi|chi>                      :    2.1530461678
   Basis function not normalized: 
   Center (as ordered in MOL file):   1
   Angular Momentum type          : p
   Offset within angular momentum :  3
   <chi|chi>                      :    4.0070861513
  Atomic type number  2 :
  -----------------------

    Nuclear charge:                        6
    number of symmetry independent atoms:  1
    highest orbital type:                  f

      1 groups of CGTOs of s type
      1 groups of CGTOs of p type
      1 groups of CGTOs of d type
      1 groups of CGTOs of f type

    nuclear coordinates (in a.u.) are :

    C #2       -3.699025362879362       -0.247560136945825       -0.001941087023083
  
   Basis function not normalized: 
   Center (as ordered in MOL file):   2
   Angular Momentum type          : s
   Offset within angular momentum :  1
   <chi|chi>                      :    2.7261534527
   Basis function not normalized: 
   Center (as ordered in MOL file):   2
   Angular Momentum type          : s
   Offset within angular momentum :  2
   <chi|chi>                      :    1.5828883092
   Basis function not normalized: 
   Center (as ordered in MOL file):   2
   Angular Momentum type          : p
   Offset within angular momentum :  1
   <chi|chi>                      :    2.1238408295
   Basis function not normalized: 
   Center (as ordered in MOL file):   2
   Angular Momentum type          : p
   Offset within angular momentum :  2
   <chi|chi>                      :    2.1530461678
   Basis function not normalized: 
   Center (as ordered in MOL file):   2
   Angular Momentum type          : p
   Offset within angular momentum :  3
   <chi|chi>                      :    4.0070861513
  Atomic type number  3 :
  -----------------------

    Nuclear charge:                        6
    number of symmetry independent atoms:  1
    highest orbital type:                  f

      1 groups of CGTOs of s type
      1 groups of CGTOs of p type
      1 groups of CGTOs of d type
      1 groups of CGTOs of f type

    nuclear coordinates (in a.u.) are :

    C #3        1.076974419085279       -0.965051850845987        0.002018976278573
  
   Basis function not normalized: 
   Center (as ordered in MOL file):   3
   Angular Momentum type          : s
   Offset within angular momentum :  1
   <chi|chi>                      :    2.7261534527
   Basis function not normalized: 
   Center (as ordered in MOL file):   3
   Angular Momentum type          : s
   Offset within angular momentum :  2
   <chi|chi>                      :    1.5828883092
   Basis function not normalized: 
   Center (as ordered in MOL file):   3
   Angular Momentum type          : p
   Offset within angular momentum :  1
   <chi|chi>                      :    2.1238408295
   Basis function not normalized: 
   Center (as ordered in MOL file):   3
   Angular Momentum type          : p
   Offset within angular momentum :  2
   <chi|chi>                      :    2.1530461678
   Basis function not normalized: 
   Center (as ordered in MOL file):   3
   Angular Momentum type          : p
   Offset within angular momentum :  3
   <chi|chi>                      :    4.0070861513
  Atomic type number  4 :
  -----------------------

    Nuclear charge:                        1
    number of symmetry independent atoms:  1
    highest orbital type:                  d

      1 groups of CGTOs of s type
      1 groups of CGTOs of p type
      1 groups of CGTOs of d type

    nuclear coordinates (in a.u.) are :

    H #4       -3.972188303497470       -1.440062773319716       -1.681582387711561
  
   Basis function not normalized: 
   Center (as ordered in MOL file):   4
   Angular Momentum type          : s
   Offset within angular momentum :  1
   <chi|chi>                      :    4.2221530402
  Atomic type number  5 :
  -----------------------

    Nuclear charge:                        1
    number of symmetry independent atoms:  1
    highest orbital type:                  d

      1 groups of CGTOs of s type
      1 groups of CGTOs of p type
      1 groups of CGTOs of d type

    nuclear coordinates (in a.u.) are :

    H #5       -3.970693395581858       -1.454140559950800        1.667895319912458
  
   Basis function not normalized: 
   Center (as ordered in MOL file):   5
   Angular Momentum type          : s
   Offset within angular momentum :  1
   <chi|chi>                      :    4.2221530402
  Atomic type number  6 :
  -----------------------

    Nuclear charge:                        1
    number of symmetry independent atoms:  1
    highest orbital type:                  d

      1 groups of CGTOs of s type
      1 groups of CGTOs of p type
      1 groups of CGTOs of d type

    nuclear coordinates (in a.u.) are :

    H #6       -5.204716832616803        1.181532273050725        0.004862725107209
  
   Basis function not normalized: 
   Center (as ordered in MOL file):   6
   Angular Momentum type          : s
   Offset within angular momentum :  1
   <chi|chi>                      :    4.2221530402
  Atomic type number  7 :
  -----------------------

    Nuclear charge:                        1
    number of symmetry independent atoms:  1
    highest orbital type:                  d

      1 groups of CGTOs of s type
      1 groups of CGTOs of p type
      1 groups of CGTOs of d type

    nuclear coordinates (in a.u.) are :

    H #7       -0.877446290673674        2.207362262636740       -1.658599854485906
  
   Basis function not normalized: 
   Center (as ordered in MOL file):   7
   Angular Momentum type          : s
   Offset within angular momentum :  1
   <chi|chi>                      :    4.2221530402
  Atomic type number  8 :
  -----------------------

    Nuclear charge:                        1
    number of symmetry independent atoms:  1
    highest orbital type:                  d

      1 groups of CGTOs of s type
      1 groups of CGTOs of p type
      1 groups of CGTOs of d type

    nuclear coordinates (in a.u.) are :

    H #8       -0.880292222467954        2.202612568426255        1.666499625359948
  
   Basis function not normalized: 
   Center (as ordered in MOL file):   8
   Angular Momentum type          : s
   Offset within angular momentum :  1
   <chi|chi>                      :    4.2221530402
  Atomic type number  9 :
  -----------------------

    Nuclear charge:                        1
    number of symmetry independent atoms:  1
    highest orbital type:                  d

      1 groups of CGTOs of s type
      1 groups of CGTOs of p type
      1 groups of CGTOs of d type

    nuclear coordinates (in a.u.) are :

    H #9        0.880315318733707       -2.202826590456663        1.666382167118087
  
   Basis function not normalized: 
   Center (as ordered in MOL file):   9
   Angular Momentum type          : s
   Offset within angular momentum :  1
   <chi|chi>                      :    4.2221530402
  Atomic type number 10 :
  -----------------------

    Nuclear charge:                        1
    number of symmetry independent atoms:  1
    highest orbital type:                  d

      1 groups of CGTOs of s type
      1 groups of CGTOs of p type
      1 groups of CGTOs of d type

    nuclear coordinates (in a.u.) are :

    H #0        0.877578380612355       -2.207334068883283       -1.658692746443569
  
   Basis function not normalized: 
   Center (as ordered in MOL file):  10
   Angular Momentum type          : s
   Offset within angular momentum :  1
   <chi|chi>                      :    4.2221530402
  Atomic type number 11 :
  -----------------------

    Nuclear charge:                        6
    number of symmetry independent atoms:  1
    highest orbital type:                  f

      1 groups of CGTOs of s type
      1 groups of CGTOs of p type
      1 groups of CGTOs of d type
      1 groups of CGTOs of f type

    nuclear coordinates (in a.u.) are :

    C #A        3.698999494337621        0.247642306787937       -0.001941126342047
  
   Basis function not normalized: 
   Center (as ordered in MOL file):  11
   Angular Momentum type          : s
   Offset within angular momentum :  1
   <chi|chi>                      :    2.7261534527
   Basis function not normalized: 
   Center (as ordered in MOL file):  11
   Angular Momentum type          : s
   Offset within angular momentum :  2
   <chi|chi>                      :    1.5828883092
   Basis function not normalized: 
   Center (as ordered in MOL file):  11
   Angular Momentum type          : p
   Offset within angular momentum :  1
   <chi|chi>                      :    2.1238408295
   Basis function not normalized: 
   Center (as ordered in MOL file):  11
   Angular Momentum type          : p
   Offset within angular momentum :  2
   <chi|chi>                      :    2.1530461678
   Basis function not normalized: 
   Center (as ordered in MOL file):  11
   Angular Momentum type          : p
   Offset within angular momentum :  3
   <chi|chi>                      :    4.0070861513
  Atomic type number 12 :
  -----------------------

    Nuclear charge:                        1
    number of symmetry independent atoms:  1
    highest orbital type:                  d

      1 groups of CGTOs of s type
      1 groups of CGTOs of p type
      1 groups of CGTOs of d type

    nuclear coordinates (in a.u.) are :

    H #B        5.204837797125582       -1.181240344839599        0.013114851004290
  
   Basis function not normalized: 
   Center (as ordered in MOL file):  12
   Angular Momentum type          : s
   Offset within angular momentum :  1
   <chi|chi>                      :    4.2221530402
  Atomic type number 13 :
  -----------------------

    Nuclear charge:                        1
    number of symmetry independent atoms:  1
    highest orbital type:                  d

      1 groups of CGTOs of s type
      1 groups of CGTOs of p type
      1 groups of CGTOs of d type

    nuclear coordinates (in a.u.) are :

    H #C        3.975096177417421        1.433725787053377       -1.685630740924132
  
   Basis function not normalized: 
   Center (as ordered in MOL file):  13
   Angular Momentum type          : s
   Offset within angular momentum :  1
   <chi|chi>                      :    4.2221530402
  Atomic type number 14 :
  -----------------------

    Nuclear charge:                        1
    number of symmetry independent atoms:  1
    highest orbital type:                  d

      1 groups of CGTOs of s type
      1 groups of CGTOs of p type
      1 groups of CGTOs of d type

    nuclear coordinates (in a.u.) are :

    H #D        3.967506638857528        1.460567999436336        1.663812763587481
  
   Basis function not normalized: 
   Center (as ordered in MOL file):  14
   Angular Momentum type          : s
   Offset within angular momentum :  1
   <chi|chi>                      :    4.2221530402
   Internuclear distances (A) :

     for atom C #1 (coordinates :  -1.07695   0.96495   0.00203)

     C #2   1     distance is  1.529
     C #3   1     distance is  1.530
     H #4   1     distance is  2.182
     H #5   1     distance is  2.182
     H #6   1     distance is  2.187
     H #7   1     distance is  1.103
     H #8   1     distance is  1.103
     H #9   1     distance is  2.158
     H #0   1     distance is  2.159
     C #A   1     distance is  2.556
     H #B   1     distance is  3.513
     H #C   1     distance is  2.830
     H #D   1     distance is  2.823

     for atom C #2 (coordinates :  -3.69903  -0.24756  -0.00194)

     C #3   1     distance is  2.556
     H #4   1     distance is  1.100
     H #5   1     distance is  1.100
     H #6   1     distance is  1.099
     H #7   1     distance is  2.165
     H #8   1     distance is  2.165
     H #9   1     distance is  2.779
     H #0   1     distance is  2.777
     C #A   1     distance is  3.924
     H #B   1     distance is  4.738
     H #C   1     distance is  4.252
     H #D   1     distance is  4.249

     for atom C #3 (coordinates :   1.07697  -0.96505   0.00202)

     H #4   1     distance is  2.828
     H #5   1     distance is  2.825
     H #6   1     distance is  3.513
     H #7   1     distance is  2.159
     H #8   1     distance is  2.158
     H #9   1     distance is  1.103
     H #0   1     distance is  1.103
     C #A   1     distance is  1.529
     H #B   1     distance is  2.187
     H #C   1     distance is  2.182
     H #D   1     distance is  2.182

     for atom H #4 (coordinates :  -3.97219  -1.44006  -1.68158)

     H #5   1     distance is  1.772
     H #6   1     distance is  1.774
     H #7   1     distance is  2.531
     H #8   1     distance is  3.087
     H #9   1     distance is  3.146
     H #0   1     distance is  2.598
     C #A   1     distance is  4.250
     H #B   1     distance is  4.940
     H #C   1     distance is  4.472
     H #D   1     distance is  4.811

     for atom H #5 (coordinates :  -3.97069  -1.45414   1.66790)

     H #6   1     distance is  1.774
     H #7   1     distance is  3.087
     H #8   1     distance is  2.534
     H #9   1     distance is  2.597
     H #0   1     distance is  3.137
     C #A   1     distance is  4.250
     H #B   1     distance is  4.936
     H #C   1     distance is  4.813
     H #D   1     distance is  4.475

     for atom H #6 (coordinates :  -5.20472   1.18153   0.00486)

     H #7   1     distance is  2.513
     H #8   1     distance is  2.510
     H #9   1     distance is  3.788
     H #0   1     distance is  3.788
     C #A   1     distance is  4.737
     H #B   1     distance is  5.649
     H #C   1     distance is  4.941
     H #D   1     distance is  4.935

     for atom H #7 (coordinates :  -0.87745   2.20736  -1.65860)

     H #8   1     distance is  1.760
     H #9   1     distance is  3.067
     H #0   1     distance is  2.514
     C #A   1     distance is  2.776
     H #B   1     distance is  3.789
     H #C   1     distance is  2.600
     H #D   1     distance is  3.134

     for atom H #8 (coordinates :  -0.88029   2.20261   1.66650)

     H #9   1     distance is  2.511
     H #0   1     distance is  3.067
     C #A   1     distance is  2.779
     H #B   1     distance is  3.787
     H #C   1     distance is  3.149
     H #D   1     distance is  2.595

     for atom H #9 (coordinates :   0.88032  -2.20283   1.66638)

     H #0   1     distance is  1.760
     C #A   1     distance is  2.165
     H #B   1     distance is  2.509
     H #C   1     distance is  3.087
     H #D   1     distance is  2.535

     for atom H #0 (coordinates :   0.87758  -2.20733  -1.65869)

     C #A   1     distance is  2.165
     H #B   1     distance is  2.514
     H #C   1     distance is  2.530
     H #D   1     distance is  3.087

     for atom C #A (coordinates :   3.69900   0.24764  -0.00194)

     H #B   1     distance is  1.099
     H #C   1     distance is  1.100
     H #D   1     distance is  1.100

     for atom H #B (coordinates :   5.20484  -1.18124   0.01311)

     H #C   1     distance is  1.774
     H #D   1     distance is  1.774

     for atom H #C (coordinates :   3.97510   1.43373  -1.68563)

     H #D   1     distance is  1.773

     for atom H #D (coordinates :   3.96751   1.46057   1.66381)


   Group multiplication table :

         1

   Gaussian basis information :

   atom                 exponent      coefficients

 C #1  1    S   
+                 1   13575.349682   0.0002225   0.0000000   0.0000000   0.0000000   0.0000000
                  2    2035.233368   0.0017233   0.0000000   0.0000000   0.0000000   0.0000000
                  3     463.225624   0.0089256   0.0000000   0.0000000   0.0000000   0.0000000
                  4     131.200196   0.0357280   0.0000000   0.0000000   0.0000000   0.0000000
                  5      42.853016   0.1107626   0.0000000   0.0000000   0.0000000   0.0000000
                  6      15.584186   0.2429563   0.0000000   0.0000000   0.0000000   0.0000000
                  7       6.206714   0.0000000   0.4144026   0.0000000   0.0000000   0.0000000
                  8       2.576490   0.0000000   0.2374497   0.0000000   0.0000000   0.0000000
                  9       0.576963   0.0000000   0.0000000   1.0000000   0.0000000   0.0000000
                 10       0.229728   0.0000000   0.0000000   0.0000000   1.0000000   0.0000000
                 11       0.095164   0.0000000   0.0000000   0.0000000   0.0000000   1.0000000

 C #1  1    X   
+                12      34.697232   0.0053334   0.0000000   0.0000000
                 13       7.958262   0.0358641   0.0000000   0.0000000
                 14       2.378083   0.1421587   0.0000000   0.0000000
                 15       0.814332   0.3427047   0.0000000   0.0000000
                 16       0.288875   0.0000000   0.4644582   0.0000000
                 17       0.100568   0.0000000   0.0000000   0.2495579

 C #1  1    Y   
+                18      34.697232   0.0053334   0.0000000   0.0000000
                 19       7.958262   0.0358641   0.0000000   0.0000000
                 20       2.378083   0.1421587   0.0000000   0.0000000
                 21       0.814332   0.3427047   0.0000000   0.0000000
                 22       0.288875   0.0000000   0.4644582   0.0000000
                 23       0.100568   0.0000000   0.0000000   0.2495579

 C #1  1    Z   
+                24      34.697232   0.0053334   0.0000000   0.0000000
                 25       7.958262   0.0358641   0.0000000   0.0000000
                 26       2.378083   0.1421587   0.0000000   0.0000000
                 27       0.814332   0.3427047   0.0000000   0.0000000
                 28       0.288875   0.0000000   0.4644582   0.0000000
                 29       0.100568   0.0000000   0.0000000   0.2495579

 C #1  1    XX  
+                30       1.097000   1.0000000   0.0000000
                 31       0.318000   0.0000000   1.0000000

 C #1  1    XY  
+                32       1.097000   1.0000000   0.0000000
                 33       0.318000   0.0000000   1.0000000

 C #1  1    XZ  
+                34       1.097000   1.0000000   0.0000000
                 35       0.318000   0.0000000   1.0000000

 C #1  1    YY  
+                36       1.097000   1.0000000   0.0000000
                 37       0.318000   0.0000000   1.0000000

 C #1  1    YZ  
+                38       1.097000   1.0000000   0.0000000
                 39       0.318000   0.0000000   1.0000000

 C #1  1    ZZ  
+                40       1.097000   1.0000000   0.0000000
                 41       0.318000   0.0000000   1.0000000

[...]
        T2        AA    0.0000000000 0.0000000180   11    5   38   14
        T2        AB    0.0000000000-0.0000000619    7    7   15   15
    -------------------------------------------------------------------
   The AA contribution to the correlation energy is:   -0.0717070 a.u.
   The AB contribution to the correlation energy is:   -0.6254335 a.u.
   The total correlation energy is -0.768847627558 a.u.
   The total correlation energy is -0.768847627558 a.u.
  Current DIIS expansion coefficients : 
 [   1] 0.0038509138 [   2] 0.0020061761 [   3]-0.0985292106 [   4]-0.0690721069
 [   5] 1.1617442277
  Convergence information after    10 iterations: 
  Largest element of residual vector : -0.61111445E-06.
  Largest element of DIIS residual   : -0.36243499E-06.
   Largest T1 amplitudes for spin case AA:
   i       a                 i       a                 i       a    
-----------------------------------------------------------------------------
[  6      30    ] 0.00893 [  7      31    ] 0.00879 [  5      32    ]-0.00807
[  8      28    ] 0.00804 [ 10      45    ]-0.00798 [  5      38    ] 0.00783
[  8      43    ]-0.00776 [ 10      22    ] 0.00698 [  9      40    ] 0.00601
[  9      21    ] 0.00588 [ 12      48    ]-0.00583 [  6      44    ]-0.00545
[  7      37    ] 0.00481 [  8      23    ]-0.00476 [ 11      18    ]-0.00457
-----------------------------------------------------------------------------
   Norm of T1AA vector (     3211 symmetry allowed elements):  0.0415907248.
-----------------------------------------------------------------------------
   Largest T2 amplitudes for spin case AB:
       _       _                 _       _                 _       _
   i   j   a   b             i   j   a   b             i   j   a   b
-----------------------------------------------------------------------------
[ 11  11  46  46]-0.01676 [ 13  13  47  47]-0.01603 [ 12  12  38  38]-0.01231
[ 12  12  32  32]-0.01220 [ 11  11  37  37]-0.01084 [ 10  10  45  45]-0.01064
[ 13  13  41  41]-0.01063 [  5   5  38  38]-0.01053 [  8   8  45  45]-0.01046
[  6   6  47  47]-0.01024 [  6   6  44  44]-0.01001 [  7   7  41  41]-0.01001
[ 13  13  33  33]-0.00982 [ 11  11  31  31]-0.00965 [  7   7  46  46]-0.00964
-----------------------------------------------------------------------------
   Norm of T2AB vector ( 10310521 symmetry allowed elements):  0.4726557190.
-----------------------------------------------------------------------------
  W(mnij) AB contribution =  0.1256667386 a.u.
  W(abef) AB contribution =  0.1871468198 a.u.
  W(mbej) AB contribution = -0.4295252819 a.u.
   After  11 iterations, amplitude changes are:
    -------------------------------------------------------------------
                 Spin      RMS          Max.      Max. change for
     Amplitude   Case     Change       Change       i    j    a    b
    -------------------------------------------------------------------
        T1        AA    0.0000000001-0.0000002373   11        14
        T2        AA    0.0000000000 0.0000000071   11    4   42   14
        T2        AB    0.0000000000-0.0000000176   12   12   14   14
    -------------------------------------------------------------------
   The AA contribution to the correlation energy is:   -0.0717070 a.u.
   The AB contribution to the correlation energy is:   -0.6254337 a.u.
   The total correlation energy is -0.768847722320 a.u.
   The total correlation energy is -0.768847722320 a.u.
  Current DIIS expansion coefficients : 
 [   1] 1.1215988963 [   2] 0.0027218217 [   3]-0.0008129696 [   4]-0.0679781024
 [   5]-0.0555296461
  Convergence information after    11 iterations: 
  Largest element of residual vector : -0.23728807E-06.
  Largest element of DIIS residual   : -0.14382489E-06.
  W(mnij) AB contribution =  0.1256668099 a.u.
  W(abef) AB contribution =  0.1871468964 a.u.
  W(mbej) AB contribution = -0.4295255506 a.u.
   After  12 iterations, amplitude changes are:
    -------------------------------------------------------------------
                 Spin      RMS          Max.      Max. change for
     Amplitude   Case     Change       Change       i    j    a    b
    -------------------------------------------------------------------
        T1        AA    0.0000000000-0.0000000727   11        14
        T2        AA    0.0000000000 0.0000000032   11    4   42   14
        T2        AB    0.0000000000-0.0000000068   13    6   15   15
    -------------------------------------------------------------------
   The AA contribution to the correlation energy is:   -0.0717070 a.u.
   The AB contribution to the correlation energy is:   -0.6254337 a.u.
   The total correlation energy is -0.768847754451 a.u.
   The total correlation energy is -0.768847754451 a.u.
  Current DIIS expansion coefficients : 
 [   1]-0.0942948687 [   2] 1.1859017028 [   3] 0.0057035245 [   4] 0.0143851137
 [   5]-0.1116954722
  Convergence information after    12 iterations: 
  Largest element of residual vector : -0.72703018E-07.
  Largest element of DIIS residual   : -0.42650195E-07.
  W(mnij) AB contribution =  0.1256668329 a.u.
  W(abef) AB contribution =  0.1871469236 a.u.
  W(mbej) AB contribution = -0.4295256434 a.u.
   After  13 iterations, amplitude changes are:
    -------------------------------------------------------------------
                 Spin      RMS          Max.      Max. change for
     Amplitude   Case     Change       Change       i    j    a    b
    -------------------------------------------------------------------
        T1        AA    0.0000000000-0.0000000229   11        14
        T2        AA    0.0000000000 0.0000000011   13    9   47   14
        T2        AB    0.0000000000-0.0000000019   12   12   17   17
    -------------------------------------------------------------------
   The AA contribution to the correlation energy is:   -0.0717070 a.u.
   The AB contribution to the correlation energy is:   -0.6254337 a.u.
   The total correlation energy is -0.768847764232 a.u.
   The total correlation energy is -0.768847764232 a.u.
  Current DIIS expansion coefficients : 
 [   1]-0.1022235432 [   2]-0.0045113092 [   3] 1.0952282384 [   4] 0.0049782813
 [   5] 0.0065283328
  Convergence information after    13 iterations: 
  Largest element of residual vector : -0.22901242E-07.
  Largest element of DIIS residual   : -0.12970610E-07.
  W(mnij) AB contribution =  0.1256668363 a.u.
  W(abef) AB contribution =  0.1871469290 a.u.
  W(mbej) AB contribution = -0.4295256609 a.u.
   After  14 iterations, amplitude changes are:
    -------------------------------------------------------------------
                 Spin      RMS          Max.      Max. change for
     Amplitude   Case     Change       Change       i    j    a    b
    -------------------------------------------------------------------
        T1        AA    0.0000000000-0.0000000076   11        14
        T2        AA    0.0000000000 0.0000000003   11    4   42   14
        T2        AB    0.0000000000 0.0000000009   11   11   15   15
    -------------------------------------------------------------------
   The AA contribution to the correlation energy is:   -0.0717070 a.u.
   The AB contribution to the correlation energy is:   -0.6254337 a.u.
   The total correlation energy is -0.768847766160 a.u.
   The total correlation energy is -0.768847766160 a.u.
  Current DIIS expansion coefficients : 
 [   1] 0.0093908084 [   2]-0.0662438452 [   3]-0.0980864666 [   4] 1.1519961055
 [   5] 0.0029433980
  Convergence information after    14 iterations: 
  Largest element of residual vector : -0.76486667E-08.
  Largest element of DIIS residual   : -0.57758847E-08.
  W(mnij) AB contribution =  0.1256668364 a.u.
  W(abef) AB contribution =  0.1871469296 a.u.
  W(mbej) AB contribution = -0.4295256632 a.u.
   After  15 iterations, amplitude changes are:
    -------------------------------------------------------------------
                 Spin      RMS          Max.      Max. change for
     Amplitude   Case     Change       Change       i    j    a    b
    -------------------------------------------------------------------
        T1        AA    0.0000000000-0.0000000025   11        14
        T2        AA    0.0000000000 0.0000000001   12   11   32   16
        T2        AB    0.0000000000 0.0000000004   12   12   16   16
    -------------------------------------------------------------------
   The AA contribution to the correlation energy is:   -0.0717070 a.u.
   The AB contribution to the correlation energy is:   -0.6254337 a.u.
   The total correlation energy is -0.768847766502 a.u.
   The total correlation energy is -0.768847766502 a.u.
  Current DIIS expansion coefficients : 
 [   1] 0.0053822869 [   2] 0.0067168705 [   3]-0.1113755406 [   4]-0.0324948605
 [   5] 1.1317712437
  Convergence information after    15 iterations: 
  Largest element of residual vector : -0.25351047E-08.
  Largest element of DIIS residual   : -0.18354672E-08.
   Largest T1 amplitudes for spin case AA:
   i       a                 i       a                 i       a    
-----------------------------------------------------------------------------
[  6      30    ] 0.00893 [  7      31    ] 0.00879 [  5      32    ]-0.00807
[  8      28    ] 0.00804 [ 10      45    ]-0.00798 [  5      38    ] 0.00783
[  8      43    ]-0.00776 [ 10      22    ] 0.00698 [  9      40    ] 0.00601
[  9      21    ] 0.00588 [ 12      48    ]-0.00583 [  6      44    ]-0.00545
[  7      37    ] 0.00481 [  8      23    ]-0.00476 [ 11      18    ]-0.00457
-----------------------------------------------------------------------------
   Norm of T1AA vector (     3211 symmetry allowed elements):  0.0415909099.
-----------------------------------------------------------------------------
   Largest T2 amplitudes for spin case AB:
       _       _                 _       _                 _       _
   i   j   a   b             i   j   a   b             i   j   a   b
-----------------------------------------------------------------------------
[ 11  11  46  46]-0.01676 [ 13  13  47  47]-0.01603 [ 12  12  38  38]-0.01231
[ 12  12  32  32]-0.01220 [ 11  11  37  37]-0.01084 [ 10  10  45  45]-0.01064
[ 13  13  41  41]-0.01063 [  5   5  38  38]-0.01053 [  8   8  45  45]-0.01046
[  6   6  47  47]-0.01024 [  6   6  44  44]-0.01001 [  7   7  41  41]-0.01001
[ 13  13  33  33]-0.00982 [ 11  11  31  31]-0.00965 [  7   7  46  46]-0.00964
-----------------------------------------------------------------------------
   Norm of T2AB vector ( 10310521 symmetry allowed elements):  0.4726559013.
-----------------------------------------------------------------------------
  W(mnij) AB contribution =  0.1256668363 a.u.
  W(abef) AB contribution =  0.1871469296 a.u.
  W(mbej) AB contribution = -0.4295256633 a.u.
   After  16 iterations, amplitude changes are:
    -------------------------------------------------------------------
                 Spin      RMS          Max.      Max. change for
     Amplitude   Case     Change       Change       i    j    a    b
    -------------------------------------------------------------------
        T1        AA    0.0000000000-0.0000000012   11        14
        T2        AA    0.0000000000 0.0000000000   12   11   32   16
        T2        AB    0.0000000000 0.0000000001    9    9   15   15
    -------------------------------------------------------------------
   The AA contribution to the correlation energy is:   -0.0717070 a.u.
   The AB contribution to the correlation energy is:   -0.6254337 a.u.
   The total correlation energy is -0.768847766535 a.u.
   The total correlation energy is -0.768847766535 a.u.
  Current DIIS expansion coefficients : 
 [   1] 1.0840518457 [   2] 0.0037559610 [   3] 0.0054772003 [   4]-0.0849785997
 [   5]-0.0083064072
  Convergence information after    16 iterations: 
  Largest element of residual vector : -0.11529775E-08.
  Largest element of DIIS residual   : -0.97736115E-09.
  W(mnij) AB contribution =  0.1256668363 a.u.
  W(abef) AB contribution =  0.1871469296 a.u.
  W(mbej) AB contribution = -0.4295256633 a.u.
   After  17 iterations, amplitude changes are:
    -------------------------------------------------------------------
                 Spin      RMS          Max.      Max. change for
     Amplitude   Case     Change       Change       i    j    a    b
    -------------------------------------------------------------------
        T1        AA    0.0000000000-0.0000000005   11        14
        T2        AA    0.0000000000 0.0000000000   12   11   32   16
        T2        AB    0.0000000000 0.0000000000   12   12   16   16
    -------------------------------------------------------------------
   The AA contribution to the correlation energy is:   -0.0717070 a.u.
   The AB contribution to the correlation energy is:   -0.6254337 a.u.
   The total correlation energy is -0.768847766550 a.u.
   The total correlation energy is -0.768847766550 a.u.
  Current DIIS expansion coefficients : 
 [   1]-0.1248691933 [   2] 1.1848448076 [   3] 0.0044937839 [   4] 0.0082108920
 [   5]-0.0726802902
  Convergence information after    17 iterations: 
  Largest element of residual vector : -0.49895480E-09.
  Largest element of DIIS residual   : -0.42867611E-09.
  Amplitude equations converged in    17iterations.
   The AA contribution to the correlation energy is:   -0.0717070 a.u.
   The AB contribution to the correlation energy is:   -0.6254337 a.u.
   The total correlation energy is -0.768847766541 a.u.
   The total correlation energy is -0.768847766541 a.u.
   The CC iterations have converged.

   Largest T1 amplitudes for spin case AA:
   i       a                 i       a                 i       a    
-----------------------------------------------------------------------------
[  6      30    ] 0.00893 [  7      31    ] 0.00879 [  5      32    ]-0.00807
[  8      28    ] 0.00804 [ 10      45    ]-0.00798 [  5      38    ] 0.00783
[  8      43    ]-0.00776 [ 10      22    ] 0.00698 [  9      40    ] 0.00601
[  9      21    ] 0.00588 [ 12      48    ]-0.00583 [  6      44    ]-0.00545
[  7      37    ] 0.00481 [  8      23    ]-0.00476 [ 11      18    ]-0.00457
-----------------------------------------------------------------------------
   Norm of T1AA vector (     3211 symmetry allowed elements):  0.0415909102.
-----------------------------------------------------------------------------
   Largest T2 amplitudes for spin case AB:
       _       _                 _       _                 _       _
   i   j   a   b             i   j   a   b             i   j   a   b
-----------------------------------------------------------------------------
[ 11  11  46  46]-0.01676 [ 13  13  47  47]-0.01603 [ 12  12  38  38]-0.01231
[ 12  12  32  32]-0.01220 [ 11  11  37  37]-0.01084 [ 10  10  45  45]-0.01064
[ 13  13  41  41]-0.01063 [  5   5  38  38]-0.01053 [  8   8  45  45]-0.01046
[  6   6  47  47]-0.01024 [  6   6  44  44]-0.01001 [  7   7  41  41]-0.01001
[ 13  13  33  33]-0.00982 [ 11  11  31  31]-0.00965 [  7   7  46  46]-0.00964
-----------------------------------------------------------------------------
   Norm of T2AB vector ( 10310521 symmetry allowed elements):  0.4726559013.
-----------------------------------------------------------------------------
       Summary of iterative solution of CC equations 
      -----------------------------------------------------------
                       Correlation           Total
       Iteration         Energy              Energy
      -----------------------------------------------------------
            0        -0.716772179369    -158.075163784636  DIIS 
            1        -0.749016748236    -158.107408353503  DIIS 
            2        -0.764342316752    -158.122733922019  DIIS 
            3        -0.767448283915    -158.125839889182  DIIS 
            4        -0.768743367509    -158.127134972776  DIIS 
            5        -0.768837035783    -158.127228641050  DIIS 
            6        -0.768846198684    -158.127237803951  DIIS 
            7        -0.768847274236    -158.127238879503  DIIS 
            8        -0.768847027419    -158.127238632686  DIIS 
            9        -0.768847436918    -158.127239042185  DIIS 
           10        -0.768847627558    -158.127239232825  DIIS 
           11        -0.768847722320    -158.127239327587  DIIS 
           12        -0.768847754451    -158.127239359718  DIIS 
           13        -0.768847764232    -158.127239369500  DIIS 
           14        -0.768847766160    -158.127239371427  DIIS 
           15        -0.768847766502    -158.127239371770  DIIS 
           16        -0.768847766535    -158.127239371802  DIIS 
           17        -0.768847766541    -158.127239371808  DIIS 
      -----------------------------------------------------------
      A miracle has come to pass. The CC iterations have converged.
 @DIMT3-I, Dimensions of T3 amplitudes : 
               # abc          # ijk       Symmetry    Spin 
                  2481115            286     1          1
                  7504107           1014     1          2
                  7504107           1014     1          3
                  2481115            286     1          4
 @DIMT3-I, Dimensions of T3 amplitudes : 
               # abc          # ijk       Symmetry    Spin 
                  2481115            286     1          1
                  7504107           1014     1          2
                  7504107           1014     1          3
                  2481115            286     1          4
 @TRPS-I, Welcome to TRPS. Watch your RUs ! 
 @TRPS-I, Method is CCSD(T) 
 @TRPS-I, Calculation type is energy 
 @TRPS-I, Reference function information : 
          Reference function is Hartree-Fock 
          Reference function is RHF Hartree-Fock 
 @TRPS-I, INT1 is true 
 @TRPS-I, INT2 is false 
 @TRPS-I, Lengths of ijka integrals. #1     250458
                                     #2     250458
                                     #3     542659
                                     #4     542659
                                    Max     542659
 @INITRP-I, Initializing W intermediate lists. 
 @SETOOOV-I, Some OOOV lists are being transposed. 
 @TRPS-I, Available memory in integer words   2999959040
          Number of pre-allocated words for TRPS2      3378774
          Number of free words for TRPS2   2996580266
 @TRPS2-I, Spin case AAB 
 @TRPS2-I, Number of free integer words 2996580266
           Number of free double  words 2996580266
           Ratio                                 1
 @TRPS2-I, E4TBAA      -0.013839176149
  @TRPS2-I, E4TAAA  -7.513945503370116E-004
 @TRPS2-I, E5ST A    0.000201762489481
 @TRPS2-I, E5ST B    0.000127341250659
 @SETOOOV-I, Some OOOV lists are being transposed. 
 @CCENRG-I, CCSD/QCISD energy will now be evaluated. 
 @CCENRG-I, Correlation energies. ECCAA       -0.071707028716
                                  ECCBB        0.000000000000
                                  ECCAB       -0.625433709109
                                  Total       -0.768847766541
 @CCENRG-I, Reference   energy    -157.358391605267
            CCSD/QCISD energy     -158.127239371808
          E4T (T(CCSD)) = -0.029181141398
          E5ST          =  0.000658207480
          E4ST          =  0.000000000000
          In other words  
          <T3[2](Dagger) D3  T3[2]> = -0.029181141398
          <T1   (Dagger) Q1 WT3[2]> =  0.000658207480
          <T2   (Dagger) Q2 FT3[2]> =  0.000000000000
        E(CCSD)           =    -158.127239371808
        E(CCSD + T(CCSD)) =    -158.156420513207
        E(CCSD(T))        =    -158.155762305726
  @CHECKOUT-I, Total execution time (CPU/WALL):     3920.51/    4498.53 seconds.
--executable xvcc finished with status     0 in     4501.97 seconds (walltime).
  The final electronic energy is      -158.155762305726341 a.u. 
  This computation required                        21664.65 seconds (walltime).
