 **********************************************************************
                          MRCC program system
 **********************************************************************
 
                              Written by
    Mihaly Kallay, Zoltan Rolik, Jozsef Csontos, Istvan Ladjanszki,
       Lorant Szegedy, Bence Ladoczki, Gyula Samu, Klara Petrov,
        Mate Farkas, Peter Nagy, David Mester, and Bence Hegely
 
        Department of Physical Chemistry and Materials Science
            Budapest University of Technology and Economics
                  Budapest P.O.Box 91, H-1521 Hungary
 
                              www.mrcc.hu

 ************************ 2017-03-02 14:11:02 *************************
 Executing minp...

 Reading input from MINP...
 
 Input file:
 
# TITLE
basis=aug-cc-pCVDZ-EMSL
uncontract=on
calc=CCSDTQ(P)
mem=110GB
core=corr
cctol=9
ccmaxit=999
scfmaxit=9999
scftype=ROHF
scfiguess=ao
rest=2
mult=3
geom
Si

 
 
 Checking keyword combinations...
 
 Keywords:
 
 active=none
 agrid=ld0006-ld0590
 basis=aug-cc-pcvdz-emsl
 basopt=off
 bpcompo=0.985
 bpcompv=0.98
 bpdfo=0.985
 bpocc=0.985
 bppdo=0.985
 bppdv=0.98
 bpedo=0.985
 bpedv=0.98
 calc=ccsdtq(p)
 ccmaxit=999
 ccprog=mrcc
 cctol=9
 charge=0
 cialg=disk
 ciguess=off
 cmpgrp=auto
 core=corr
 corembed=off
 dboc=off
 dendec=cholesky
 dens=0
 dfalg=invsqrt
 dfbasis_cor=none
 dfbasis_scf=none
 dfintran=ovirt
 dft=off
 diag=david
 domrad=10.d0
 drpaalg=fit
 ecp=auto
 edisp=off
 embed=off
 epert=none
 eps=0.975
 excrad=0.d0
 excrad_fin=0.000000000D+00
 freq=off
 gauss=spher
 geom=zmat
 gopt=off
 ghost=none
 gtol=7
 grtol=10
 hamilton=dc
 iface=none
 intalg=auto
 itol=13
 lcorthr=loose
 lccrest=off
 lmp2dens=on
 lnoepso=3e-5
 lnoepsv=1e-6
 localcc=off
 locintrf=disk
 maxact=off
 maxex=0
 bfbasis=none
 mem=110gb
 molden=on
 mulmet=0
 mult=3
 nacto=0
 nactv=0
 naf_cor=off
 naf_scf=off
 nafalg=albe
 naftyp=
 nchol=auto
 ndeps=1e-3
 nstate=1
 nsing=0
 ntrip=0
 occ=
 optalg=
 optmaxit=50
 optetol=1e-6
 optgtol=1e-4
 optstol=1e-3
 orblocc=off
 orbloco=off
 orblocv=off
 osveps=1e-3
 ovirt=off
 ovosnorb=80.0
 ptfreq=0.0
 popul=off
 pressure=100000
 qmmm=off
 refdet=none
 rest=2
 rgrid=log3
 rohftype=semicanonical
 scspe=1.d0
 scsps=1.2d0
 scspt=0.33333333333333
 scfalg=auto
 scfdamp=off
 scfdiis=on
 scfdiis_end=9999
 scfdiis_start=1
 scfdiis_step=1
 scfdtol=13
 scfext=10
 scfiguess=ao
 scflshift=off
 scfmaxit=9999
 scftype=rohf
 scftol=9
 spairtol=1e-4
 symm=
 talg=occ
 temp=298.15
 test=off
 tprint=off
 uncontract=on
 unit=angs
 verbosity=2
 wpairtol=0.100000000E-05

 ************************ 2017-03-02 14:11:02 *************************
 Executing integ...

 Allocation of 110.0 Gbytes of memory...
 
 Number of atoms:            1
 Charge:                     0
 Number of electrons:       14
 Number of core electrons:  10
 Spin multiplicity:          3
 
                 Cartesian coordinates [bohr]      Atomic mass [AMU]  Z
   1  Si    0.00000000    0.00000000    0.00000000    27.976927      14
 
 This molecule is a spherical top.
 
 Rotational constants [cm-1]: 

 
 Point group: Dxh 
 Computational point group: D2h 
 
 Cartesian coordinates in standard orientation [bohr]
   1  Si    0.00000000    0.00000000    0.00000000
 
 Nuclear repulsion energy [au]:          0.000000000000
 
 
 Basis set information:
 
 Maximum angular momentum: d
 Maximum number of contracted Gaussians:   14
 Maximum number of primitive Gaussians:    14
 Spherical harmonic GTOs are used.
 
    1  Si aug-cc-pcvdz-emsl [ 14s 10p 3d | 14s 10p 3d ]
 
 Total number of basis functions:    59
 
 
 Character table for point group D2h:
 
          E  C2z C2y C2x  i  Qxy Qxz Qyz 
    Ag    1   1   1   1   1   1   1   1
    B1g   1   1  -1  -1   1   1  -1  -1
    B2g   1  -1   1  -1   1  -1   1  -1
    B3g   1  -1  -1   1   1  -1  -1   1
    Au    1   1   1   1  -1  -1  -1  -1
    B1u   1   1  -1  -1  -1  -1   1   1
    B2u   1  -1   1  -1  -1   1  -1   1
    B3u   1  -1  -1   1  -1   1   1  -1
 
 Number of basis functions per irrep:
    Ag     20
    B1g     3
    B2g     3
    B3g     3
    Au      0
    B1u    10
    B2u    10
    B3u    10
 
 
 Calculation of overlap integrals...
 CPU time [min]:     0.018                   Wall time [min]:     0.024
 Calculation of kinetic energy integrals...
 CPU time [min]:     0.027                   Wall time [min]:     0.024
 Calculation of nuclear attraction integrals...
 CPU time [min]:     0.032                   Wall time [min]:     0.024
 
 Calculation of prescreening integrals...
 CPU time [min]:     0.080                   Wall time [min]:     0.027
 
 Calculation of two-electron integrals...
  31% done.
 100% done.
 CPU time [min]:     0.181                   Wall time [min]:     0.031

 ************************ 2017-03-02 14:11:05 *************************
 Executing scf...

 Allocation of 110.0 Gbytes of memory...
 ======================================================================
 ITERATION STEP   1
 CPU time [min]:     0.043                   Wall time [min]:     0.014
 
 ALPHA OCC:   2   0   0   0   0   2   2   2
 BETA  OCC:   2   0   0   0   0   2   1   1
 ***HARTREE-FOCK ENERGY IN STEP   1 IS  265007.4622337216860615 [AU]
 ======================================================================
 ITERATION STEP   2
 CPU time [min]:     0.115                   Wall time [min]:     0.017
 
 ALPHA OCC:   3   0   0   0   0   1   2   2
 BETA  OCC:   3   0   0   0   0   1   1   1
 ***HARTREE-FOCK ENERGY IN STEP   2 IS     -30.6593521888670537 [AU]
 ======================================================================
 ITERATION STEP   3
 CPU time [min]:     0.188                   Wall time [min]:     0.021
 
 ALPHA OCC:   3   0   0   0   0   1   2   2
 BETA  OCC:   3   0   0   0   0   1   1   1
 ***HARTREE-FOCK ENERGY IN STEP   3 IS    -257.0835698155904652 [AU]
 ======================================================================
 ITERATION STEP   4
 CPU time [min]:     0.255                   Wall time [min]:     0.024
 
 ALPHA OCC:   3   0   0   0   0   1   2   2
 BETA  OCC:   3   0   0   0   0   1   1   1
 ***HARTREE-FOCK ENERGY IN STEP   4 IS    -265.4006431989408270 [AU]
 ======================================================================
 ITERATION STEP   5
 CPU time [min]:     0.320                   Wall time [min]:     0.027
 
 ALPHA OCC:   3   0   0   0   0   1   2   2
 BETA  OCC:   3   0   0   0   0   1   1   1
 ***HARTREE-FOCK ENERGY IN STEP   5 IS    -275.8461095692511549 [AU]
 ======================================================================
 ITERATION STEP   6
 CPU time [min]:     0.387                   Wall time [min]:     0.030
 
 ALPHA OCC:   3   0   0   0   0   1   2   2
 BETA  OCC:   3   0   0   0   0   1   1   1
 ***HARTREE-FOCK ENERGY IN STEP   6 IS    -284.6379821170656328 [AU]
 ======================================================================
 ITERATION STEP   7
 CPU time [min]:     0.452                   Wall time [min]:     0.033
 
 ALPHA OCC:   3   0   0   0   0   1   2   2
 BETA  OCC:   3   0   0   0   0   1   1   1
 ***HARTREE-FOCK ENERGY IN STEP   7 IS    -288.7891486490249804 [AU]
 ======================================================================
 ITERATION STEP   8
 CPU time [min]:     0.522                   Wall time [min]:     0.036
 
 ALPHA OCC:   3   0   0   0   0   1   2   2
 BETA  OCC:   3   0   0   0   0   1   1   1
 ***HARTREE-FOCK ENERGY IN STEP   8 IS    -288.8466511788324738 [AU]
 ======================================================================
 ITERATION STEP   9
 CPU time [min]:     0.587                   Wall time [min]:     0.039
 
 ALPHA OCC:   3   0   0   0   0   1   2   2
 BETA  OCC:   3   0   0   0   0   1   1   1
 ***HARTREE-FOCK ENERGY IN STEP   9 IS    -288.8472677979017931 [AU]
 ======================================================================
 ITERATION STEP  10
 CPU time [min]:     0.653                   Wall time [min]:     0.042
 
 ALPHA OCC:   3   0   0   0   0   1   2   2
 BETA  OCC:   3   0   0   0   0   1   1   1
 ***HARTREE-FOCK ENERGY IN STEP  10 IS    -288.8473631950861318 [AU]
 ======================================================================
 ITERATION STEP  11
 CPU time [min]:     0.713                   Wall time [min]:     0.044
 
 ALPHA OCC:   3   0   0   0   0   1   2   2
 BETA  OCC:   3   0   0   0   0   1   1   1
 ***HARTREE-FOCK ENERGY IN STEP  11 IS    -288.8473635318422339 [AU]
 ======================================================================
 ITERATION STEP  12
 CPU time [min]:     0.771                   Wall time [min]:     0.047
 
 ALPHA OCC:   3   0   0   0   0   1   2   2
 BETA  OCC:   3   0   0   0   0   1   1   1
 ***HARTREE-FOCK ENERGY IN STEP  12 IS    -288.8473635383252827 [AU]
 ======================================================================
 ITERATION STEP  13
 CPU time [min]:     0.828                   Wall time [min]:     0.050
 
 ALPHA OCC:   3   0   0   0   0   1   2   2
 BETA  OCC:   3   0   0   0   0   1   1   1
 ***HARTREE-FOCK ENERGY IN STEP  13 IS    -288.8473635383323881 [AU]
 ======================================================================
 ITERATION STEP  14
 CPU time [min]:     0.889                   Wall time [min]:     0.052
 
 ALPHA OCC:   3   0   0   0   0   1   2   2
 BETA  OCC:   3   0   0   0   0   1   1   1
 ***HARTREE-FOCK ENERGY IN STEP  14 IS    -288.8473635383348324 [AU]
 ======================================================================
 
 SUCCESS...
 THE SCF ITERATION HAS CONVERGED!
 
                   Ag  B1g B2g B3g Au  B1u B2u B3u 
 FINAL ALPHA OCC:   3   0   0   0   0   1   2   2
 FINAL BETA  OCC:   3   0   0   0   0   1   1   1
 
 ***FINAL HARTREE-FOCK ENERGY:   -288.8473635383348324 [AU]
 ***SEMICANONICAL ROHF ENERGY:   -288.8473635383342071 [AU]
 
 RETURNING FROM SCF ALGORITHM
 ======================================================================

 ************************ 2017-03-02 14:11:10 *************************
 Executing ovirt...

 ovirt, the routine of orbital optimization and integral transformation 
Thu Mar  2 14:11:10 EST 2017
 Allocated memory:                  112640  Mb
 UHF calculation! 
 integral transformation: AOs --- MOs (alpha-alpha)
 # of basis functions, # of int. blocks    59     1
100 % 
 second part
100 %
 integral transformation is completed! 
 integral transformation: AOs ------ MOs (beta-beta)
 # of basis functions, # of int. blocks    59     1
100 % 
 second part
100 %
 integral transformation is completed! 
 integral transformation: AOs ----- MOs (alpha-beta)
 size                  27848                     1
# of basis functions, # of int. blocks    59     1
 integral transformation
======================================== 
Thu Mar  2 14:11:21 EST 2017
  ovirt terminated normally 

 ************************ 2017-03-02 14:11:22 *************************
 Executing goldstone...

 Generation of CC equations in terms of H and T...
 Generation of antisymmetrized Goldstone diagrams...
 Number of diagrams in T^1 equations:    15
 Number of diagrams in T^2 equations:    38
 Number of diagrams in T^3 equations:    54
 Number of diagrams in T^4 equations:    77
 Number of diagrams in T^5 equations:     8
 Translation of diagrams to factorized equations...
 Optimizing intermediate calculation...
 Number of floating-point operations per iteration step:   4.3933E+13
 Probable CPU time per iteration step (hours):    439.33
 Required memory (Mbytes):  175580.0
 Number of intermediates:                                 120
 Number of intermediates to be stored:                     51
 Length of intermediate file (Mbytes):    5152.4

 ************************ 2017-03-02 14:11:27 *************************
 Executing xmrcc...

 **********************************************************************
 CC(4)(5) calculation 
 
 
 Allocation of****** Mbytes of memory...
 Number of spinorbitals:                   118
 Number of alpha electrons:                        8
 Number of beta electrons:                         6
 Spin multiplicity:                     2
 z-component of spin:  1.0
 Spatial symmetry:                      2
 Convergence criterion:  1.0E-09
 Construction of occupation graphs...
 Number of                     0 -fold excitations:                      1
 Number of                     1 -fold excitations:                    170
 Number of                     2 -fold excitations:                  27909
 Number of                     3 -fold excitations:                2777797
 Number of                     4 -fold excitations:              165927147
 Total number of configurations:              168733024
 Calculation of coupling coefficients...
 Length of intermediate file (Mbytes):    3216.2
 
 ======================================================================
 
 Spin case  1   Alpha:  0   Beta:  5
 Number of excitations:                2138871
 Spin case  2   Alpha:  1   Beta:  4
 Number of excitations:              223010060
 Spin case  3   Alpha:  2   Beta:  3
 Number of excitations:             2090773580
 Spin case  4   Alpha:  3   Beta:  2
 Number of excitations:             3013559420
 Spin case  5   Alpha:  4   Beta:  1
 Number of excitations:              694102360
 Spin case  6   Alpha:  5   Beta:  0
 Number of excitations:               16429244
 Number of                     5 -fold excitations:             6040013535
 
 Memory requirements /Mbyte/: 
               Minimal        Optimal
 Real*8:      31865.9132     31865.9132
 Integer:       220.0096
 Total:       32085.9228     32085.9228
 

 ************************ 2017-03-02 14:11:59 *************************
 Executing goldstone...

 Generation of CC equations in terms of H and T...
 Generation of antisymmetrized Goldstone diagrams...
 Number of diagrams in T^1 equations:    15
 Number of diagrams in T^2 equations:    34
 Number of diagrams in T^3 equations:     2
 Translation of diagrams to factorized equations...
 Optimizing intermediate calculation...
 Number of floating-point operations per iteration step:   1.2931E+09
 Probable CPU time per iteration step (hours):      0.01
 Required memory (Mbytes):     985.1
 Number of intermediates:                                  49
 Number of intermediates to be stored:                     20
 Length of intermediate file (Mbytes):      23.6

 ************************ 2017-03-02 14:12:01 *************************
 Executing xmrcc...

 **********************************************************************
 CC(2)(3) calculation 
 
 
 Allocation of 985.1 Mbytes of memory...
 Number of spinorbitals:                   118
 Number of alpha electrons:                        8
 Number of beta electrons:                         6
 Spin multiplicity:                     2
 z-component of spin:  1.0
 Spatial symmetry:                      2
 Convergence criterion:  1.0E-09
 Construction of occupation graphs...
 Number of                     0 -fold excitations:                      1
 Number of                     1 -fold excitations:                    170
 Number of                     2 -fold excitations:                  27909
 Total number of configurations:                  28080
 Calculation of coupling coefficients...
 Length of intermediate file (Mbytes):      20.2
 
 ======================================================================
 
 Spin case  1   Alpha:  0   Beta:  3
 Number of excitations:                  58730
 Spin case  2   Alpha:  1   Beta:  2
 Number of excitations:                1100298
 Spin case  3   Alpha:  2   Beta:  1
 Number of excitations:                1472528
 Spin case  4   Alpha:  3   Beta:  0
 Number of excitations:                 146241
 Number of                     3 -fold excitations:                2777797
 
 Memory requirements /Mbyte/: 
               Minimal        Optimal
 Real*8:         36.4765        95.7936
 Integer:         3.9556
 Total:          40.4321        99.7492
 

 ************************ 2017-03-02 14:12:02 *************************
 Executing mrcc...

 **********************************************************************
 CCSD(T) calculation                                                    
 
 
 OpenMP parallel version is running.
 Number of CPUs:  23
 Allocation of   95.8 Mbytes of memory...
 Number of spinorbitals: 118
 Number of alpha electrons:  8
 Number of beta  electrons:  6
 Spin multiplicity: 2
 z-component of spin:  1.0
 Spatial symmetry: 2
 Convergence criterion:  1.0E-09
 Construction of occupation graphs...
 Number of 0-fold excitations: 1
 Number of 1-fold excitations: 170
 Number of 2-fold excitations: 27909
 Total number of determinants: 28080
 Calculation of coupling coefficients...
 Initial cluster amplitudes are generated.
 Length of intermediate file (Mbytes):      20.2
 Reading integral list from unit 55...
 Sorting integrals...
 Sorting integrals...
 Sorting integrals...
 Sorting integrals...
 Energy of reference determinant [au]:    -288.847363538334
 Calculation of MP denominators...
 
 Starting CC iteration...
 ======================================================================
 Norm of residual vector:     5.45605997
 CPU time [min]:     1.646                   Wall time [min]:     0.144
 
 Iteration  1  CC energy:  -289.17530880  Energy decrease:   0.32794526
 ======================================================================
 Norm of residual vector:     0.18792025
 CPU time [min]:     2.390                   Wall time [min]:     0.181
 
 Iteration  2  CC energy:  -289.19208879  Energy decrease:   0.01677999
 ======================================================================
 Norm of residual vector:     0.03870108
 CPU time [min]:     3.454                   Wall time [min]:     0.245
 
 Iteration  3  CC energy:  -289.19495819  Energy decrease:   0.00286940
 ======================================================================
 Norm of residual vector:     0.00922303
 CPU time [min]:     5.078                   Wall time [min]:     0.343
 
 Iteration  4  CC energy:  -289.19497980  Energy decrease:   0.00002161
 ======================================================================
 Norm of residual vector:     0.00275658
 CPU time [min]:     6.325                   Wall time [min]:     0.404
 
 Iteration  5  CC energy:  -289.19514301  Energy decrease:   0.00016320
 ======================================================================
 Norm of residual vector:     0.00061685
 CPU time [min]:     7.177                   Wall time [min]:     0.442
 
 Iteration  6  CC energy:  -289.19512326  Energy decrease:   0.00001975
 ======================================================================
 Norm of residual vector:     0.00014251
 CPU time [min]:     7.979                   Wall time [min]:     0.478
 
 Iteration  7  CC energy:  -289.19512316  Energy decrease:   0.00000010
 ======================================================================
 Norm of residual vector:     0.00004611
 CPU time [min]:     8.812                   Wall time [min]:     0.516
 
 Iteration  8  CC energy:  -289.19512443  Energy decrease:   0.00000128
 ======================================================================
 Norm of residual vector:     0.00000907
 CPU time [min]:     9.706                   Wall time [min]:     0.558
 
 Iteration  9  CC energy:  -289.19512425  Energy decrease:   0.00000019
 ======================================================================
 Norm of residual vector:     0.00000228
 CPU time [min]:    10.533                   Wall time [min]:     0.598
 
 Iteration 10  CC energy:  -289.19512423  Energy decrease:   0.00000002
 ======================================================================
 Norm of residual vector:     0.00000063
 CPU time [min]:    11.523                   Wall time [min]:     0.651
 
 Iteration 11  CC energy:  -289.19512424  Energy decrease:   0.00000002
 ======================================================================
 Norm of residual vector:     0.00000016
 CPU time [min]:    12.328                   Wall time [min]:     0.690
 
 Iteration 12  CC energy:  -289.19512424  Energy decrease:   4.5645E-09
 ======================================================================
 Norm of residual vector:     0.00000004
 CPU time [min]:    13.066                   Wall time [min]:     0.724
 
 Iteration 13  CC energy:  -289.19512424  Energy decrease:   1.7911E-10
 ======================================================================
 Norm of residual vector:     0.00000001
 CPU time [min]:    13.725                   Wall time [min]:     0.754
 
 Iteration 14  CC energy:  -289.19512424  Energy decrease:   2.0145E-10
 ======================================================================
 Norm of residual vector:     1.8356E-09
 CPU time [min]:    14.339                   Wall time [min]:     0.781
 
 Iteration 15  CC energy:  -289.19512424  Energy decrease:   3.9279E-11
 ======================================================================
 Norm of residual vector:     5.8241E-10
 CPU time [min]:    14.840                   Wall time [min]:     0.803
 
 Iteration 16  CC energy:  -289.19512424  Energy decrease:   5.3433E-12
 ======================================================================
 
 Iteration has converged in 16 steps.
 
 Final results:
 Total CCSD energy [au]:            -289.195124240656
 
 Perturbative corrections are calculated...
 ======================================================================
 Spin case  1   Alpha:  0   Beta:  3
 Number of excitations:        58730
 CPU time [min]:    14.960                   Wall time [min]:     0.809
 ======================================================================
 Spin case  2   Alpha:  1   Beta:  2
 Number of excitations:        1100298
 CPU time [min]:    15.169                   Wall time [min]:     0.818
 ======================================================================
 Spin case  3   Alpha:  2   Beta:  1
 Number of excitations:        1472528
 CPU time [min]:    15.407                   Wall time [min]:     0.828
 ======================================================================
 Spin case  4   Alpha:  3   Beta:  0
 Number of excitations:        146241
 CPU time [min]:    15.463                   Wall time [min]:     0.830
 ======================================================================
 Number of 3-fold excitations: 2777797
 
 
 CPU time [min]:    15.475                   Wall time [min]:     0.831
 
 Total CCSD[T] energy [au]:         -289.198232246738
 Total CCSD(T) energy [au]:         -289.198219345159

 ************************ 2017-03-02 14:12:53 *************************
 Executing goldstone...

 Generation of CC equations in terms of H and T...
 Generation of antisymmetrized Goldstone diagrams...
 Number of diagrams in T^1 equations:    15
 Number of diagrams in T^2 equations:    38
 Number of diagrams in T^3 equations:    50
 Number of diagrams in T^4 equations:     5
 Translation of diagrams to factorized equations...
 Optimizing intermediate calculation...
 Number of floating-point operations per iteration step:   3.6303E+11
 Probable CPU time per iteration step (hours):      3.63
 Required memory (Mbytes):    4389.5
 Number of intermediates:                                  81
 Number of intermediates to be stored:                     31
 Length of intermediate file (Mbytes):      56.3

 ************************ 2017-03-02 14:12:56 *************************
 Executing xmrcc...

 **********************************************************************
 CC(3)(4) calculation 
 
 
 Allocation of4389.5 Mbytes of memory...
 Number of spinorbitals:                   118
 Number of alpha electrons:                        8
 Number of beta electrons:                         6
 Spin multiplicity:                     2
 z-component of spin:  1.0
 Spatial symmetry:                      2
 Convergence criterion:  1.0E-09
 Construction of occupation graphs...
 Number of                     0 -fold excitations:                      1
 Number of                     1 -fold excitations:                    170
 Number of                     2 -fold excitations:                  27909
 Number of                     3 -fold excitations:                2777797
 Total number of configurations:                2805877
 Calculation of coupling coefficients...
 Length of intermediate file (Mbytes):      44.0
 
 ======================================================================
 
 Spin case  1   Alpha:  0   Beta:  4
 Number of excitations:                 539469
 Spin case  2   Alpha:  1   Beta:  3
 Number of excitations:               23895620
 Spin case  3   Alpha:  2   Beta:  2
 Number of excitations:               92930958
 Spin case  4   Alpha:  3   Beta:  1
 Number of excitations:               46388132
 Spin case  5   Alpha:  4   Beta:  0
 Number of excitations:                2172968
 Number of                     4 -fold excitations:              165927147
 
 Memory requirements /Mbyte/: 
               Minimal        Optimal
 Real*8:        589.5506       589.5506
 Integer:        15.2296
 Total:         604.7802       604.7802
 

 ************************ 2017-03-02 14:12:57 *************************
 Executing mrcc...

 **********************************************************************
 CCSDT(Q) calculation                                                   
 
 
 OpenMP parallel version is running.
 Number of CPUs:  23
 Allocation of  589.6 Mbytes of memory...
 Number of spinorbitals: 118
 Number of alpha electrons:  8
 Number of beta  electrons:  6
 Spin multiplicity: 2
 z-component of spin:  1.0
 Spatial symmetry: 2
 Convergence criterion:  1.0E-09
 Construction of occupation graphs...
 Number of 0-fold excitations: 1
 Number of 1-fold excitations: 170
 Number of 2-fold excitations: 27909
 Number of 3-fold excitations: 2777797
 Total number of determinants: 2805877
 Calculation of coupling coefficients...
 Initial cluster amplitudes are read from unit 16.
 Length of intermediate file (Mbytes):      44.0
 Reading integral list from unit 55...
 Sorting integrals...
 Sorting integrals...
 Sorting integrals...
 Sorting integrals...
 Energy of reference determinant [au]:    -288.847363538334
 Calculation of MP denominators...
 
 Starting CC iteration...
 ======================================================================
 Norm of residual vector:     0.27950635
 CPU time [min]:     7.659                   Wall time [min]:     0.419
 
 Iteration  1  CC energy:  -289.19512424  Energy decrease:   1.4211E-12
 ======================================================================
 Norm of residual vector:     0.02648341
 CPU time [min]:    13.900                   Wall time [min]:     0.696
 
 Iteration  2  CC energy:  -289.19789555  Energy decrease:   0.00277131
 ======================================================================
 Norm of residual vector:     0.00941838
 CPU time [min]:    22.996                   Wall time [min]:     1.111
 
 Iteration  3  CC energy:  -289.19853778  Energy decrease:   0.00064222
 ======================================================================
 Norm of residual vector:     0.00239521
 CPU time [min]:    34.528                   Wall time [min]:     1.713
 
 Iteration  4  CC energy:  -289.19865841  Energy decrease:   0.00012063
 ======================================================================
 Norm of residual vector:     0.00077141
 CPU time [min]:    50.004                   Wall time [min]:     2.493
 
 Iteration  5  CC energy:  -289.19867381  Energy decrease:   0.00001541
 ======================================================================
 Norm of residual vector:     0.00025962
 CPU time [min]:    57.697                   Wall time [min]:     2.869
 
 Iteration  6  CC energy:  -289.19867591  Energy decrease:   0.00000209
 ======================================================================
 Norm of residual vector:     0.00007988
 CPU time [min]:    68.420                   Wall time [min]:     3.420
 
 Iteration  7  CC energy:  -289.19867783  Energy decrease:   0.00000192
 ======================================================================
 Norm of residual vector:     0.00003021
 CPU time [min]:    78.454                   Wall time [min]:     3.885
 
 Iteration  8  CC energy:  -289.19867762  Energy decrease:   0.00000021
 ======================================================================
 Norm of residual vector:     0.00001045
 CPU time [min]:    84.294                   Wall time [min]:     4.144
 
 Iteration  9  CC energy:  -289.19867764  Energy decrease:   0.00000003
 ======================================================================
 Norm of residual vector:     0.00000324
 CPU time [min]:    90.005                   Wall time [min]:     4.463
 
 Iteration 10  CC energy:  -289.19867763  Energy decrease:   0.00000002
 ======================================================================
 Norm of residual vector:     0.00000109
 CPU time [min]:    97.232                   Wall time [min]:     4.801
 
 Iteration 11  CC energy:  -289.19867760  Energy decrease:   0.00000002
 ======================================================================
 Norm of residual vector:     0.00000038
 CPU time [min]:   109.133                   Wall time [min]:     5.384
 
 Iteration 12  CC energy:  -289.19867760  Energy decrease:   4.2602E-09
 ======================================================================
 Norm of residual vector:     0.00000013
 CPU time [min]:   118.461                   Wall time [min]:     5.845
 
 Iteration 13  CC energy:  -289.19867760  Energy decrease:   8.3406E-10
 ======================================================================
 Norm of residual vector:     0.00000004
 CPU time [min]:   124.813                   Wall time [min]:     6.125
 
 Iteration 14  CC energy:  -289.19867760  Energy decrease:   3.3708E-11
 ======================================================================
 Norm of residual vector:     0.00000001
 CPU time [min]:   133.032                   Wall time [min]:     6.509
 
 Iteration 15  CC energy:  -289.19867760  Energy decrease:   3.4959E-11
 ======================================================================
 Norm of residual vector:     3.0540E-09
 CPU time [min]:   147.949                   Wall time [min]:     7.316
 
 Iteration 16  CC energy:  -289.19867760  Energy decrease:   8.4128E-12
 ======================================================================
 Norm of residual vector:     9.2319E-10
 CPU time [min]:   167.502                   Wall time [min]:     8.298
 
 Iteration 17  CC energy:  -289.19867760  Energy decrease:   7.9581E-13
 ======================================================================
 
 Iteration has converged in 17 steps.
 
 Final results:
 Total CCSDT energy [au]:           -289.198677601315
 
 Perturbative corrections are calculated...
 ======================================================================
 Spin case  1   Alpha:  0   Beta:  4
 Number of excitations:        539469
 CPU time [min]:   171.045                   Wall time [min]:     8.492
 ======================================================================
 Spin case  2   Alpha:  1   Beta:  3
 Number of excitations:        23895620
 CPU time [min]:   188.771                   Wall time [min]:     9.342
 ======================================================================
 Spin case  3   Alpha:  2   Beta:  2
 Number of excitations:        92930958
 CPU time [min]:   226.091                   Wall time [min]:    11.067
 ======================================================================
 Spin case  4   Alpha:  3   Beta:  1
 Number of excitations:        46388132
 CPU time [min]:   246.652                   Wall time [min]:    12.029
 ======================================================================
 Spin case  5   Alpha:  4   Beta:  0
 Number of excitations:        2172968
 CPU time [min]:   248.342                   Wall time [min]:    12.102
 ======================================================================
 Number of 4-fold excitations: 165927147
 
 T_2^+ contribution:              -0.000088639320
 T_3^+ contribution:              -0.000038486693
 T_1^+ * T_2^+ contribution:      -0.000000534597
 T_1^+ * <ab||ij> contribution:   -0.000000180143
 T_2^+ * f_ai contribution:       -0.000000335907
 
 CPU time [min]:   249.060                   Wall time [min]:    12.218
 
 Total CCSDT[Q] energy [au]:        -289.198766240636
 Total CCSDT(Q)/A energy [au]:      -289.198805261925
 Total CCSDT(Q)/B energy [au]:      -289.198805243378

 ************************ 2017-03-02 14:25:11 *************************
 Executing goldstone...

 Generation of CC equations in terms of H and T...
 Generation of antisymmetrized Goldstone diagrams...
 Number of diagrams in T^1 equations:    15
 Number of diagrams in T^2 equations:    38
 Number of diagrams in T^3 equations:    54
 Number of diagrams in T^4 equations:    77
 Number of diagrams in T^5 equations:     8
 Translation of diagrams to factorized equations...
 Optimizing intermediate calculation...
 Number of floating-point operations per iteration step:   4.3933E+13
 Probable CPU time per iteration step (hours):    439.33
 Required memory (Mbytes):  175580.0
 Number of intermediates:                                 120
 Number of intermediates to be stored:                     51
 Length of intermediate file (Mbytes):    5152.4

 ************************ 2017-03-02 14:25:15 *************************
 Executing xmrcc...

 **********************************************************************
 CC(4)(5) calculation 
 
 
 Allocation of****** Mbytes of memory...
 Number of spinorbitals:                   118
 Number of alpha electrons:                        8
 Number of beta electrons:                         6
 Spin multiplicity:                     2
 z-component of spin:  1.0
 Spatial symmetry:                      2
 Convergence criterion:  1.0E-09
 Construction of occupation graphs...
 Number of                     0 -fold excitations:                      1
 Number of                     1 -fold excitations:                    170
 Number of                     2 -fold excitations:                  27909
 Number of                     3 -fold excitations:                2777797
 Number of                     4 -fold excitations:              165927147
 Total number of configurations:              168733024
 Calculation of coupling coefficients...
 Length of intermediate file (Mbytes):    3216.2
 
 ======================================================================
 
 Spin case  1   Alpha:  0   Beta:  5
 Number of excitations:                2138871
 Spin case  2   Alpha:  1   Beta:  4
 Number of excitations:              223010060
 Spin case  3   Alpha:  2   Beta:  3
 Number of excitations:             2090773580
 Spin case  4   Alpha:  3   Beta:  2
 Number of excitations:             3013559420
 Spin case  5   Alpha:  4   Beta:  1
 Number of excitations:              694102360
 Spin case  6   Alpha:  5   Beta:  0
 Number of excitations:               16429244
 Number of                     5 -fold excitations:             6040013535
 
 Memory requirements /Mbyte/: 
               Minimal        Optimal
 Real*8:      31865.9132     31865.9132
 Integer:       220.0096
 Total:       32085.9228     32085.9228
 

 ************************ 2017-03-02 14:25:35 *************************
 Executing mrcc...

 **********************************************************************
 CCSDTQ(P) calculation                                                  
 
 
 OpenMP parallel version is running.
 Number of CPUs:  23
 Allocation of31865.9 Mbytes of memory...
 Number of spinorbitals: 118
 Number of alpha electrons:  8
 Number of beta  electrons:  6
 Spin multiplicity: 2
 z-component of spin:  1.0
 Spatial symmetry: 2
 Convergence criterion:  1.0E-09
 Construction of occupation graphs...
 Number of 0-fold excitations: 1
 Number of 1-fold excitations: 170
 Number of 2-fold excitations: 27909
 Number of 3-fold excitations: 2777797
 Number of 4-fold excitations: 165927147
 Total number of determinants: 168733024
 Calculation of coupling coefficients...
 Initial cluster amplitudes are read from unit 16.
 Length of intermediate file (Mbytes):    3216.2
 Reading integral list from unit 55...
 Sorting integrals...
 Sorting integrals...
 Sorting integrals...
 Sorting integrals...
 Energy of reference determinant [au]:    -288.847363538334
 Calculation of MP denominators...
 
 Starting CC iteration...
 ======================================================================
 Norm of residual vector:     0.03619003
 CPU time [min]:  1266.311                   Wall time [min]:    73.630
 
 Iteration  1  CC energy:  -289.19867760  Energy decrease:   5.1159E-13
 ======================================================================
 Norm of residual vector:     0.00402845
 CPU time [min]:  3080.518                   Wall time [min]:   178.983
 
 Iteration  2  CC energy:  -289.19874844  Energy decrease:   0.00007084
 ======================================================================
 Norm of residual vector:     0.00126191
 CPU time [min]:  6824.470                   Wall time [min]:   383.254
 
 Iteration  3  CC energy:  -289.19880768  Energy decrease:   0.00005923
 ======================================================================
 Norm of residual vector:     0.00046078
 CPU time [min]: 10016.088                   Wall time [min]:   552.023
 
 Iteration  4  CC energy:  -289.19881392  Energy decrease:   0.00000624
 ======================================================================
 Norm of residual vector:     0.00012109
 CPU time [min]: 13137.893                   Wall time [min]:   720.682
 
 Iteration  5  CC energy:  -289.19881794  Energy decrease:   0.00000403
 ======================================================================
 Norm of residual vector:     0.00005100
 CPU time [min]: 14635.229                   Wall time [min]:   807.788
 
 Iteration  6  CC energy:  -289.19881860  Energy decrease:   0.00000065
 ======================================================================
 Norm of residual vector:     0.00002073
 CPU time [min]: 15774.689                   Wall time [min]:   871.702
 
 Iteration  7  CC energy:  -289.19881831  Energy decrease:   0.00000029
 ======================================================================
 Norm of residual vector:     0.00000845
 CPU time [min]: 16688.351                   Wall time [min]:   923.745
 
 Iteration  8  CC energy:  -289.19881838  Energy decrease:   0.00000007
 ======================================================================
 Norm of residual vector:     0.00000359
 CPU time [min]: 17861.164                   Wall time [min]:   989.231
 
 Iteration  9  CC energy:  -289.19881841  Energy decrease:   0.00000003
 ======================================================================
 Norm of residual vector:     0.00000122
 CPU time [min]: 18889.724                   Wall time [min]:  1047.448
 
 Iteration 10  CC energy:  -289.19881841  Energy decrease:   0.00000001
 ======================================================================
 Norm of residual vector:     0.00000045
 CPU time [min]: 19819.713                   Wall time [min]:  1099.664
 
 Iteration 11  CC energy:  -289.19881840  Energy decrease:   3.5577E-09
 ======================================================================
 Norm of residual vector:     0.00000017
 CPU time [min]: 20943.760                   Wall time [min]:  1163.947
 
 Iteration 12  CC energy:  -289.19881840  Energy decrease:   8.5470E-10
 ======================================================================
 Norm of residual vector:     0.00000005
 CPU time [min]: 22014.777                   Wall time [min]:  1223.818
 
 Iteration 13  CC energy:  -289.19881840  Energy decrease:   2.8655E-10
 ======================================================================
 Norm of residual vector:     0.00000002
 CPU time [min]: 23037.711                   Wall time [min]:  1280.756
 
 Iteration 14  CC energy:  -289.19881840  Energy decrease:   2.7455E-11
 ======================================================================
 Norm of residual vector:     0.00000001
 CPU time [min]: 24356.455                   Wall time [min]:  1360.270
 
 Iteration 15  CC energy:  -289.19881840  Energy decrease:   6.3665E-12
 ======================================================================
 Norm of residual vector:     1.8030E-09
 CPU time [min]: 26208.465                   Wall time [min]:  1462.756
 
 Iteration 16  CC energy:  -289.19881840  Energy decrease:   1.5348E-12
 ======================================================================
 Norm of residual vector:     5.8317E-10
 CPU time [min]: 28069.164                   Wall time [min]:  1561.396
 
 Iteration 17  CC energy:  -289.19881840  Energy decrease:   5.6843E-13
 ======================================================================
 
 Iteration has converged in 17 steps.
 
 Final results:
 Total CCSDTQ energy [au]:          -289.198818401528
 
 Perturbative corrections are calculated...
 ======================================================================
 Spin case  1   Alpha:  0   Beta:  5
 Number of excitations:        2138871
 CPU time [min]: 28262.991                   Wall time [min]:  1578.493
 ======================================================================
 Spin case  2   Alpha:  1   Beta:  4
 Number of excitations:        223010060
 CPU time [min]: 28783.853                   Wall time [min]:  1603.892
 ======================================================================
 Spin case  3   Alpha:  2   Beta:  3
 Number of excitations:        2090773580
 CPU time [min]: 31450.560                   Wall time [min]:  1736.751
 ======================================================================
 Spin case  4   Alpha:  3   Beta:  2
 Number of excitations:        3013559420
 CPU time [min]: 34635.551                   Wall time [min]:  1892.142
 ======================================================================
 Spin case  5   Alpha:  4   Beta:  1
 Number of excitations:        694102360
 CPU time [min]: 35499.912                   Wall time [min]:  1935.862
 ======================================================================
 Spin case  6   Alpha:  5   Beta:  0
 Number of excitations:        16429244
 CPU time [min]: 35530.733                   Wall time [min]:  1937.383
 ======================================================================
 Number of 5-fold excitations: 6040013535
 
 T_3^+ contribution:              -0.000000593167
 T_1^+ * T_2^+ contribution:      -0.000000001696
 T_1^+ * <ab||ij> contribution:    0.000000004865
 T_2^+ * f_ai contribution:       -0.000000013023
 T_2^+ contribution:              -0.000000587645
 
 CPU time [min]: 35610.854                   Wall time [min]:  1966.376
 
 Total CCSDTQ[P] energy [au]:       -289.198819584036
 Total CCSDTQ(P)/A energy [au]:     -289.198819584036
 Total CCSDTQ(P)/B energy [au]:     -289.198819590498
 
 ************************ 2017-03-03 23:11:58 *************************
                      Normal termination of mrcc.
 **********************************************************************
--- SharcNET Job Epilogue ---
Job completed successfully.
               jobid: 1362219
               resid: 2852018
         exit status: 0
      allocated time: 118858
           user time: 1402680
         system time: 750020
peak rss=67716575232; peak vsz=67716575232 (bytes)
atime=118858; utime=1402680; stime=750020; exit=0
