 **********************************************************************
                          MRCC program system
 **********************************************************************
 
                              Written by
    Mihaly Kallay, Zoltan Rolik, Jozsef Csontos, Istvan Ladjanszki,
       Lorant Szegedy, Bence Ladoczki, Gyula Samu, Klara Petrov,
        Mate Farkas, Peter Nagy, David Mester, and Bence Hegely
 
        Department of Physical Chemistry and Materials Science
            Budapest University of Technology and Economics
                  Budapest P.O.Box 91, H-1521 Hungary
 
                              www.mrcc.hu

 ************************ 2017-12-24 11:50:38 *************************
 Executing minp...

 Reading input from MINP...
 
 Input file:
 
# TITLE
basis=atomtype
Li:aug-cc-pCV7Z
H:aV7Z-FELLER
uncontract=off
#iface=cfour
itol=18
scftol=12
cctol=6
calc=CC(4)
mem=400GB
core=corr
ccmaxit=999
scfmaxit=9999
scftype=RHF

scfiguess=ao
rohftype=standard
mult=1
charge=0
rest=2

unit=bohr
geom
Li
H 1 R

R=3.0152359721231985   # converted from Coxon using 2014 CODATA:  1.59559416124/0.52917721067


 
 
 Checking keyword combinations...
 
 Keywords:
 
 active=none
 agrid=ld0006-ld0590
 basis=atomtype
 basopt=off
 bpcompo=0.985
 bpcompv=0.98
 bpdfo=0.985
 bpocc=0.985
 bppdo=0.985
 bppdv=0.98
 bpedo=0.985
 bpedv=0.98
 calc=cc(4)
 ccmaxit=999
 ccprog=mrcc
 cctol=6
 charge=0
 cialg=disk
 ciguess=off
 cmpgrp=auto
 core=corr
 corembed=off
 dboc=off
 dendec=cholesky
 dens=0
 dfalg=invsqrt
 dfbasis_cor=none
 dfbasis_scf=none
 dfintran=ovirt
 dft=off
 diag=david
 domrad=10.d0
 drpaalg=fit
 ecp=auto
 edisp=off
 embed=off
 epert=none
 eps=0.975
 excrad=0.d0
 excrad_fin=0.000000000D+00
 freq=off
 gauss=spher
 geom=zmat
 gopt=off
 ghost=none
 gtol=7
 grtol=10
 hamilton=dc
 iface=none
 intalg=auto
 itol=18
 lcorthr=loose
 lccrest=off
 lmp2dens=on
 lnoepso=3e-5
 lnoepsv=1e-6
 localcc=off
 locintrf=disk
 maxact=off
 maxex=0
 bfbasis=none
 mem=400gb
 molden=on
 mulmet=0
 mult=1
 nacto=0
 nactv=0
 naf_cor=off
 naf_scf=off
 nafalg=albe
 naftyp=
 nchol=auto
 ndeps=1e-3
 nstate=1
 nsing=0
 ntrip=0
 occ=
 optalg=
 optmaxit=50
 optetol=1e-6
 optgtol=1e-4
 optstol=1e-3
 orblocc=off
 orbloco=off
 orblocv=off
 osveps=1e-3
 ovirt=off
 ovosnorb=80.0
 ptfreq=0.0
 popul=off
 pressure=100000
 qmmm=off
 refdet=none
 rest=2
 rgrid=log3
 rohftype=standard
 scspe=1.d0
 scsps=1.2d0
 scspt=0.33333333333333
 scfalg=auto
 scfdamp=off
 scfdiis=on
 scfdiis_end=9999
 scfdiis_start=1
 scfdiis_step=1
 scfdtol=16
 scfext=10
 scfiguess=ao
 scflshift=off
 scfmaxit=9999
 scftype=rhf
 scftol=12
 spairtol=1e-4
 symm=
 talg=occ
 temp=298.15
 test=off
 tprint=off
 uncontract=off
 unit=bohr
 verbosity=2
 wpairtol=0.100000000E-05

 ************************ 2017-12-24 11:50:39 *************************
 Executing integ...

 Allocation of 400.0 Gbytes of memory...
 
 Number of atoms:            2
 Charge:                     0
 Number of electrons:        4
 Number of core electrons:   2
 Spin multiplicity:          1
 
                 Cartesian coordinates [bohr]      Atomic mass [AMU]  Z
   1  Li    0.00000000    0.00000000    0.00000000     7.016003       3
   2  H     3.01523597    0.00000000    0.00000000     1.007825       1
 
 This molecule is linear.
 
 Rotational constants [cm-1]: 
      7.513777398918
 
 Point group: Cxv 
 Computational point group: C2v 
 
 Cartesian coordinates in standard orientation [bohr]
   1  Li    0.00000000    0.00000000   -0.37872575
   2  H     0.00000000    0.00000000    2.63651022
 
 Nuclear repulsion energy [au]:          0.994947005056
 
 
 Basis set information:
 
 Maximum angular momentum: k
 Maximum number of contracted Gaussians:   15
 Maximum number of primitive Gaussians:    25
 Spherical harmonic GTOs are used.
 
    1  Li aug-cc-pcv7z [ 25s 17p 12d 10f 8g 6h 4i 2k | 15s 14p 12d 10f 8g 6h 4i 
 2k ]
    2  H  av7z-feller [ 15s 7p 6d 5f 4g 3h 2i | 8s 7p 6d 5f 4g 3h 2i ]
 
 Total number of basis functions:   596
 
 
 Character table for point group C2v:
 
          E  C2  Qh  Qv  
    A1    1   1   1   1
    B1    1  -1   1  -1
    B2    1  -1  -1   1
    A2    1   1  -1  -1
 
 Number of basis functions per irrep:
    A1    205
    B1    146
    B2    146
    A2     99
 
 
 Calculation of overlap integrals...
 CPU time [min]:     0.029                   Wall time [min]:     0.072
 Calculation of kinetic energy integrals...
 CPU time [min]:     0.038                   Wall time [min]:     0.093
 Calculation of nuclear attraction integrals...
 CPU time [min]:     0.039                   Wall time [min]:     0.093
 
 Calculation of prescreening integrals...
 CPU time [min]:     1.139                   Wall time [min]:     1.223
 
 Calculation of two-electron integrals...
   1% done.
  16% done.
  29% done.
  50% done.
  66% done.
  84% done.
 100% done.
 CPU time [min]:    56.277                   Wall time [min]:    61.928

 ************************ 2017-12-24 12:52:35 *************************
 Executing scf...

 Allocation of 400.0 Gbytes of memory...
 ======================================================================
 ITERATION STEP   1
 CPU time [min]:     0.003                   Wall time [min]:     0.017
 
 ALPHA OCC:   2   0   0   0
 BETA  OCC:   2   0   0   0
 ***HARTREE-FOCK ENERGY IN STEP   1 IS       6.0003389620543901 [AU]
 ======================================================================
 ITERATION STEP   2
 CPU time [min]:     0.826                   Wall time [min]:     0.875
 
 ALPHA OCC:   2   0   0   0
 BETA  OCC:   2   0   0   0
 ***HARTREE-FOCK ENERGY IN STEP   2 IS      -7.1567675768393837 [AU]
 ======================================================================
 ITERATION STEP   3
 CPU time [min]:     1.699                   Wall time [min]:     1.765
 
 ALPHA OCC:   2   0   0   0
 BETA  OCC:   2   0   0   0
 ***HARTREE-FOCK ENERGY IN STEP   3 IS      -7.8991814268489176 [AU]
 ======================================================================
 ITERATION STEP   4
 CPU time [min]:     2.533                   Wall time [min]:     2.626
 
 ALPHA OCC:   2   0   0   0
 BETA  OCC:   2   0   0   0
 ***HARTREE-FOCK ENERGY IN STEP   4 IS      -7.9559363478969187 [AU]
 ======================================================================
 ITERATION STEP   5
 CPU time [min]:     3.363                   Wall time [min]:     3.475
 
 ALPHA OCC:   2   0   0   0
 BETA  OCC:   2   0   0   0
 ***HARTREE-FOCK ENERGY IN STEP   5 IS      -7.9857959283122621 [AU]
 ======================================================================
 ITERATION STEP   6
 CPU time [min]:     4.151                   Wall time [min]:     4.269
 
 ALPHA OCC:   2   0   0   0
 BETA  OCC:   2   0   0   0
 ***HARTREE-FOCK ENERGY IN STEP   6 IS      -7.9872862416085590 [AU]
 ======================================================================
 ITERATION STEP   7
 CPU time [min]:     4.934                   Wall time [min]:     5.057
 
 ALPHA OCC:   2   0   0   0
 BETA  OCC:   2   0   0   0
 ***HARTREE-FOCK ENERGY IN STEP   7 IS      -7.9873460488442332 [AU]
 ======================================================================
 ITERATION STEP   8
 CPU time [min]:     5.717                   Wall time [min]:     5.845
 
 ALPHA OCC:   2   0   0   0
 BETA  OCC:   2   0   0   0
 ***HARTREE-FOCK ENERGY IN STEP   8 IS      -7.9873518336553833 [AU]
 ======================================================================
 ITERATION STEP   9
 CPU time [min]:     6.500                   Wall time [min]:     6.634
 
 ALPHA OCC:   2   0   0   0
 BETA  OCC:   2   0   0   0
 ***HARTREE-FOCK ENERGY IN STEP   9 IS      -7.9873519792418044 [AU]
 ======================================================================
 ITERATION STEP  10
 CPU time [min]:     7.286                   Wall time [min]:     7.428
 
 ALPHA OCC:   2   0   0   0
 BETA  OCC:   2   0   0   0
 ***HARTREE-FOCK ENERGY IN STEP  10 IS      -7.9873519818102272 [AU]
 ======================================================================
 ITERATION STEP  11
 CPU time [min]:     8.086                   Wall time [min]:     8.247
 
 ALPHA OCC:   2   0   0   0
 BETA  OCC:   2   0   0   0
 ***HARTREE-FOCK ENERGY IN STEP  11 IS      -7.9873519818553573 [AU]
 ======================================================================
 ITERATION STEP  12
 CPU time [min]:     8.870                   Wall time [min]:     9.048
 
 ALPHA OCC:   2   0   0   0
 BETA  OCC:   2   0   0   0
 ***HARTREE-FOCK ENERGY IN STEP  12 IS      -7.9873519818554968 [AU]
 ======================================================================
 ITERATION STEP  13
 CPU time [min]:     9.682                   Wall time [min]:     9.871
 
 ALPHA OCC:   2   0   0   0
 BETA  OCC:   2   0   0   0
 ***HARTREE-FOCK ENERGY IN STEP  13 IS      -7.9873519818557055 [AU]
 ======================================================================
 ITERATION STEP  14
 CPU time [min]:    10.486                   Wall time [min]:    10.687
 
 ALPHA OCC:   2   0   0   0
 BETA  OCC:   2   0   0   0
 ***HARTREE-FOCK ENERGY IN STEP  14 IS      -7.9873519818556407 [AU]
 ======================================================================
 ITERATION STEP  15
 CPU time [min]:    11.278                   Wall time [min]:    11.485
 
 ALPHA OCC:   2   0   0   0
 BETA  OCC:   2   0   0   0
 ***HARTREE-FOCK ENERGY IN STEP  15 IS      -7.9873519818556566 [AU]
 ======================================================================
 ITERATION STEP  16
 CPU time [min]:    12.066                   Wall time [min]:    12.278
 
 ALPHA OCC:   2   0   0   0
 BETA  OCC:   2   0   0   0
 ***HARTREE-FOCK ENERGY IN STEP  16 IS      -7.9873519818555732 [AU]
 ======================================================================
 ITERATION STEP  17
 CPU time [min]:    12.851                   Wall time [min]:    13.068
 
 ALPHA OCC:   2   0   0   0
 BETA  OCC:   2   0   0   0
 ***HARTREE-FOCK ENERGY IN STEP  17 IS      -7.9873519818553937 [AU]
 ======================================================================
 ITERATION STEP  18
 CPU time [min]:    13.634                   Wall time [min]:    13.857
 
 ALPHA OCC:   2   0   0   0
 BETA  OCC:   2   0   0   0
 ***HARTREE-FOCK ENERGY IN STEP  18 IS      -7.9873519818552721 [AU]
 ======================================================================
 ITERATION STEP  19
 CPU time [min]:    14.420                   Wall time [min]:    14.648
 
 ALPHA OCC:   2   0   0   0
 BETA  OCC:   2   0   0   0
 ***HARTREE-FOCK ENERGY IN STEP  19 IS      -7.9873519818551459 [AU]
 ======================================================================
 
 SUCCESS...
 THE SCF ITERATION HAS CONVERGED!
 
                   A1  B1  B2  A2  
 FINAL ALPHA OCC:   2   0   0   0
 FINAL BETA  OCC:   2   0   0   0
 
 ***FINAL HARTREE-FOCK ENERGY:     -7.9873519818551459 [AU]
 
 RETURNING FROM SCF ALGORITHM
 ======================================================================

 ************************ 2017-12-24 13:08:04 *************************
 Executing ovirt...

 ovirt, the routine of orbital optimization and integral transformation 
Sun Dec 24 13:08:05 EST 2017
 Allocated memory:                  409600  Mb
 RHF calculation! 
 integral transforamtion: AOs ------ MOs
 # of basis functions, # of int. blocks   596     3
 33 % 
 66 % 
100 % 
 second part
 33 %
 66 %
100 %
 integral transformation is completed! 
CPU and WC time       24181.58      108992.41     AOs -> MOs 
Integrals are written to fort.55
Tue Dec 26 09:08:15 EST 2017
  ovirt terminated normally 

 ************************ 2017-12-26 09:08:18 *************************
 Executing goldstone...

 Generation of CC equations in terms of H and T...
 Generation of antisymmetrized Goldstone diagrams...
 Number of diagrams in T^1 equations:    15
 Number of diagrams in T^2 equations:    38
 Number of diagrams in T^3 equations:    53
 Number of diagrams in T^4 equations:    74
 Translation of diagrams to factorized equations...
 Optimizing intermediate calculation...
 Number of floating-point operations per iteration step:   1.2841E+16
 Probable CPU time per iteration step (hours): 128405.28
 Required memory (Mbytes): *********
 Number of intermediates:                                 106
 Number of intermediates to be stored:                     43
 Length of intermediate file (Mbytes):  506245.3

 ************************ 2017-12-26 09:08:22 *************************
 Executing xmrcc...

 **********************************************************************
 CC(                     4 ) calculation 
 
 
 Allocation of****** Mbytes of memory...
 Number of spinorbitals:                  1192
 Number of alpha electrons:                        2
 Number of beta electrons:                         2
 Spin multiplicity:                     1
 z-component of spin:  0.0
 Spatial symmetry:                      1
 Convergence criterion:  1.0E-06
 Construction of occupation graphs...
 Number of                     0 -fold excitations:                      1
 Number of                     1 -fold excitations:                    812
 Number of                     2 -fold excitations:                 467616
 Number of                     3 -fold excitations:              105676492
 Number of                     4 -fold excitations:             7767728073
 Total number of configurations:             7873872994
 Calculation of coupling coefficients...
 Length of intermediate file (Mbytes):  379181.6
 
 ======================================================================
 
 Memory requirements /Mbyte/: 
               Minimal        Optimal
 Real*8:     712849.0183    962667.5597
 Integer:        24.8770
 Total:      712873.8954    962692.4367
 

 ************************ 2017-12-26 09:08:23 *************************
 Executing goldstone...

 Generation of MRCC equations in terms of H and T...
 Generation of antisymmetrized Goldstone diagrams...
 Number of diagrams in T^1 equations:    15
 Number of diagrams in T^2 equations:    38
 Number of diagrams in T^3 equations:    53
 Number of diagrams in T^4 equations:    74
 Translation of diagrams to factorized equations...
 Number of restricted diagrams in T^1 equations:     30
 Number of restricted diagrams in T^2 equations:    129
 Number of restricted diagrams in T^3 equations:    302
 Number of restricted diagrams in T^4 equations:    633
 Optimizing intermediate calculation...
 Number of floating-point operations per iteration step:   3.5203E+15
 Probable CPU time per iteration step (hours):  35203.39
 Required memory (Mbytes): *********
 Number of intermediates:                                 422
 Number of intermediates to be stored:                    160
 Length of intermediate file (Mbytes): 1107895.3

 ************************ 2017-12-26 09:08:33 *************************
 Executing xmrcc...

 **********************************************************************
 MRCC(                     4 ) calculation 
 
 
 Allocation of****** Mbytes of memory...
 Number of spinorbitals:                  1192
 Number of alpha electrons:                        2
 Number of beta electrons:                         2
 Number of active particles:                   594
 Number of active holes:                         0
 Spin multiplicity:                     1
 z-component of spin:  0.0
 Spatial symmetry:                      1
 Convergence criterion:  1.0E-06
 Construction of occupation graphs...
 Number of                     0 -fold excitations:                      1
 Number of                     1 -fold excitations:                    812
 Number of                     2 -fold excitations:                 467616
 Number of                     3 -fold excitations:              105676492
 Number of                     4 -fold excitations:             7767728073
 Total number of configurations:             7873872994
 Calculation of coupling coefficients...
 Length of intermediate file (Mbytes): 1505737.0
 
 ======================================================================
 
 Memory requirements /Mbyte/: 
               Minimal        Optimal
 Real*8:      74350.4320    962667.5597
 Integer:        29.1305
 Total:       74379.5624    962696.6902
 

 ************************ 2017-12-26 13:54:45 *************************
 Executing goldstone...

 Generation of MRCC equations in terms of H and T...
 Generation of antisymmetrized Goldstone diagrams...
 Number of diagrams in T^1 equations:    15
 Number of diagrams in T^2 equations:    33
 Number of diagrams in T^3 equations:     2
 Translation of diagrams to factorized equations...
 Number of restricted diagrams in T^1 equations:     78
 Number of restricted diagrams in T^2 equations:    293
 Number of restricted diagrams in T^3 equations:     18
 Optimizing intermediate calculation...
 Number of floating-point operations per iteration step:   1.3173E+12
 Probable CPU time per iteration step (hours):     13.17
 Required memory (Mbytes): *********
 Number of intermediates:                                 233
 Number of intermediates to be stored:                    105
 Length of intermediate file (Mbytes):  480587.4

 ************************ 2017-12-26 13:54:51 *************************
 Executing xmrcc...

 **********************************************************************
 MRCC(                     3 ) calculation 
 
 
 Allocation of****** Mbytes of memory...
 Number of spinorbitals:                  1192
 Number of alpha electrons:                        2
 Number of beta electrons:                         2
 Number of active particles:                   594
 Number of active holes:                         0
 Spin multiplicity:                     1
 z-component of spin:  0.0
 Spatial symmetry:                      1
 Convergence criterion:  1.0E-06
 Construction of occupation graphs...
 Number of                     0 -fold excitations:                      1
 Number of                     1 -fold excitations:                    812
 Number of                     2 -fold excitations:                 467616
 Total number of configurations:                 468429
 Calculation of coupling coefficients...
 Length of intermediate file (Mbytes):  361345.4
 
 ======================================================================
 
 Spin case  1   Alpha:  1   Beta:  2
 Number of excitations:                6585878
 Spin case  2   Alpha:  1   Beta:  2
 Number of excitations:                6588182
 Spin case  3   Alpha:  1   Beta:  2
 Number of excitations:               13236952
 Spin case  4   Alpha:  1   Beta:  2
 Number of excitations:               13242358
 Spin case  5   Alpha:  1   Beta:  2
 Number of excitations:                6591182
 Spin case  6   Alpha:  1   Beta:  2
 Number of excitations:                6593694
 Number of                     3 -fold excitations:              105676492
 
 Memory requirements /Mbyte/: 
               Minimal        Optimal
 Real*8:      14971.9284    962667.5597
 Integer:        25.5697
 Total:       14997.4981    962693.1294
 

 ************************ 2017-12-26 13:54:52 *************************
 Executing mrcc...

 **********************************************************************
 CCSD(T) calculation                                                    
 
 
 OpenMP parallel version is running.
 Number of CPUs:   1
 Allocation of******* Mbytes of memory...
 Number of spinorbitals:1192
 Number of alpha electrons:  2
 Number of beta  electrons:  2
 Number of active particles:                   594
 Number of active holes:                         0
 Spin multiplicity: 1
 z-component of spin:  0.0
 Spatial symmetry: 1
 Convergence criterion:  1.0E-06
 Construction of occupation graphs...
 Number of 0-fold excitations: 1
 Number of 1-fold excitations: 812
 Number of 2-fold excitations: 467616
 Total number of determinants: 468429
 Calculation of coupling coefficients...
 Initial cluster amplitudes are generated.
 Length of intermediate file (Mbytes):  361345.4
 Reading integral list from unit 55...
 Warning! Executing out-of-core algorithm!
 Reading integral list: cycle  1 of  3
 Sorting integrals...
 Reading integral list: cycle  2 of  3
 Sorting integrals...
 Reading integral list: cycle  3 of  3
 Sorting integrals...
 Energy of reference determinant [au]:      -7.987351981856
 Calculation of MP denominators...
 
 Starting CC iteration...
 ======================================================================
 Norm of residual vector:     1.14760233
 CPU time [min]:   862.227                   Wall time [min]:  2887.627
 
 Iteration  1  CC energy:    -8.05967231  Energy decrease:   0.07232033
 ======================================================================
 Norm of residual vector:    23.67610064
 CPU time [min]:  1032.877                   Wall time [min]:  3341.558
 
 Iteration  2  CC energy:    -8.06199410  Energy decrease:   0.00232179
 ======================================================================
