 --invoking executable--
/home/nike/cfour_v2.00beta/cfour_v2.00beta/bin/xjoda


   *************************************************************************
         <<<     CCCCCC     CCCCCC   |||     CCCCCC     CCCCCC   >>>
       <<<      CCC        CCC       |||    CCC        CCC         >>>
      <<<      CCC        CCC        |||   CCC        CCC            >>>
    <<<        CCC        CCC        |||   CCC        CCC              >>>
      <<<      CCC        CCC        |||   CCC        CCC            >>>
       <<<      CCC        CCC       |||    CCC        CCC         >>>
         <<<     CCCCCC     CCCCCC   |||     CCCCCC     CCCCCC   >>>
   *************************************************************************

     ****************************************************************
     * CFOUR Coupled-Cluster techniques for Computational Chemistry *
     ****************************************************************
 

   Department of Chemistry                Institut fuer Physikalische Chemie
   University of Texas at Austin          Universitaet Mainz
   Austin, TX  78712, USA                 D-55099 Mainz, Germany
 
                       Version 2.00beta
 
                     blg5215.int.ets1.calculquebec.ca                  
                     Mo 2. Mär 19:50:37 EST 2020                      
                     integer*8 version is running
 
********************************************************************************
*                          Input from ZMAT file                                *
********************************************************************************
TITLE                                                                           
C        0.00000        0.00000        0.00000                                  
C        1.32560        0.00000        0.00000                                  
H       -0.52840        0.94237        0.00000                                  
H        1.93370        0.89011        0.00000                                  
H       -0.57247       -0.91508       -0.00000                                  
Br       2.34093       -1.58640        0.00000                                  
                                                                                
*ACES2(CALC=CCSD(T)                                                             
#UNITS=BOHR                                                                     
#GEOM=2.6729874*10/5.29177210903_Pentasilane_def2-QZVP_pbe                      
COORD=CARTESIAN                                                                 
#COORD=INTERNAL                                                                 
PRINT=4                                                                         
JODA_PRINT=4                                                                    
INPUT_MRCC=OFF                                                                  
#CC_PROG=MRCC                                                                   
#FROZEN_CORE=ON                                                                 
DROPMO=1>16                                                                     
CONTRACTION=GENERAL                                                             
#CONTRACTION=SEGMENTED                                                          
RELATIVISTIC=OFF                                                                
#EXCITE=EOMEE                                                                   
#ESTATE_CONV=5                                                                  
#ESTATE_SYM=2/2/2/2/2/2/2/2                                                     
XFORM_TOL=18                                                                    
SAVE_INTS=ON                                                                    
SCF_EXPORDER=6                                                                  
SCF_EXPSTART=5                                                                  
#SCF_DAMPING=1000                                                               
SCF_EXTRAPOLATION=ON                                                            
SCF_CONV=11                                                                     
SCF_MAXCYC=99999                                                                
CC_CONV=9                                                                       
CC_MAXCYC=999                                                                   
T3_EXTRAPOL=ON                                                                  
REFERENCE=RHF                                                                   
#SYMMETRY=OFF                                                                   
#HFSTABILITY=FOLLOW                                                             
CHARGE=+0                                                                       
MULT=1                                                                          
ABCDTYPE=STANDARD                                                               
#OCCUPATION=3-2-2-0-1-0-0-0/3-1-1-0-1-0-0-0                                     
MEM=12                                                                          
MEM_UNIT=GB                                                                     
BASIS=SPECIAL)                                                                  
                                                                                
C:def2-TZVPP                                                                    
C:def2-TZVPP                                                                    
H:def2-TZVPP                                                                    
H:def2-TZVPP                                                                    
H:def2-TZVPP                                                                    
BR:def2-TZVPP                                                                   
                                                                                
********************************************************************************
  @GTFLGS-W, Keyword #UNITS not known and is ignored.
  @GTFLGS-W, Keyword #GEOM not known and is ignored.
  @GTFLGS-W, Keyword #COORD not known and is ignored.
  @GTFLGS-W, Keyword #CC_PROG not known and is ignored.
  @GTFLGS-W, Keyword #FROZEN_CORE not known and is ignored.
  @GTFLGS-W, Keyword #CONTRACTION not known and is ignored.
  @GTFLGS-W, Keyword #EXCITE not known and is ignored.
  @GTFLGS-W, Keyword #ESTATE_CONV not known and is ignored.
  @GTFLGS-W, Keyword #ESTATE_SYM not known and is ignored.
  @GTFLGS-W, Keyword #SCF_DAMPING not known and is ignored.
  @GTFLGS-W, Keyword #SYMMETRY not known and is ignored.
  @GTFLGS-W, Keyword #HFSTABILITY not known and is ignored.
  @GTFLGS-W, Keyword #OCCUPATION not known and is ignored.
    -------------------------------------------------------------------
                    CFOUR Control Parameters 
    -------------------------------------------------------------------
        External           Internal           Value            Units
          Name               Name
    -------------------------------------------------------------------
       ABCDTYPE             IABCDT         STANDARD     [  0]   ***   
       ANHARMONIC           IANHAR         OFF          [  0]   ***   
       ANH_ALGORIT          IANALG         STANDARD     [  0]   ***   
       ANH_DERIVAT          IANDER         SECOND       [  1]   ***   
       ANH_STEPSIZ          ICUBST             50000          x 10-6  
       ANH_SYMMETR          IANHSM         ABELIAN      [  0]   ***   
       AO_LADDERS           IAOLAD         SINGLEPASS   [  1]   ***   
       BASIS                IBASIS         SPECIAL      [  0]   ***   
       BREIT                IBREIT         OFF          [  0]   ***   
       BRUCK_CONV           IBRTOL          10D-  4             ***   
       BRUECKNER            IBRKNR             OFF      [  0]   ***   
       BUFFERSIZE           IBUFFS            600               ***   
       CACHE_RECS           ICHREC             10               ***   
       CALCLEVEL            ICLLVL           CCSD(T)    [ 22]   ***   
       CCORBOPT             ICCORB             OFF      [  0] x 0.01  
       CC_CONV              ICCCNV          10D-  9             ***   
       CC_EXPORDER          ICCEOR              5               ***   
       CC_EXTRAPOL          ICCEXT             DIIS     [  1]   ***   
       CC_MAXCYC            ICCCYC            999              cycles 
       CC_PROGRAM           ICCPRO         VCC          [  0]   ***   
       CHARGE               ICHRGE              0               ***   
       CHOLESKY             ICHOLE         OFF          [  0]   ***   
       CIS_CONV             ICISTL              5               ***   
       COMM_SIZE            IPSIZE            ***               ***   
       CONSTANT             ICONST         OLD          [  1]   ***   
       CONTINUUM            ICONTU         NONE         [  0]   ***   
       CONTRACTION          ICNTYP          GENERAL     [  1]   ***   
       COORDINATES          ICOORD         CARTESIAN    [  1]   ***   
       CPHF_CONVER          ICPHFT          10D- 16             ***   
       CPHF_MAXCYC          ICPHFC             64              cycles 
       CUBIC                ICUBIC         OFF          [  0]   ***   
       CURVILINEAR          ICURVY            OFF       [  0]   ***   
       DBOC                 IDBOC          OFF          [  0]   ***   
       DCT                  IDCT           OFF          [  0]   ***   
       DERIV_LEV            IDRLVL            ZERO      [  0]   ***   
       DIAG_MRCC            IEOMST          10D-  0             ***   
       DIFF_TYPE            IDIFTY         RELAXED      [  0]   ***   
       DIRECT               IDIRCT         OFF          [  0]   ***   
       DROPMO               IDRPMO   1,  2,  3,  4,  5,  6,  7,  8,
                                     9, 10, 11, 12, 13, 14, 15, 16,
       ECP                  IECP           OFF          [  0]   ***   
       EIGENVECTOR          IVEC                1               ***   
       EL_ANHARM            IELANH         OFF          [  0]   ***   
       EOMFOLLOW            IEOMSR         ENERGY       [  0]   ***   
       EOM_MRCC             IMRCCE         NEW          [  1]   ***   
       EOM_NONIT            EOMNON         OFF          [  0]   ***   
       EOM_NSING            IEOMSI          10D-  0             ***   
       EOM_NSTATES          IMRCCD         DAVIDSON     [  0]   ***   
       EOM_NTRIP            IEOMTR          10D-  0             ***   
       EOM_ORDER            IEXORD         ENERGY       [  0]   ***   
       ESTATE_CONV          IEXTOL          10D-  5             ***   
       ESTATE_DIAG          IEXDIG         ITERATIVE    [  0]   ***   
       ESTATE_LOCK          IESLOC         ON           [  1]   ***   
       ESTATE_MAXC          IEXMXC             20               ***   
       ESTATE_PROP          IEXPRP         OFF          [  0]   ***   
       EVAL_HESS            IRECAL              0            # of cyc.
       EXCITATION           IEXCIT              0               ***   
       EXCITE               IEXCIT         NONE         [  0]   ***   
       FCGRADNEW            IFCGNW         OFF          [  0]   ***   
       FC_FIELD             IFINFC              0             x 10-6  
       FD_CALTYPE           IFDCAL         GRADONLY     [  0]   ***   
       FD_PROJECT           IFDPRJ         OFF          [  1]   ***   
       FD_STEPSIZE          IDISFD              0            10-4 bohr
       FD_USEGROUP          IFDGRP         FULL         [  0]   ***   
       FILE_RECSIZ          IFLREC              4096           words  
       FINITE_PERT          IFIPER              0             x 10-6  
       FIXGEOM              IFIXGM         OFF          [  0]   ***   
       FOCK                 IFOCK          AO           [  1]   ***   
       FREQ_ALGORI          IVIALG         STANDARD     [  0]   ***   
       FROZEN_CORE          IFROCO         OFF          [  0]   ***   
       FROZEN_VIRT          IFROVI         OFF          [  0]   ***   
       GAMMA_ABCD           IGABCD         STORE        [  0]   ***   
       GAMMA_ABCI           IGABCI         STORE        [  0]   ***   
       GENBAS_1             IGNBS1              0               ***   
       GENBAS_2             IGNBS2              0               ***   
       GENBAS_3             IGNBS3              0               ***   
       GENBAS_4             IGNBS4              0               ***   
       GEO_CONV             ICONTL              5              H/bohr 
       GEO_MAXCYC           IOPTCY             50               ***   
       GEO_MAXSTEP          IMXSTP            300            millibohr
       GEO_METHOD           INR            SINGLE_POINT [  5]   ***   
       GIAO                 IGIAO          OFF          [  1]   ***   
       GIMIC                IGIMIC         OFF          [  0]   ***   
       GRID                 IGRID          OFF          [  0]   ***   
       GRID_ALGO            IGALGO         SERIAL       [  0]   ***   
       GUESS                IGUESS            MOREAD    [  0]   ***   
       HBAR                 IHBAR              OFF      [  0]   ***   
       HESS_TYPE            IHESTP         SCF          [  0]   ***   
       HF2_FILE             IHF2Fl         USE          [  1]   ***   
       HFSTABILITY          ISTABL         OFF          [  0]   ***   
       INCORE               INCORE             OFF      [  0]   ***   
       INPUT_MRCC           IMRCC          OFF          [  0]   ***   
       INTEGRALS            INTTYP             VMOL     [  1]   ***   
       JODA_PRINT           IJPRNT              4               ***   
       LINDEP_TOL           ILINDP              8               ***   
       LINEQ_CONV           IZTACN          10D-  7           cycles  
       LINEQ_EXPOR          ILMAXD              5               ***   
       LINEQ_MAXCY          ILMAXC             50               ***   
       LINEQ_TYPE           ILTYPE         DIIS         [  1]   ***   
       LOCK_ORBOCC          ILOCOC             OFF      [  0]   ***   
       MEMORY_SIZE          IMEMSZ         *********           words  
       MEM_UNIT             IMEMU          GB           [  3]   ***   
       MRCC                 IMRCCC         OFF          [  0]   ***   
       MULTIPLICTY          IMULTP              1               ***   
       NEGEVAL              IDIE             ABORT      [  0]   ***   
       NEWNORM              INEWNO         OFF          [  0]   ***   
       NON-HF               INONHF             OFF      [  0]   ***   
       NTOP_TAMP            ITOPT2             15               ***   
       NUC_MODEL            INUCMO         POINT        [  0]   ***   
       OCCUPATION           IOCCU   ESTIMATED BY SCF 
       OPEN-SHELL           IOPEN          SPIN-ORBITAL [  0]   ***   
       ORBITALS             IORBTP           STANDARD   [  0]   ***   
       PARALLEL             IPARAL         ON           [  1]   ***   
       PARA_INT             IPINTS         ON           [  1]   ***   
       PARA_PRINT           IPPRIN              0               ***   
       PERT_ORB             IPTORB         STANDARD     [  0]   ***   
       POINTS               IGRDFD              0               ***   
       PRINT                IPRNT               4               ***   
       PROPS                IPROPS             OFF      [  0]   ***   
       PROP_INTEGR          IINTYP         INTERNAL     [  0]   ***   
       PSI                  IPSI           OFF          [  0]   ***   
       QUARTIC              IQUART         OFF          [  0]   ***   
       RAMAN_INT            IRAMIN         OFF          [  0]   ***   
       RAMAN_ORB            IRAMRE         UNRELAXED    [  0]   ***   
       RDO                  IRDOFM             OFF      [  0]   ***   
       REFERENCE            IREFNC             RHF      [  0]   ***   
       RELATIVIST           IRELAT         OFF          [  0]   ***   
       RELAX_DENS           IRDENS             OFF      [  0]   ***   
       RESET_FLAGS          IRESET             OFF      [  0]   ***   
       RESTART_CC           ICCRES         OFF          [  0]   ***   
       ROT_EVEC             ROTVEC              0               ***   
       SAVE_INTS            ISVINT              ON      [  1]   ***   
       SCALE_ON             ISTCRT              0               ***   
       SCF_CONV             ISCFCV          10D- 11             ***   
       SCF_DAMPING          IDAMP               0             x 10-3  
       SCF_EXPORDE          IRPPOR              6               ***   
       SCF_EXPSTAR          IRPPLS              5               ***   
       SCF_EXTRAPO          IRPP                ON      [  1]   ***   
       SCF_MAXCYC           ISCFCY            ***              cycles 
       SCF_NOSTOP           ISCFST         OFF          [  0]   ***   
       SCF_PRINT            ISCFPR              0               ***   
       SD_FIELD             IFINSD              0             x 10-6  
       SEQUENCE             ISEQUE         OFF          [  0]   ***   
       SOPERT               IPERSO         OFF          [  0]   ***   
       SPHERICAL            IDFGHI             ON       [  1]   ***   
       SPINORBIT            ISOCAL         OFF          [  0]   ***   
       SPINROTATIO          ISRCON         OFF          [  0]   ***   
       SPIN_FLIP            ISPFLP         OFF          [  0]   ***   
       SPIN_ORBIT           ISPORB         OFF          [  0]   ***   
       SPIN_SCAL            ISCSMP         OFF          [  0]   ***   
       SUBGROUP             ISUBGP         DEFAULT      [  0]   ***   
       SUBGRPAXIS           ISBXYZ         X            [  0]   ***   
       SYMMETRY             ISYM             ON         [  0]   ***   
       SYM_CHECK            ISYMCK         OVERRIDE     [  1]   ***   
       T3_EXTRAPOL          IT3EXT         ON           [  1]   ***   
       TAMP_SUM             IEVERY              5               ***   
       TESTSUITE            ITESTS         OFF          [  0]   ***   
       THERMOCH             ITHERM         OFF          [  0]   ***   
       TOL_CHOLESK          ITOLCH          10D-  4             ***   
       TRANGRAD             IRESRM         OFF          [  0]   ***   
       TRANS_INV            ITRAIN         USE          [  0]   ***   
       TREAT_PERT           ITREAT         SIMULTANEOUS [  0]   ***   
       UIJ_THRESHO          IUIJTH              1               ***   
       UNITS                IUNITS         ANGSTROM     [  0]   ***   
       UNOS                 IUNOS          OFF          [  0]   ***   
       UPDATE_HESS          IHUPDT         ON           [  1]   ***   
       VIBPHASE             ISETPH         STANDARD     [  0]   ***   
       VIBRATION            IVIB              NO        [  0]   ***   
       VIB_ALGORIT          IGEALG         STANDARD     [  0]   ***   
       VNATORB              IVNORB         OFF          [  0]   ***   
       VTRAN                IVTRAN         FULL/PARTIAL [  0]   ***   
       XFIELD               IXEFLD              0             x 10-6  
       XFORM_TOL            IXFTOL          10D- 18             ***   
       YFIELD               IYEFLD              0             x 10-6  
       ZFIELD               IZEFLD              0             x 10-6  
    -------------------------------------------------------------------
  @GETXYZ-I,     6 atoms read from ZMAT.
  1  C          6    12.00000
  2  C          6    12.00000
  3  H          1     1.00783
  4  H          1     1.00783
  5  H          1     1.00783
  6  BR        35    78.91834
  1  C          6    12.00000
  2  C          6    12.00000
  3  H          1     1.00783
  4  H          1     1.00783
  5  H          1     1.00783
  6  BR        35    78.91834
   12.0000000000
   12.0000000000
    1.0078250350
    1.0078250350
    1.0078250350
   78.9183361000
 After translation to center of mass coordinates 
       -3.594037276832    2.216679981086    0.000000000000
       -1.089015801035    2.216679981086    0.000000000000
       -4.592568770353    3.997501562367    0.000000000000
        0.060126896183    3.898744454397    0.000000000000
       -4.675849018119    0.487429036553    0.000000000000
        0.829680227194   -0.781182171301    0.000000000000
  Inertia tensor (amu*bohr**2)
  197.75131  196.28260    0.00000
  196.28260  266.85669    0.00000
    0.00000    0.00000  464.60800
    Inertia tensor:
      197.751309109348  196.282596185638    0.000000000000
      196.282596185638  266.856692332015    0.000000000000
        0.000000000000    0.000000000000  464.608001441363
    Principal axis orientation for molecular system: 
       -4.177960122920   -0.612717958850    0.000000000000
       -2.259230019582    0.997750105021    0.000000000000
       -6.087671782511    0.109356846924    0.000000000000
       -2.460432458095    3.024912508403    0.000000000000
       -3.894849309983   -2.632736211329    0.000000000000
        1.137715342780   -0.064951235236    0.000000000000
    Diagonalized inertia tensor:
       33.003358315891    0.000000000000    0.000000000000
        0.000000000000  431.604643125472    0.000000000000
        0.000000000000    0.000000000000  464.608001441363
    Eigenvectors of inertia tensor: 
        0.765953554441    0.642895911045    0.000000000000
       -0.642895911045    0.765953554441    0.000000000000
        0.000000000000    0.000000000000    1.000000000000
 factor:   60.1997200000000     
   Rotational constants (in cm-1): 
          0.1295709928             0.1394788517             1.8240483112
   Rotational constants (in MHz): 
       3884.4411852812          4181.4713640264         54683.6003335161
  @SYMMETRY-I, Handedness of inertial frame: 1.00000
  @SYMMETRY-I, The symmetry group is 1-fold degenerate.
  @SYMMETRY-I, The molecule belongs to an Abelian group.
   Principal axis orientation for molecule:
       -4.177960122920   -0.612717958850    0.000000000000
       -2.259230019582    0.997750105021    0.000000000000
       -6.087671782511    0.109356846924    0.000000000000
       -2.460432458095    3.024912508403    0.000000000000
       -3.894849309983   -2.632736211329    0.000000000000
        1.137715342780   -0.064951235236    0.000000000000
   Reflection in plane  3 is a valid symmetry operation.
  Symmetry bits:    4   0   0
********************************************************************************
   The full molecular point group is C s .
   The largest Abelian subgroup of the full molecular point group is C s .
   The computational point group is C s .
********************************************************************************
 ----------------------------------------------------------------
 Z-matrix   Atomic            Coordinates (in bohr)
  Symbol    Number           X              Y              Z
 ----------------------------------------------------------------
     C         6        -4.17796012    -0.61271796     0.00000000
     C         6        -2.25923002     0.99775011     0.00000000
     H         1        -6.08767178     0.10935685     0.00000000
     H         1        -2.46043246     3.02491251     0.00000000
     H         1        -3.89484931    -2.63273621     0.00000000
     BR       35         1.13771534    -0.06495124     0.00000000
 ----------------------------------------------------------------
   Interatomic distance matrix (Angstroms) 
 
                 C             C             H             H             H    
                [ 1]        [ 2]        [ 3]        [ 4]        [ 5]
  C    [ 1]     0.00000
  C    [ 2]     1.32560     0.00000
  H    [ 3]     1.08040     2.07975     0.00000
  H    [ 4]     2.12873     1.07800     2.46265     0.00000
  H    [ 5]     1.07939     2.10714     1.85797     3.08862     0.00000
  BR   [ 6]     2.82783     1.88350     3.82462     2.50977     2.98974
 
                 BR   
                [ 6]
  BR   [ 6]     0.00000
  Inertia tensor (amu*bohr**2)
   33.00336    0.00000    0.00000
    0.00000  431.60464    0.00000
    0.00000    0.00000  464.60800
   Rotational constants (in cm-1): 
          1.8240483112             0.1394788517             0.1295709928
   Rotational constants (in MHz): 
      54683.6003335160          4181.4713640264          3884.4411852812
  @GTFLGS-W, Keyword #UNITS not known and is ignored.
  @GTFLGS-W, Keyword #GEOM not known and is ignored.
  @GTFLGS-W, Keyword #COORD not known and is ignored.
  @GTFLGS-W, Keyword #CC_PROG not known and is ignored.
  @GTFLGS-W, Keyword #FROZEN_CORE not known and is ignored.
  @GTFLGS-W, Keyword #CONTRACTION not known and is ignored.
  @GTFLGS-W, Keyword #EXCITE not known and is ignored.
  @GTFLGS-W, Keyword #ESTATE_CONV not known and is ignored.
  @GTFLGS-W, Keyword #ESTATE_SYM not known and is ignored.
  @GTFLGS-W, Keyword #SCF_DAMPING not known and is ignored.
  @GTFLGS-W, Keyword #SYMMETRY not known and is ignored.
  @GTFLGS-W, Keyword #HFSTABILITY not known and is ignored.
  @GTFLGS-W, Keyword #OCCUPATION not known and is ignored.
  There are  152 basis functions.
 @GEOPT-W, Archive file not created for single-point calculation.
  @CHECKOUT-I, Total execution time (CPU/WALL):        0.72/       1.98 seconds.
--executable xjoda finished with status     0 in        3.35 seconds (walltime).
 --invoking executable--
/home/nike/cfour_v2.00beta/cfour_v2.00beta/bin/xvmol
 Serial version of molecule started
********************************************************************************
                    Input from MOL file
********************************************************************************
INTGRL        1    0    1    0    0    0    0    0    0                         
         *** CFOUR Program System (Release V0.1) ***                            
TITLE                                                                           
    6    1 Z          0.10E-08              0    0                              
   9999.00      3.00                                                            
          6.00000000    1    4    1    1    1    1                              
C #1  -4.177960122920117  -0.612717958849565   0.000000000000000                
   11    5                                                                      
   13575.3496820000       2.224581435200000E-004  0.000000000000000E+000        
  0.000000000000000E+000  0.000000000000000E+000  0.000000000000000E+000        
   2035.23336800000       1.723273825200000E-003  0.000000000000000E+000        
  0.000000000000000E+000  0.000000000000000E+000  0.000000000000000E+000        
   463.225623590000       8.925571531400001E-003  0.000000000000000E+000        
  0.000000000000000E+000  0.000000000000000E+000  0.000000000000000E+000        
   131.200195980000       3.572798450200000E-002  0.000000000000000E+000        
  0.000000000000000E+000  0.000000000000000E+000  0.000000000000000E+000        
   42.8530158910000       0.110762599310000       0.000000000000000E+000        
  0.000000000000000E+000  0.000000000000000E+000  0.000000000000000E+000        
   15.5841857660000       0.242956276260000       0.000000000000000E+000        
  0.000000000000000E+000  0.000000000000000E+000  0.000000000000000E+000        
   6.20671385080000       0.000000000000000E+000  0.414402634480000             
  0.000000000000000E+000  0.000000000000000E+000  0.000000000000000E+000        
   2.57648965270000       0.000000000000000E+000  0.237449686550000             
  0.000000000000000E+000  0.000000000000000E+000  0.000000000000000E+000        
  0.576963394190000       0.000000000000000E+000  0.000000000000000E+000        
   1.00000000000000       0.000000000000000E+000  0.000000000000000E+000        
  0.229728313580000       0.000000000000000E+000  0.000000000000000E+000        
  0.000000000000000E+000   1.00000000000000       0.000000000000000E+000        
  9.516444002799999E-002  0.000000000000000E+000  0.000000000000000E+000        
  0.000000000000000E+000  0.000000000000000E+000   1.00000000000000             
    6    3                                                                      
   34.6972322440000       5.333365780500000E-003  0.000000000000000E+000        
  0.000000000000000E+000                                                        
   7.95826228260000       3.586410909200000E-002  0.000000000000000E+000        
  0.000000000000000E+000                                                        
   2.37808268830000       0.142158733290000       0.000000000000000E+000        
  0.000000000000000E+000                                                        
  0.814332081830000       0.342704718450000       0.000000000000000E+000        
  0.000000000000000E+000                                                        
  0.288875472530000       0.000000000000000E+000  0.464458224330000             
  0.000000000000000E+000                                                        
  0.100568236710000       0.000000000000000E+000  0.000000000000000E+000        
  0.249557898740000                                                             
    2    2                                                                      
   1.09700000000000        1.00000000000000       0.000000000000000E+000        
  0.318000000000000       0.000000000000000E+000   1.00000000000000             
    1    1                                                                      
  0.761000000000000        1.00000000000000                                     
          6.00000000    1    4    1    1    1    1                              
C #2  -2.259230019582023   0.997750105021491   0.000000000000000                
   11    5                                                                      
   13575.3496820000       2.224581435200000E-004  0.000000000000000E+000        
  0.000000000000000E+000  0.000000000000000E+000  0.000000000000000E+000        
   2035.23336800000       1.723273825200000E-003  0.000000000000000E+000        
  0.000000000000000E+000  0.000000000000000E+000  0.000000000000000E+000        
   463.225623590000       8.925571531400001E-003  0.000000000000000E+000        
  0.000000000000000E+000  0.000000000000000E+000  0.000000000000000E+000        
   131.200195980000       3.572798450200000E-002  0.000000000000000E+000        
  0.000000000000000E+000  0.000000000000000E+000  0.000000000000000E+000        
   42.8530158910000       0.110762599310000       0.000000000000000E+000        
  0.000000000000000E+000  0.000000000000000E+000  0.000000000000000E+000        
   15.5841857660000       0.242956276260000       0.000000000000000E+000        
  0.000000000000000E+000  0.000000000000000E+000  0.000000000000000E+000        
   6.20671385080000       0.000000000000000E+000  0.414402634480000             
  0.000000000000000E+000  0.000000000000000E+000  0.000000000000000E+000        
   2.57648965270000       0.000000000000000E+000  0.237449686550000             
  0.000000000000000E+000  0.000000000000000E+000  0.000000000000000E+000        
  0.576963394190000       0.000000000000000E+000  0.000000000000000E+000        
   1.00000000000000       0.000000000000000E+000  0.000000000000000E+000        
  0.229728313580000       0.000000000000000E+000  0.000000000000000E+000        
  0.000000000000000E+000   1.00000000000000       0.000000000000000E+000        
  9.516444002799999E-002  0.000000000000000E+000  0.000000000000000E+000        
  0.000000000000000E+000  0.000000000000000E+000   1.00000000000000             
    6    3                                                                      
   34.6972322440000       5.333365780500000E-003  0.000000000000000E+000        
  0.000000000000000E+000                                                        
   7.95826228260000       3.586410909200000E-002  0.000000000000000E+000        
  0.000000000000000E+000                                                        
   2.37808268830000       0.142158733290000       0.000000000000000E+000        
  0.000000000000000E+000                                                        
  0.814332081830000       0.342704718450000       0.000000000000000E+000        
  0.000000000000000E+000                                                        
  0.288875472530000       0.000000000000000E+000  0.464458224330000             
  0.000000000000000E+000                                                        
  0.100568236710000       0.000000000000000E+000  0.000000000000000E+000        
  0.249557898740000                                                             
    2    2                                                                      
   1.09700000000000        1.00000000000000       0.000000000000000E+000        
  0.318000000000000       0.000000000000000E+000   1.00000000000000             
    1    1                                                                      
  0.761000000000000        1.00000000000000                                     
          1.00000000    1    3    1    1    1                                   
H #3  -6.087671782511258   0.109356846923860   0.000000000000000                
    5    3                                                                      
   34.0613410000000       6.025197800000000E-003  0.000000000000000E+000        
  0.000000000000000E+000                                                        
   5.12357460000000       4.502109400000000E-002  0.000000000000000E+000        
  0.000000000000000E+000                                                        
   1.16466260000000       0.201897260000000       0.000000000000000E+000        
  0.000000000000000E+000                                                        
  0.327230410000000       0.000000000000000E+000   1.00000000000000             
  0.000000000000000E+000                                                        
  0.103072410000000       0.000000000000000E+000  0.000000000000000E+000        
   1.00000000000000                                                             
    2    2                                                                      
   1.40700000000000        1.00000000000000       0.000000000000000E+000        
  0.388000000000000       0.000000000000000E+000   1.00000000000000             
    1    1                                                                      
   1.05700000000000        1.00000000000000                                     
          1.00000000    1    3    1    1    1                                   
H #4  -2.460432458094675   3.024912508402798   0.000000000000000                
    5    3                                                                      
   34.0613410000000       6.025197800000000E-003  0.000000000000000E+000        
  0.000000000000000E+000                                                        
   5.12357460000000       4.502109400000000E-002  0.000000000000000E+000        
  0.000000000000000E+000                                                        
   1.16466260000000       0.201897260000000       0.000000000000000E+000        
  0.000000000000000E+000                                                        
  0.327230410000000       0.000000000000000E+000   1.00000000000000             
  0.000000000000000E+000                                                        
  0.103072410000000       0.000000000000000E+000  0.000000000000000E+000        
   1.00000000000000                                                             
    2    2                                                                      
   1.40700000000000        1.00000000000000       0.000000000000000E+000        
  0.388000000000000       0.000000000000000E+000   1.00000000000000             
    1    1                                                                      
   1.05700000000000        1.00000000000000                                     
          1.00000000    1    3    1    1    1                                   
H #5  -3.894849309983207  -2.632736211329112   0.000000000000000                
    5    3                                                                      
   34.0613410000000       6.025197800000000E-003  0.000000000000000E+000        
  0.000000000000000E+000                                                        
   5.12357460000000       4.502109400000000E-002  0.000000000000000E+000        
  0.000000000000000E+000                                                        
   1.16466260000000       0.201897260000000       0.000000000000000E+000        
  0.000000000000000E+000                                                        
  0.327230410000000       0.000000000000000E+000   1.00000000000000             
  0.000000000000000E+000                                                        
  0.103072410000000       0.000000000000000E+000  0.000000000000000E+000        
   1.00000000000000                                                             
    2    2                                                                      
   1.40700000000000        1.00000000000000       0.000000000000000E+000        
  0.388000000000000       0.000000000000000E+000   1.00000000000000             
    1    1                                                                      
   1.05700000000000        1.00000000000000                                     
         35.00000000    1    4    1    1    1    1                              
BR#6   1.137715342780162  -0.064951235236017   0.000000000000000                
   17    6                                                                      
   565073.252560000       2.366031469000000E-004  0.000000000000000E+000        
  0.000000000000000E+000  0.000000000000000E+000  0.000000000000000E+000        
  0.000000000000000E+000                                                        
   84701.7231790000       1.834833250800000E-003  0.000000000000000E+000        
  0.000000000000000E+000  0.000000000000000E+000  0.000000000000000E+000        
  0.000000000000000E+000                                                        
   19276.2719000000       9.546584986000001E-003  0.000000000000000E+000        
  0.000000000000000E+000  0.000000000000000E+000  0.000000000000000E+000        
  0.000000000000000E+000                                                        
   5456.42845760000       3.887714215300000E-002  0.000000000000000E+000        
  0.000000000000000E+000  0.000000000000000E+000  0.000000000000000E+000        
  0.000000000000000E+000                                                        
   1776.95035000000       0.127183142310000       0.000000000000000E+000        
  0.000000000000000E+000  0.000000000000000E+000  0.000000000000000E+000        
  0.000000000000000E+000                                                        
   639.193982760000       0.304376621910000       0.000000000000000E+000        
  0.000000000000000E+000  0.000000000000000E+000  0.000000000000000E+000        
  0.000000000000000E+000                                                        
   248.788239610000       0.444909404970000       0.000000000000000E+000        
  0.000000000000000E+000  0.000000000000000E+000  0.000000000000000E+000        
  0.000000000000000E+000                                                        
   98.6783054940000       0.243816430580000       0.000000000000000E+000        
  0.000000000000000E+000  0.000000000000000E+000  0.000000000000000E+000        
  0.000000000000000E+000                                                        
   606.078245680000       0.000000000000000E+000 -2.652715870900000E-002        
  0.000000000000000E+000  0.000000000000000E+000  0.000000000000000E+000        
  0.000000000000000E+000                                                        
   188.455984840000       0.000000000000000E+000 -0.124845848090000             
  0.000000000000000E+000  0.000000000000000E+000  0.000000000000000E+000        
  0.000000000000000E+000                                                        
   31.4971445060000       0.000000000000000E+000  0.564686835590000             
  0.000000000000000E+000  0.000000000000000E+000  0.000000000000000E+000        
  0.000000000000000E+000                                                        
   13.7360083200000       0.000000000000000E+000  0.555552685640000             
  0.000000000000000E+000  0.000000000000000E+000  0.000000000000000E+000        
  0.000000000000000E+000                                                        
   21.2032127660000       0.000000000000000E+000  0.000000000000000E+000        
 -0.249409204930000       0.000000000000000E+000  0.000000000000000E+000        
  0.000000000000000E+000                                                        
   3.76164201780000       0.000000000000000E+000  0.000000000000000E+000        
  0.712131197430000       0.000000000000000E+000  0.000000000000000E+000        
  0.000000000000000E+000                                                        
   1.77359339620000       0.000000000000000E+000  0.000000000000000E+000        
  0.000000000000000E+000   1.00000000000000       0.000000000000000E+000        
  0.000000000000000E+000                                                        
  0.451974136640000       0.000000000000000E+000  0.000000000000000E+000        
  0.000000000000000E+000  0.000000000000000E+000   1.00000000000000             
  0.000000000000000E+000                                                        
  0.166133770990000       0.000000000000000E+000  0.000000000000000E+000        
  0.000000000000000E+000  0.000000000000000E+000  0.000000000000000E+000        
   1.00000000000000                                                             
   13    5                                                                      
   3019.69557230000       2.497104979800000E-003  0.000000000000000E+000        
  0.000000000000000E+000  0.000000000000000E+000  0.000000000000000E+000        
   715.354811260000       2.041926759600000E-002  0.000000000000000E+000        
  0.000000000000000E+000  0.000000000000000E+000  0.000000000000000E+000        
   229.983287510000       9.689714830899999E-002  0.000000000000000E+000        
  0.000000000000000E+000  0.000000000000000E+000  0.000000000000000E+000        
   86.1678446150000       0.280539012520000       0.000000000000000E+000        
  0.000000000000000E+000  0.000000000000000E+000  0.000000000000000E+000        
   34.6678708020000       0.446063904730000       0.000000000000000E+000        
  0.000000000000000E+000  0.000000000000000E+000  0.000000000000000E+000        
   14.1138703070000       0.244100739230000       0.000000000000000E+000        
  0.000000000000000E+000  0.000000000000000E+000  0.000000000000000E+000        
   57.0856530820000       0.000000000000000E+000 -2.185595071000000E-002        
  0.000000000000000E+000  0.000000000000000E+000  0.000000000000000E+000        
   8.81938458400000       0.000000000000000E+000  0.327070753200000             
  0.000000000000000E+000  0.000000000000000E+000  0.000000000000000E+000        
   3.93403028720000       0.000000000000000E+000  0.578552295200000             
  0.000000000000000E+000  0.000000000000000E+000  0.000000000000000E+000        
   1.79988303840000       0.000000000000000E+000  0.335709876980000             
  0.000000000000000E+000  0.000000000000000E+000  0.000000000000000E+000        
  0.668994105120000       0.000000000000000E+000  0.000000000000000E+000        
   1.00000000000000       0.000000000000000E+000  0.000000000000000E+000        
  0.271362382310000       0.000000000000000E+000  0.000000000000000E+000        
  0.000000000000000E+000   1.00000000000000       0.000000000000000E+000        
  0.100837902430000       0.000000000000000E+000  0.000000000000000E+000        
  0.000000000000000E+000  0.000000000000000E+000   1.00000000000000             
    8    4                                                                      
   168.853702570000       8.966398198799999E-003  0.000000000000000E+000        
  0.000000000000000E+000  0.000000000000000E+000                                
   49.9779499190000       6.206205931600000E-002  0.000000000000000E+000        
  0.000000000000000E+000  0.000000000000000E+000                                
   18.2749133380000       0.214747323840000       0.000000000000000E+000        
  0.000000000000000E+000  0.000000000000000E+000                                
   7.24556946310000       0.403353367460000       0.000000000000000E+000        
  0.000000000000000E+000  0.000000000000000E+000                                
   2.85623150250000       0.422088130800000       0.000000000000000E+000        
  0.000000000000000E+000  0.000000000000000E+000                                
   1.04596211440000       0.000000000000000E+000  0.178748132670000             
  0.000000000000000E+000  0.000000000000000E+000                                
  0.568656550000000       0.000000000000000E+000  0.000000000000000E+000        
   1.00000000000000       0.000000000000000E+000                                
  0.220314900000000       0.000000000000000E+000  0.000000000000000E+000        
  0.000000000000000E+000   1.00000000000000                                     
    1    1                                                                      
  0.570833120000000        1.00000000000000                                     
FINISH                                                                          
 
********************************************************************************
 One- and two-electron integrals over symmetry-adapted AOs are calculated.

  Spherical harmonics are used.
  
   6 types of atoms
   1 symmetry operations

   Reflection in the XY-plane
  
  Integrals less than  0.10E-13 are neglected.

  Atomic type number  1 :
  -----------------------

    Nuclear charge:                        6
    number of symmetry independent atoms:  1
    highest orbital type:                  f

      1 groups of CGTOs of s type
      1 groups of CGTOs of p type
      1 groups of CGTOs of d type
      1 groups of CGTOs of f type

    nuclear coordinates (in a.u.) are :

    C #1       -4.177960122920117       -0.612717958849565        0.000000000000000
  
   Basis function not normalized: 
   Center (as ordered in MOL file):   1
   Angular Momentum type          : s
   Offset within angular momentum :  1
   <chi|chi>                      :    2.7261534527
   Basis function not normalized: 
   Center (as ordered in MOL file):   1
   Angular Momentum type          : s
   Offset within angular momentum :  2
   <chi|chi>                      :    1.5828883092
   Basis function not normalized: 
   Center (as ordered in MOL file):   1
   Angular Momentum type          : p
   Offset within angular momentum :  1
   <chi|chi>                      :    2.1238408295
   Basis function not normalized: 
   Center (as ordered in MOL file):   1
   Angular Momentum type          : p
   Offset within angular momentum :  2
   <chi|chi>                      :    2.1530461678
   Basis function not normalized: 
   Center (as ordered in MOL file):   1
   Angular Momentum type          : p
   Offset within angular momentum :  3
   <chi|chi>                      :    4.0070861513
  Atomic type number  2 :
  -----------------------

    Nuclear charge:                        6
    number of symmetry independent atoms:  1
    highest orbital type:                  f

      1 groups of CGTOs of s type
      1 groups of CGTOs of p type
      1 groups of CGTOs of d type
      1 groups of CGTOs of f type

    nuclear coordinates (in a.u.) are :

    C #2       -2.259230019582023        0.997750105021491        0.000000000000000
  
   Basis function not normalized: 
   Center (as ordered in MOL file):   2
   Angular Momentum type          : s
   Offset within angular momentum :  1
   <chi|chi>                      :    2.7261534527
   Basis function not normalized: 
   Center (as ordered in MOL file):   2
   Angular Momentum type          : s
   Offset within angular momentum :  2
   <chi|chi>                      :    1.5828883092
   Basis function not normalized: 
   Center (as ordered in MOL file):   2
   Angular Momentum type          : p
   Offset within angular momentum :  1
   <chi|chi>                      :    2.1238408295
   Basis function not normalized: 
   Center (as ordered in MOL file):   2
   Angular Momentum type          : p
   Offset within angular momentum :  2
   <chi|chi>                      :    2.1530461678
   Basis function not normalized: 
   Center (as ordered in MOL file):   2
   Angular Momentum type          : p
   Offset within angular momentum :  3
   <chi|chi>                      :    4.0070861513
  Atomic type number  3 :
  -----------------------

    Nuclear charge:                        1
    number of symmetry independent atoms:  1
    highest orbital type:                  d

      1 groups of CGTOs of s type
      1 groups of CGTOs of p type
      1 groups of CGTOs of d type

    nuclear coordinates (in a.u.) are :

    H #3       -6.087671782511258        0.109356846923860        0.000000000000000
  
   Basis function not normalized: 
   Center (as ordered in MOL file):   3
   Angular Momentum type          : s
   Offset within angular momentum :  1
   <chi|chi>                      :    4.2221530402
  Atomic type number  4 :
  -----------------------

    Nuclear charge:                        1
    number of symmetry independent atoms:  1
    highest orbital type:                  d

      1 groups of CGTOs of s type
      1 groups of CGTOs of p type
      1 groups of CGTOs of d type

    nuclear coordinates (in a.u.) are :

    H #4       -2.460432458094675        3.024912508402798        0.000000000000000
  
   Basis function not normalized: 
   Center (as ordered in MOL file):   4
   Angular Momentum type          : s
   Offset within angular momentum :  1
   <chi|chi>                      :    4.2221530402
  Atomic type number  5 :
  -----------------------

    Nuclear charge:                        1
    number of symmetry independent atoms:  1
    highest orbital type:                  d

      1 groups of CGTOs of s type
      1 groups of CGTOs of p type
      1 groups of CGTOs of d type

    nuclear coordinates (in a.u.) are :

    H #5       -3.894849309983207       -2.632736211329112        0.000000000000000
  
   Basis function not normalized: 
   Center (as ordered in MOL file):   5
   Angular Momentum type          : s
   Offset within angular momentum :  1
   <chi|chi>                      :    4.2221530402
  Atomic type number  6 :
  -----------------------

    Nuclear charge:                       35
    number of symmetry independent atoms:  1
    highest orbital type:                  f

      1 groups of CGTOs of s type
      1 groups of CGTOs of p type
      1 groups of CGTOs of d type
      1 groups of CGTOs of f type

    nuclear coordinates (in a.u.) are :

    BR#6        1.137715342780162       -0.064951235236017        0.000000000000000
  
   Basis function not normalized: 
   Center (as ordered in MOL file):   6
   Angular Momentum type          : s
   Offset within angular momentum :  1
   <chi|chi>                      :    0.9780076170
   Basis function not normalized: 
   Center (as ordered in MOL file):   6
   Angular Momentum type          : s
   Offset within angular momentum :  2
   <chi|chi>                      :    0.9727011625
   Basis function not normalized: 
   Center (as ordered in MOL file):   6
   Angular Momentum type          : s
   Offset within angular momentum :  3
   <chi|chi>                      :    1.6798761328
   Basis function not normalized: 
   Center (as ordered in MOL file):   6
   Angular Momentum type          : p
   Offset within angular momentum :  1
   <chi|chi>                      :    1.0804098112
   Basis function not normalized: 
   Center (as ordered in MOL file):   6
   Angular Momentum type          : p
   Offset within angular momentum :  2
   <chi|chi>                      :    0.8825142330
   Basis function not normalized: 
   Center (as ordered in MOL file):   6
   Angular Momentum type          : d
   Offset within angular momentum :  1
   <chi|chi>                      :    1.0977459955
   Basis function not normalized: 
   Center (as ordered in MOL file):   6
   Angular Momentum type          : d
   Offset within angular momentum :  2
   <chi|chi>                      :    5.5944640375
   Internuclear distances (A) :

     for atom C #1 (coordinates :  -4.17796  -0.61272   0.00000)

     C #2   1     distance is  1.326
     H #3   1     distance is  1.080
     H #4   1     distance is  2.129
     H #5   1     distance is  1.079
     BR#6   1     distance is  2.828

     for atom C #2 (coordinates :  -2.25923   0.99775   0.00000)

     H #3   1     distance is  2.080
     H #4   1     distance is  1.078
     H #5   1     distance is  2.107
     BR#6   1     distance is  1.883

     for atom H #3 (coordinates :  -6.08767   0.10936   0.00000)

     H #4   1     distance is  2.463
     H #5   1     distance is  1.858
     BR#6   1     distance is  3.825

     for atom H #4 (coordinates :  -2.46043   3.02491   0.00000)

     H #5   1     distance is  3.089
     BR#6   1     distance is  2.510

     for atom H #5 (coordinates :  -3.89485  -2.63274   0.00000)

     BR#6   1     distance is  2.990

     for atom BR#6 (coordinates :   1.13772  -0.06495   0.00000)


   Group multiplication table :

         1   2
         2   1

   Gaussian basis information :

   atom                 exponent      coefficients

 C #1  1    S   
+                 1   13575.349682   0.0002225   0.0000000   0.0000000   0.0000000   0.0000000
                  2    2035.233368   0.0017233   0.0000000   0.0000000   0.0000000   0.0000000
                  3     463.225624   0.0089256   0.0000000   0.0000000   0.0000000   0.0000000
                  4     131.200196   0.0357280   0.0000000   0.0000000   0.0000000   0.0000000
                  5      42.853016   0.1107626   0.0000000   0.0000000   0.0000000   0.0000000
                  6      15.584186   0.2429563   0.0000000   0.0000000   0.0000000   0.0000000
                  7       6.206714   0.0000000   0.4144026   0.0000000   0.0000000   0.0000000
                  8       2.576490   0.0000000   0.2374497   0.0000000   0.0000000   0.0000000
                  9       0.576963   0.0000000   0.0000000   1.0000000   0.0000000   0.0000000
                 10       0.229728   0.0000000   0.0000000   0.0000000   1.0000000   0.0000000
                 11       0.095164   0.0000000   0.0000000   0.0000000   0.0000000   1.0000000

 C #1  1    X   
+                12      34.697232   0.0053334   0.0000000   0.0000000
                 13       7.958262   0.0358641   0.0000000   0.0000000
                 14       2.378083   0.1421587   0.0000000   0.0000000
                 15       0.814332   0.3427047   0.0000000   0.0000000
                 16       0.288875   0.0000000   0.4644582   0.0000000
                 17       0.100568   0.0000000   0.0000000   0.2495579

 C #1  1    Y   
+                18      34.697232   0.0053334   0.0000000   0.0000000
                 19       7.958262   0.0358641   0.0000000   0.0000000
                 20       2.378083   0.1421587   0.0000000   0.0000000
                 21       0.814332   0.3427047   0.0000000   0.0000000
                 22       0.288875   0.0000000   0.4644582   0.0000000
                 23       0.100568   0.0000000   0.0000000   0.2495579

 C #1  1    Z   
+                24      34.697232   0.0053334   0.0000000   0.0000000
                 25       7.958262   0.0358641   0.0000000   0.0000000
                 26       2.378083   0.1421587   0.0000000   0.0000000
                 27       0.814332   0.3427047   0.0000000   0.0000000
                 28       0.288875   0.0000000   0.4644582   0.0000000
                 29       0.100568   0.0000000   0.0000000   0.2495579

 C #1  1    XX  
+                30       1.097000   1.0000000   0.0000000
                 31       0.318000   0.0000000   1.0000000

 C #1  1    XY  
+                32       1.097000   1.0000000   0.0000000
                 33       0.318000   0.0000000   1.0000000

 C #1  1    XZ  
+                34       1.097000   1.0000000   0.0000000
                 35       0.318000   0.0000000   1.0000000

 C #1  1    YY  
+                36       1.097000   1.0000000   0.0000000
                 37       0.318000   0.0000000   1.0000000

 C #1  1    YZ  
+                38       1.097000   1.0000000   0.0000000
                 39       0.318000   0.0000000   1.0000000

 C #1  1    ZZ  
+                40       1.097000   1.0000000   0.0000000
                 41       0.318000   0.0000000   1.0000000

 C #1  1    F300
+                42       0.761000   1.0000000

 C #1  1    F210
+                43       0.761000   1.0000000

 C #1  1    F201
+                44       0.761000   1.0000000

 C #1  1    F120
+                45       0.761000   1.0000000

 C #1  1    F111
+                46       0.761000   1.0000000

 C #1  1    F102
+                47       0.761000   1.0000000

 C #1  1    F030
+                48       0.761000   1.0000000

 C #1  1    F021
+                49       0.761000   1.0000000

 C #1  1    F012
+                50       0.761000   1.0000000

 C #1  1    F003
+                51       0.761000   1.0000000

 C #2  1    S   
+                52   13575.349682   0.0002225   0.0000000   0.0000000   0.0000000   0.0000000
                 53    2035.233368   0.0017233   0.0000000   0.0000000   0.0000000   0.0000000
                 54     463.225624   0.0089256   0.0000000   0.0000000   0.0000000   0.0000000
                 55     131.200196   0.0357280   0.0000000   0.0000000   0.0000000   0.0000000
                 56      42.853016   0.1107626   0.0000000   0.0000000   0.0000000   0.0000000
                 57      15.584186   0.2429563   0.0000000   0.0000000   0.0000000   0.0000000
                 58       6.206714   0.0000000   0.4144026   0.0000000   0.0000000   0.0000000
                 59       2.576490   0.0000000   0.2374497   0.0000000   0.0000000   0.0000000
                 60       0.576963   0.0000000   0.0000000   1.0000000   0.0000000   0.0000000
                 61       0.229728   0.0000000   0.0000000   0.0000000   1.0000000   0.0000000
                 62       0.095164   0.0000000   0.0000000   0.0000000   0.0000000   1.0000000

 C #2  1    X   
+                63      34.697232   0.0053334   0.0000000   0.0000000
                 64       7.958262   0.0358641   0.0000000   0.0000000
                 65       2.378083   0.1421587   0.0000000   0.0000000
                 66       0.814332   0.3427047   0.0000000   0.0000000
                 67       0.288875   0.0000000   0.4644582   0.0000000
                 68       0.100568   0.0000000   0.0000000   0.2495579

 C #2  1    Y   
+                69      34.697232   0.0053334   0.0000000   0.0000000
                 70       7.958262   0.0358641   0.0000000   0.0000000
                 71       2.378083   0.1421587   0.0000000   0.0000000
                 72       0.814332   0.3427047   0.0000000   0.0000000
                 73       0.288875   0.0000000   0.4644582   0.0000000
                 74       0.100568   0.0000000   0.0000000   0.2495579

 C #2  1    Z   
+                75      34.697232   0.0053334   0.0000000   0.0000000
                 76       7.958262   0.0358641   0.0000000   0.0000000
                 77       2.378083   0.1421587   0.0000000   0.0000000
                 78       0.814332   0.3427047   0.0000000   0.0000000
                 79       0.288875   0.0000000   0.4644582   0.0000000
                 80       0.100568   0.0000000   0.0000000   0.2495579

 C #2  1    XX  
+                81       1.097000   1.0000000   0.0000000
                 82       0.318000   0.0000000   1.0000000

 C #2  1    XY  
+                83       1.097000   1.0000000   0.0000000
                 84       0.318000   0.0000000   1.0000000

 C #2  1    XZ  
+                85       1.097000   1.0000000   0.0000000
                 86       0.318000   0.0000000   1.0000000

 C #2  1    YY  
+                87       1.097000   1.0000000   0.0000000
                 88       0.318000   0.0000000   1.0000000

 C #2  1    YZ  
+                89       1.097000   1.0000000   0.0000000
                 90       0.318000   0.0000000   1.0000000

 C #2  1    ZZ  
+                91       1.097000   1.0000000   0.0000000
                 92       0.318000   0.0000000   1.0000000

 C #2  1    F300
+                93       0.761000   1.0000000

 C #2  1    F210
+                94       0.761000   1.0000000

 C #2  1    F201
+                95       0.761000   1.0000000

 C #2  1    F120
+                96       0.761000   1.0000000

 C #2  1    F111
+                97       0.761000   1.0000000

 C #2  1    F102
+                98       0.761000   1.0000000

 C #2  1    F030
+                99       0.761000   1.0000000

 C #2  1    F021
+               100       0.761000   1.0000000

 C #2  1    F012
+               101       0.761000   1.0000000

 C #2  1    F003
+               102       0.761000   1.0000000

 H #3  1    S   
+               103      34.061341   0.0060252   0.0000000   0.0000000
                104       5.123575   0.0450211   0.0000000   0.0000000
                105       1.164663   0.2018973   0.0000000   0.0000000
                106       0.327230   0.0000000   1.0000000   0.0000000
                107       0.103072   0.0000000   0.0000000   1.0000000

 H #3  1    X   
+               108       1.407000   1.0000000   0.0000000
                109       0.388000   0.0000000   1.0000000

 H #3  1    Y   
+               110       1.407000   1.0000000   0.0000000
                111       0.388000   0.0000000   1.0000000

 H #3  1    Z   
+               112       1.407000   1.0000000   0.0000000
                113       0.388000   0.0000000   1.0000000

 H #3  1    XX  
+               114       1.057000   1.0000000

 H #3  1    XY  
+               115       1.057000   1.0000000

 H #3  1    XZ  
+               116       1.057000   1.0000000

 H #3  1    YY  
+               117       1.057000   1.0000000

 H #3  1    YZ  
+               118       1.057000   1.0000000

 H #3  1    ZZ  
+               119       1.057000   1.0000000

 H #4  1    S   
+               120      34.061341   0.0060252   0.0000000   0.0000000
                121       5.123575   0.0450211   0.0000000   0.0000000
                122       1.164663   0.2018973   0.0000000   0.0000000
                123       0.327230   0.0000000   1.0000000   0.0000000
                124       0.103072   0.0000000   0.0000000   1.0000000

 H #4  1    X   
+               125       1.407000   1.0000000   0.0000000
                126       0.388000   0.0000000   1.0000000

 H #4  1    Y   
+               127       1.407000   1.0000000   0.0000000
                128       0.388000   0.0000000   1.0000000

 H #4  1    Z   
+               129       1.407000   1.0000000   0.0000000
                130       0.388000   0.0000000   1.0000000

 H #4  1    XX  
+               131       1.057000   1.0000000

 H #4  1    XY  
+               132       1.057000   1.0000000

 H #4  1    XZ  
+               133       1.057000   1.0000000

 H #4  1    YY  
+               134       1.057000   1.0000000

 H #4  1    YZ  
+               135       1.057000   1.0000000

 H #4  1    ZZ  
+               136       1.057000   1.0000000

 H #5  1    S   
+               137      34.061341   0.0060252   0.0000000   0.0000000
                138       5.123575   0.0450211   0.0000000   0.0000000
                139       1.164663   0.2018973   0.0000000   0.0000000
                140       0.327230   0.0000000   1.0000000   0.0000000
                141       0.103072   0.0000000   0.0000000   1.0000000

 H #5  1    X   
+               142       1.407000   1.0000000   0.0000000
                143       0.388000   0.0000000   1.0000000

 H #5  1    Y   
+               144       1.407000   1.0000000   0.0000000
                145       0.388000   0.0000000   1.0000000

 H #5  1    Z   
+               146       1.407000   1.0000000   0.0000000
                147       0.388000   0.0000000   1.0000000

 H #5  1    XX  
+               148       1.057000   1.0000000

 H #5  1    XY  
+               149       1.057000   1.0000000

 H #5  1    XZ  
+               150       1.057000   1.0000000

 H #5  1    YY  
+               151       1.057000   1.0000000

 H #5  1    YZ  
+               152       1.057000   1.0000000

 H #5  1    ZZ  
+               153       1.057000   1.0000000

 BR#6  1    S   
+               154  565073.252560   0.0002366   0.0000000   0.0000000   0.0000000   0.0000000   0.0000000
                155   84701.723179   0.0018348   0.0000000   0.0000000   0.0000000   0.0000000   0.0000000
                156   19276.271900   0.0095466   0.0000000   0.0000000   0.0000000   0.0000000   0.0000000
                157    5456.428458   0.0388771   0.0000000   0.0000000   0.0000000   0.0000000   0.0000000
                158    1776.950350   0.1271831   0.0000000   0.0000000   0.0000000   0.0000000   0.0000000
                159     639.193983   0.3043766   0.0000000   0.0000000   0.0000000   0.0000000   0.0000000
                160     248.788240   0.4449094   0.0000000   0.0000000   0.0000000   0.0000000   0.0000000
                161      98.678305   0.2438164   0.0000000   0.0000000   0.0000000   0.0000000   0.0000000
                162     606.078246   0.0000000  -0.0265272   0.0000000   0.0000000   0.0000000   0.0000000
                163     188.455985   0.0000000  -0.1248458   0.0000000   0.0000000   0.0000000   0.0000000
                164      31.497145   0.0000000   0.5646868   0.0000000   0.0000000   0.0000000   0.0000000
                165      13.736008   0.0000000   0.5555527   0.0000000   0.0000000   0.0000000   0.0000000
                166      21.203213   0.0000000   0.0000000  -0.2494092   0.0000000   0.0000000   0.0000000
                167       3.761642   0.0000000   0.0000000   0.7121312   0.0000000   0.0000000   0.0000000
                168       1.773593   0.0000000   0.0000000   0.0000000   1.0000000   0.0000000   0.0000000
                169       0.451974   0.0000000   0.0000000   0.0000000   0.0000000   1.0000000   0.0000000
                170       0.166134   0.0000000   0.0000000   0.0000000   0.0000000   0.0000000   1.0000000

 BR#6  1    X   
+               171    3019.695572   0.0024971   0.0000000   0.0000000   0.0000000   0.0000000
                172     715.354811   0.0204193   0.0000000   0.0000000   0.0000000   0.0000000
                173     229.983288   0.0968971   0.0000000   0.0000000   0.0000000   0.0000000
                174      86.167845   0.2805390   0.0000000   0.0000000   0.0000000   0.0000000
                175      34.667871   0.4460639   0.0000000   0.0000000   0.0000000   0.0000000
                176      14.113870   0.2441007   0.0000000   0.0000000   0.0000000   0.0000000
                177      57.085653   0.0000000  -0.0218560   0.0000000   0.0000000   0.0000000
                178       8.819385   0.0000000   0.3270708   0.0000000   0.0000000   0.0000000
                179       3.934030   0.0000000   0.5785523   0.0000000   0.0000000   0.0000000
                180       1.799883   0.0000000   0.3357099   0.0000000   0.0000000   0.0000000
                181       0.668994   0.0000000   0.0000000   1.0000000   0.0000000   0.0000000
                182       0.271362   0.0000000   0.0000000   0.0000000   1.0000000   0.0000000
                183       0.100838   0.0000000   0.0000000   0.0000000   0.0000000   1.0000000

 BR#6  1    Y   
+               184    3019.695572   0.0024971   0.0000000   0.0000000   0.0000000   0.0000000
                185     715.354811   0.0204193   0.0000000   0.0000000   0.0000000   0.0000000
                186     229.983288   0.0968971   0.0000000   0.0000000   0.0000000   0.0000000
                187      86.167845   0.2805390   0.0000000   0.0000000   0.0000000   0.0000000
                188      34.667871   0.4460639   0.0000000   0.0000000   0.0000000   0.0000000
                189      14.113870   0.2441007   0.0000000   0.0000000   0.0000000   0.0000000
                190      57.085653   0.0000000  -0.0218560   0.0000000   0.0000000   0.0000000
                191       8.819385   0.0000000   0.3270708   0.0000000   0.0000000   0.0000000
                192       3.934030   0.0000000   0.5785523   0.0000000   0.0000000   0.0000000
                193       1.799883   0.0000000   0.3357099   0.0000000   0.0000000   0.0000000
                194       0.668994   0.0000000   0.0000000   1.0000000   0.0000000   0.0000000
                195       0.271362   0.0000000   0.0000000   0.0000000   1.0000000   0.0000000
                196       0.100838   0.0000000   0.0000000   0.0000000   0.0000000   1.0000000

 BR#6  1    Z   
+               197    3019.695572   0.0024971   0.0000000   0.0000000   0.0000000   0.0000000
                198     715.354811   0.0204193   0.0000000   0.0000000   0.0000000   0.0000000
                199     229.983288   0.0968971   0.0000000   0.0000000   0.0000000   0.0000000
                200      86.167845   0.2805390   0.0000000   0.0000000   0.0000000   0.0000000
                201      34.667871   0.4460639   0.0000000   0.0000000   0.0000000   0.0000000
                202      14.113870   0.2441007   0.0000000   0.0000000   0.0000000   0.0000000
                203      57.085653   0.0000000  -0.0218560   0.0000000   0.0000000   0.0000000
                204       8.819385   0.0000000   0.3270708   0.0000000   0.0000000   0.0000000
                205       3.934030   0.0000000   0.5785523   0.0000000   0.0000000   0.0000000
                206       1.799883   0.0000000   0.3357099   0.0000000   0.0000000   0.0000000
                207       0.668994   0.0000000   0.0000000   1.0000000   0.0000000   0.0000000
                208       0.271362   0.0000000   0.0000000   0.0000000   1.0000000   0.0000000
                209       0.100838   0.0000000   0.0000000   0.0000000   0.0000000   1.0000000

 BR#6  1    XX  
+               210     168.853703   0.0089664   0.0000000   0.0000000   0.0000000
                211      49.977950   0.0620621   0.0000000   0.0000000   0.0000000
                212      18.274913   0.2147473   0.0000000   0.0000000   0.0000000
                213       7.245569   0.4033534   0.0000000   0.0000000   0.0000000
                214       2.856232   0.4220881   0.0000000   0.0000000   0.0000000
                215       1.045962   0.0000000   0.1787481   0.0000000   0.0000000
                216       0.568657   0.0000000   0.0000000   1.0000000   0.0000000
                217       0.220315   0.0000000   0.0000000   0.0000000   1.0000000

 BR#6  1    XY  
+               218     168.853703   0.0089664   0.0000000   0.0000000   0.0000000
                219      49.977950   0.0620621   0.0000000   0.0000000   0.0000000
                220      18.274913   0.2147473   0.0000000   0.0000000   0.0000000
                221       7.245569   0.4033534   0.0000000   0.0000000   0.0000000
                222       2.856232   0.4220881   0.0000000   0.0000000   0.0000000
                223       1.045962   0.0000000   0.1787481   0.0000000   0.0000000
                224       0.568657   0.0000000   0.0000000   1.0000000   0.0000000
                225       0.220315   0.0000000   0.0000000   0.0000000   1.0000000

 BR#6  1    XZ  
+               226     168.853703   0.0089664   0.0000000   0.0000000   0.0000000
                227      49.977950   0.0620621   0.0000000   0.0000000   0.0000000
                228      18.274913   0.2147473   0.0000000   0.0000000   0.0000000
                229       7.245569   0.4033534   0.0000000   0.0000000   0.0000000
                230       2.856232   0.4220881   0.0000000   0.0000000   0.0000000
                231       1.045962   0.0000000   0.1787481   0.0000000   0.0000000
                232       0.568657   0.0000000   0.0000000   1.0000000   0.0000000
                233       0.220315   0.0000000   0.0000000   0.0000000   1.0000000

 BR#6  1    YY  
+               234     168.853703   0.0089664   0.0000000   0.0000000   0.0000000
                235      49.977950   0.0620621   0.0000000   0.0000000   0.0000000
                236      18.274913   0.2147473   0.0000000   0.0000000   0.0000000
                237       7.245569   0.4033534   0.0000000   0.0000000   0.0000000
                238       2.856232   0.4220881   0.0000000   0.0000000   0.0000000
                239       1.045962   0.0000000   0.1787481   0.0000000   0.0000000
                240       0.568657   0.0000000   0.0000000   1.0000000   0.0000000
                241       0.220315   0.0000000   0.0000000   0.0000000   1.0000000

 BR#6  1    YZ  
+               242     168.853703   0.0089664   0.0000000   0.0000000   0.0000000
                243      49.977950   0.0620621   0.0000000   0.0000000   0.0000000
                244      18.274913   0.2147473   0.0000000   0.0000000   0.0000000
                245       7.245569   0.4033534   0.0000000   0.0000000   0.0000000
                246       2.856232   0.4220881   0.0000000   0.0000000   0.0000000
                247       1.045962   0.0000000   0.1787481   0.0000000   0.0000000
                248       0.568657   0.0000000   0.0000000   1.0000000   0.0000000
                249       0.220315   0.0000000   0.0000000   0.0000000   1.0000000

 BR#6  1    ZZ  
+               250     168.853703   0.0089664   0.0000000   0.0000000   0.0000000
                251      49.977950   0.0620621   0.0000000   0.0000000   0.0000000
                252      18.274913   0.2147473   0.0000000   0.0000000   0.0000000
                253       7.245569   0.4033534   0.0000000   0.0000000   0.0000000
                254       2.856232   0.4220881   0.0000000   0.0000000   0.0000000
                255       1.045962   0.0000000   0.1787481   0.0000000   0.0000000
                256       0.568657   0.0000000   0.0000000   1.0000000   0.0000000
                257       0.220315   0.0000000   0.0000000   0.0000000   1.0000000

 BR#6  1    F300
+               258       0.570833   1.0000000

 BR#6  1    F210
+               259       0.570833   1.0000000

 BR#6  1    F201
+               260       0.570833   1.0000000

 BR#6  1    F120
+               261       0.570833   1.0000000

 BR#6  1    F111
+               262       0.570833   1.0000000

 BR#6  1    F102
+               263       0.570833   1.0000000

 BR#6  1    F030
+               264       0.570833   1.0000000

 BR#6  1    F021
+               265       0.570833   1.0000000

 BR#6  1    F012
+               266       0.570833   1.0000000

 BR#6  1    F003
+               267       0.570833   1.0000000
172152
  1  2  3  4  5  6  7  8  9 10 11 12 13 14 15 16 17****** 18 19 20*** 21***
 22 23 24 25 26 27 28 29 30 31 32 33 34 35 36 37 38****** 39 40 41*** 42***
 43 44 45 46 47 48 49 50 51 52*** 53 54 55 56 57 58 59 60 61 62*** 63 64 65
 66 67 68 69 70 71 72*** 73 74 75 76 77 78 79 80 81 82 83 84 85 86 87 88 89
 90 91 92 93 94 95 96 97 98 99100************101102103***104***105106107108
109110111112113114***115116117118119120121122123124***125126127128129130131
132133134135136137138139140141142143144145146147148149150151152***
1

             SYMMETRY TRANSFORMATION INFO
            152 SYMMETRY ADAPTED BASIS FUNCTIONS 


          irreducible representation number 1

    1    1  C #1     1s     1   1   1.0
    2    2  C #1     1s     1   2   1.0
    3    3  C #1     1s     1   3   1.0
    4    4  C #1     1s     1   4   1.0
    5    5  C #1     1s     1   5   1.0
    6    6  C #1     2px    1   6   1.0
    7    7  C #1     2px    1   7   1.0
    8    8  C #1     2px    1   8   1.0
    9    9  C #1     2py    1   9   1.0
   10   10  C #1     2py    1  10   1.0
   11   11  C #1     2py    1  11   1.0
   12   12  C #1     3d2-   3  15  -1.0  21  -1.0  25   2.0
   13   13  C #1     3d2-   3  16  -1.0  22  -1.0  26   2.0
   14   14  C #1     3d1-   1  17   1.0
   15   15  C #1     3d1-   1  18   1.0
   16   16  C #1     3d1+   2  15   1.0  21  -1.0
   17   17  C #1     3d1+   2  16   1.0  22  -1.0
   18   18  C #1     4f3-   3  27  -1.0  30  -1.0  32   4.0
   19   19  C #1     4f2-   3  28  -1.0  33  -1.0  35   4.0
   20   20  C #1     4f0    2  27   1.0  30  -3.0
   21   21  C #1     4f2+   2  28   3.0  33  -1.0
   22   22  C #2     1s     1  37   1.0
   23   23  C #2     1s     1  38   1.0
   24   24  C #2     1s     1  39   1.0
   25   25  C #2     1s     1  40   1.0
   26   26  C #2     1s     1  41   1.0
   27   27  C #2     2px    1  42   1.0
   28   28  C #2     2px    1  43   1.0
   29   29  C #2     2px    1  44   1.0
   30   30  C #2     2py    1  45   1.0
   31   31  C #2     2py    1  46   1.0
   32   32  C #2     2py    1  47   1.0
   33   33  C #2     3d2-   3  51  -1.0  57  -1.0  61   2.0
   34   34  C #2     3d2-   3  52  -1.0  58  -1.0  62   2.0
   35   35  C #2     3d1-   1  53   1.0
   36   36  C #2     3d1-   1  54   1.0
   37   37  C #2     3d1+   2  51   1.0  57  -1.0
   38   38  C #2     3d1+   2  52   1.0  58  -1.0
   39   39  C #2     4f3-   3  63  -1.0  66  -1.0  68   4.0
   40   40  C #2     4f2-   3  64  -1.0  69  -1.0  71   4.0
   41   41  C #2     4f0    2  63   1.0  66  -3.0
   42   42  C #2     4f2+   2  64   3.0  69  -1.0
   43   43  H #3     1s     1  73   1.0
   44   44  H #3     1s     1  74   1.0
   45   45  H #3     1s     1  75   1.0
   46   46  H #3     2px    1  76   1.0
   47   47  H #3     2px    1  77   1.0
   48   48  H #3     2py    1  78   1.0
   49   49  H #3     2py    1  79   1.0
   50   50  H #3     3d2-   3  82  -1.0  85  -1.0  87   2.0
   51   51  H #3     3d1-   1  83   1.0
   52   52  H #3     3d1+   2  82   1.0  85  -1.0
   53   53  H #4     1s     1  88   1.0
   54   54  H #4     1s     1  89   1.0
   55   55  H #4     1s     1  90   1.0
   56   56  H #4     2px    1  91   1.0
   57   57  H #4     2px    1  92   1.0
   58   58  H #4     2py    1  93   1.0
   59   59  H #4     2py    1  94   1.0
   60   60  H #4     3d2-   3  97  -1.0 100  -1.0 102   2.0
   61   61  H #4     3d1-   1  98   1.0
   62   62  H #4     3d1+   2  97   1.0 100  -1.0
   63   63  H #5     1s     1 103   1.0
   64   64  H #5     1s     1 104   1.0
   65   65  H #5     1s     1 105   1.0
   66   66  H #5     2px    1 106   1.0
   67   67  H #5     2px    1 107   1.0
   68   68  H #5     2py    1 108   1.0
   69   69  H #5     2py    1 109   1.0
   70   70  H #5     3d2-   3 112  -1.0 115  -1.0 117   2.0
   71   71  H #5     3d1-   1 113   1.0
   72   72  H #5     3d1+   2 112   1.0 115  -1.0
   73   73  BR#6     1s     1 118   1.0
   74   74  BR#6     1s     1 119   1.0
   75   75  BR#6     1s     1 120   1.0
   76   76  BR#6     1s     1 121   1.0
   77   77  BR#6     1s     1 122   1.0
   78   78  BR#6     1s     1 123   1.0
   79   79  BR#6     2px    1 124   1.0
   80   80  BR#6     2px    1 125   1.0
   81   81  BR#6     2px    1 126   1.0
   82   82  BR#6     2px    1 127   1.0
   83   83  BR#6     2px    1 128   1.0
   84   84  BR#6     2py    1 129   1.0
   85   85  BR#6     2py    1 130   1.0
[...]
   The AA contribution to the correlation energy is:   -0.0525188 a.u.
   The AB contribution to the correlation energy is:   -0.4140311 a.u.
   The total correlation energy is -0.519068746376 a.u.
   The total correlation energy is -0.519068746376 a.u.
  Current DIIS expansion coefficients : 
 [   1] 1.1086164418 [   2] 0.0036050358 [   3] 0.0156406525 [   4]-0.0393601907
 [   5]-0.0885019395
  Convergence information after    11 iterations: 
  Largest element of residual vector :  0.57770123E-06.
  Largest element of DIIS residual   : -0.63656391E-06.
  W(mnij) AB contribution =  0.0882136892 a.u.
  W(abef) AB contribution =  0.1255051435 a.u.
  W(mbej) AB contribution = -0.2973323554 a.u.
   After  12 iterations, amplitude changes are:
    -------------------------------------------------------------------
                 Spin      RMS          Max.      Max. change for
     Amplitude   Case     Change       Change       i    j    a    b
    -------------------------------------------------------------------
        T1        AA    0.0000000012 0.0000005054    9        95
        T2        AA    0.0000000000-0.0000000246    9    6   95   11
        T2        AB    0.0000000000-0.0000002109    9    9   95   95
    -------------------------------------------------------------------
   The AA contribution to the correlation energy is:   -0.0525188 a.u.
   The AB contribution to the correlation energy is:   -0.4140311 a.u.
   The total correlation energy is -0.519068778737 a.u.
   The total correlation energy is -0.519068778737 a.u.
  Current DIIS expansion coefficients : 
 [   1]-0.1013032869 [   2] 1.2634373368 [   3]-0.0017850487 [   4] 0.0389957070
 [   5]-0.1993447081
  Convergence information after    12 iterations: 
  Largest element of residual vector :  0.50540149E-06.
  Largest element of DIIS residual   :  0.17934504E-06.
  W(mnij) AB contribution =  0.0882137387 a.u.
  W(abef) AB contribution =  0.1255052117 a.u.
  W(mbej) AB contribution = -0.2973325846 a.u.
   After  13 iterations, amplitude changes are:
    -------------------------------------------------------------------
                 Spin      RMS          Max.      Max. change for
     Amplitude   Case     Change       Change       i    j    a    b
    -------------------------------------------------------------------
        T1        AA    0.0000000002-0.0000000852    9        95
        T2        AA    0.0000000000 0.0000000164    9    3   95   10
        T2        AB    0.0000000000-0.0000001485    9    9   95   95
    -------------------------------------------------------------------
   The AA contribution to the correlation energy is:   -0.0525188 a.u.
   The AB contribution to the correlation energy is:   -0.4140312 a.u.
   The total correlation energy is -0.519068814312 a.u.
   The total correlation energy is -0.519068814312 a.u.
  Current DIIS expansion coefficients : 
 [   1]-0.0632508406 [   2]-0.1639312811 [   3] 1.2001503888 [   4] 0.0103919660
 [   5] 0.0166397669
  Convergence information after    13 iterations: 
  Largest element of residual vector : -0.14845199E-06.
  Largest element of DIIS residual   : -0.11078761E-06.
  W(mnij) AB contribution =  0.0882137693 a.u.
  W(abef) AB contribution =  0.1255052536 a.u.
  W(mbej) AB contribution = -0.2973327220 a.u.
   After  14 iterations, amplitude changes are:
    -------------------------------------------------------------------
                 Spin      RMS          Max.      Max. change for
     Amplitude   Case     Change       Change       i    j    a    b
    -------------------------------------------------------------------
        T1        AA    0.0000000001 0.0000000593    9        95
        T2        AA    0.0000000000-0.0000000059    9    6   95   11
        T2        AB    0.0000000000-0.0000000403    9    9   95   95
    -------------------------------------------------------------------
   The AA contribution to the correlation energy is:   -0.0525188 a.u.
   The AB contribution to the correlation energy is:   -0.4140312 a.u.
   The total correlation energy is -0.519068821804 a.u.
   The total correlation energy is -0.519068821804 a.u.
  Current DIIS expansion coefficients : 
 [   1] 0.0250627537 [   2]-0.1369061035 [   3] 0.0229896099 [   4] 1.0845191627
 [   5] 0.0043345772
  Convergence information after    14 iterations: 
  Largest element of residual vector :  0.59274531E-07.
  Largest element of DIIS residual   : -0.31689230E-07.
  W(mnij) AB contribution =  0.0882137823 a.u.
  W(abef) AB contribution =  0.1255052698 a.u.
  W(mbej) AB contribution = -0.2973327788 a.u.
   After  15 iterations, amplitude changes are:
    -------------------------------------------------------------------
                 Spin      RMS          Max.      Max. change for
     Amplitude   Case     Change       Change       i    j    a    b
    -------------------------------------------------------------------
        T1        AA    0.0000000000 0.0000000177    7        10
        T2        AA    0.0000000000 0.0000000020    9    6   95   10
        T2        AB    0.0000000000-0.0000000142    9    9   95   95
    -------------------------------------------------------------------
   The AA contribution to the correlation energy is:   -0.0525188 a.u.
   The AB contribution to the correlation energy is:   -0.4140312 a.u.
   The total correlation energy is -0.519068827738 a.u.
   The total correlation energy is -0.519068827738 a.u.
  Current DIIS expansion coefficients : 
 [   1] 0.0142460297 [   2]-0.0221474441 [   3]-0.0493174881 [   4]-0.2092324556
 [   5] 1.2664513582
  Convergence information after    15 iterations: 
  Largest element of residual vector :  0.17710021E-07.
  Largest element of DIIS residual   :  0.12777479E-07.
   Largest T1 amplitudes for spin case AA:
   i       a                 i       a                 i       a    
-----------------------------------------------------------------------------
[  9      96    ] 0.01692 [  9      95    ] 0.01337 [  8      95    ]-0.01143
[  9      97    ] 0.00913 [  9     110    ] 0.00892 [  9     102    ] 0.00884
[  6      26    ] 0.00752 [  8     110    ] 0.00701 [  8     102    ] 0.00680
[  8      96    ] 0.00663 [  4      18    ] 0.00637 [  4      10    ]-0.00599
[  9     109    ] 0.00558 [  5      11    ] 0.00508 [  4      20    ] 0.00491
-----------------------------------------------------------------------------
   Norm of T1AA vector (      679 symmetry allowed elements):  0.0457059130.
-----------------------------------------------------------------------------
   Largest T2 amplitudes for spin case AB:
       _       _                 _       _                 _       _
   i   j   a   b             i   j   a   b             i   j   a   b
-----------------------------------------------------------------------------
[  9   9  95  95]-0.07531 [  9   8  95  95]-0.04611 [  8   9  95  95]-0.04611
[  8   8  95  95]-0.04370 [  6   6  10  10]-0.02976 [  9   9  98  95]-0.02767
[  9   9  95  98]-0.02767 [  9   8 100  95]-0.02144 [  8   9  95 100]-0.02144
[  9   9  98  98]-0.01944 [  9   9  99  95]-0.01850 [  9   9  95  99]-0.01850
[  7   7  20  20]-0.01846 [  9   8  98  95]-0.01837 [  8   9  95  98]-0.01837
-----------------------------------------------------------------------------
   Norm of T2AB vector (   676337 symmetry allowed elements):  0.4167581931.
-----------------------------------------------------------------------------
  W(mnij) AB contribution =  0.0882137882 a.u.
  W(abef) AB contribution =  0.1255052770 a.u.
  W(mbej) AB contribution = -0.2973328037 a.u.
   After  16 iterations, amplitude changes are:
    -------------------------------------------------------------------
                 Spin      RMS          Max.      Max. change for
     Amplitude   Case     Change       Change       i    j    a    b
    -------------------------------------------------------------------
        T1        AA    0.0000000000 0.0000000109    9        95
        T2        AA    0.0000000000 0.0000000008    9    6   95   10
        T2        AB    0.0000000000 0.0000000015    8    8   95   95
    -------------------------------------------------------------------
   The AA contribution to the correlation energy is:   -0.0525188 a.u.
   The AB contribution to the correlation energy is:   -0.4140312 a.u.
   The total correlation energy is -0.519068830005 a.u.
   The total correlation energy is -0.519068830005 a.u.
  Current DIIS expansion coefficients : 
 [   1] 1.1881194619 [   2]-0.0020011806 [   3] 0.0464541099 [   4]-0.1178420714
 [   5]-0.1147303198
  Convergence information after    16 iterations: 
  Largest element of residual vector :  0.10919993E-07.
  Largest element of DIIS residual   :  0.53559948E-08.
  W(mnij) AB contribution =  0.0882137891 a.u.
  W(abef) AB contribution =  0.1255052779 a.u.
  W(mbej) AB contribution = -0.2973328067 a.u.
   After  17 iterations, amplitude changes are:
    -------------------------------------------------------------------
                 Spin      RMS          Max.      Max. change for
     Amplitude   Case     Change       Change       i    j    a    b
    -------------------------------------------------------------------
        T1        AA    0.0000000000 0.0000000036    7        10
        T2        AA    0.0000000000 0.0000000001    9    7   95   11
        T2        AB    0.0000000000 0.0000000006    8    8   95   95
    -------------------------------------------------------------------
   The AA contribution to the correlation energy is:   -0.0525188 a.u.
   The AB contribution to the correlation energy is:   -0.4140312 a.u.
   The total correlation energy is -0.519068830266 a.u.
   The total correlation energy is -0.519068830266 a.u.
  Current DIIS expansion coefficients : 
 [   1]-0.2018914706 [   2] 1.2477006886 [   3] 0.0050031764 [   4] 0.0069056672
 [   5]-0.0577180616
  Convergence information after    17 iterations: 
  Largest element of residual vector :  0.35593268E-08.
  Largest element of DIIS residual   :  0.23402761E-08.
  W(mnij) AB contribution =  0.0882137890 a.u.
  W(abef) AB contribution =  0.1255052777 a.u.
  W(mbej) AB contribution = -0.2973328064 a.u.
   After  18 iterations, amplitude changes are:
    -------------------------------------------------------------------
                 Spin      RMS          Max.      Max. change for
     Amplitude   Case     Change       Change       i    j    a    b
    -------------------------------------------------------------------
        T1        AA    0.0000000000 0.0000000015    7        10
        T2        AA    0.0000000000-0.0000000000    9    7   95   10
        T2        AB    0.0000000000-0.0000000003    6    6   10   10
    -------------------------------------------------------------------
   The AA contribution to the correlation energy is:   -0.0525188 a.u.
   The AB contribution to the correlation energy is:   -0.4140312 a.u.
   The total correlation energy is -0.519068830363 a.u.
   The total correlation energy is -0.519068830363 a.u.
  Current DIIS expansion coefficients : 
 [   1]-0.0455953764 [   2] 0.0074853530 [   3] 1.0266377288 [   4] 0.0007152975
 [   5] 0.0107569971
  Convergence information after    18 iterations: 
  Largest element of residual vector :  0.14906670E-08.
  Largest element of DIIS residual   :  0.14063376E-08.
  W(mnij) AB contribution =  0.0882137890 a.u.
  W(abef) AB contribution =  0.1255052777 a.u.
  W(mbej) AB contribution = -0.2973328063 a.u.
   After  19 iterations, amplitude changes are:
    -------------------------------------------------------------------
                 Spin      RMS          Max.      Max. change for
     Amplitude   Case     Change       Change       i    j    a    b
    -------------------------------------------------------------------
        T1        AA    0.0000000000 0.0000000009    7        10
        T2        AA    0.0000000000 0.0000000000    8    6   95   10
        T2        AB    0.0000000000-0.0000000001    8    9   95   95
    -------------------------------------------------------------------
   The AA contribution to the correlation energy is:   -0.0525188 a.u.
   The AB contribution to the correlation energy is:   -0.4140312 a.u.
   The total correlation energy is -0.519068830316 a.u.
   The total correlation energy is -0.519068830316 a.u.
  Current DIIS expansion coefficients : 
 [   1] 0.0508774028 [   2]-0.2514187554 [   3]-0.4031670511 [   4] 1.6106395820
 [   5]-0.0069311784
  Convergence information after    19 iterations: 
  Largest element of residual vector :  0.93237639E-09.
  Largest element of DIIS residual   :  0.29354988E-09.
  Amplitude equations converged in    19iterations.
   The AA contribution to the correlation energy is:   -0.0525188 a.u.
   The AB contribution to the correlation energy is:   -0.4140312 a.u.
   The total correlation energy is -0.519068830311 a.u.
   The total correlation energy is -0.519068830311 a.u.
   The CC iterations have converged.

   Largest T1 amplitudes for spin case AA:
   i       a                 i       a                 i       a    
-----------------------------------------------------------------------------
[  9      96    ] 0.01692 [  9      95    ] 0.01337 [  8      95    ]-0.01143
[  9      97    ] 0.00913 [  9     110    ] 0.00892 [  9     102    ] 0.00884
[  6      26    ] 0.00752 [  8     110    ] 0.00701 [  8     102    ] 0.00680
[  8      96    ] 0.00663 [  4      18    ] 0.00637 [  4      10    ]-0.00599
[  9     109    ] 0.00558 [  5      11    ] 0.00508 [  4      20    ] 0.00491
-----------------------------------------------------------------------------
   Norm of T1AA vector (      679 symmetry allowed elements):  0.0457059204.
-----------------------------------------------------------------------------
   Largest T2 amplitudes for spin case AB:
       _       _                 _       _                 _       _
   i   j   a   b             i   j   a   b             i   j   a   b
-----------------------------------------------------------------------------
[  9   9  95  95]-0.07531 [  9   8  95  95]-0.04611 [  8   9  95  95]-0.04611
[  8   8  95  95]-0.04370 [  6   6  10  10]-0.02976 [  9   9  98  95]-0.02767
[  9   9  95  98]-0.02767 [  9   8 100  95]-0.02144 [  8   9  95 100]-0.02144
[  9   9  98  98]-0.01944 [  9   9  99  95]-0.01850 [  9   9  95  99]-0.01850
[  7   7  20  20]-0.01846 [  9   8  98  95]-0.01837 [  8   9  95  98]-0.01837
-----------------------------------------------------------------------------
   Norm of T2AB vector (   676337 symmetry allowed elements):  0.4167581948.
-----------------------------------------------------------------------------
       Summary of iterative solution of CC equations 
      -----------------------------------------------------------
                       Correlation           Total
       Iteration         Energy              Energy
      -----------------------------------------------------------
            0        -0.488101219187   -2650.387200139028  DIIS 
            1        -0.503604248144   -2650.402703167986  DIIS 
            2        -0.516119120280   -2650.415218040121  DIIS 
            3        -0.517400670178   -2650.416499590019  DIIS 
            4        -0.518907127289   -2650.418006047131  DIIS 
            5        -0.519051374431   -2650.418150294272  DIIS 
            6        -0.519069975891   -2650.418168895732  DIIS 
            7        -0.519068983712   -2650.418167903553  DIIS 
            8        -0.519068058823   -2650.418166978664  DIIS 
            9        -0.519068220925   -2650.418167140767  DIIS 
           10        -0.519068621275   -2650.418167541116  DIIS 
           11        -0.519068746376   -2650.418167666217  DIIS 
           12        -0.519068778737   -2650.418167698578  DIIS 
           13        -0.519068814312   -2650.418167734153  DIIS 
           14        -0.519068821804   -2650.418167741645  DIIS 
           15        -0.519068827738   -2650.418167747579  DIIS 
           16        -0.519068830005   -2650.418167749847  DIIS 
           17        -0.519068830266   -2650.418167750107  DIIS 
           18        -0.519068830363   -2650.418167750205  DIIS 
           19        -0.519068830311   -2650.418167750153  DIIS 
      -----------------------------------------------------------
      A miracle has come to pass. The CC iterations have converged.
 @DIMT3-I, Dimensions of T3 amplitudes : 
               # abc          # ijk       Symmetry    Spin 
                   171955             42     1          1
                   161420             42     2          1
                   526575            182     1          2
                   489552            142     2          2
                   526575            182     1          3
                   489552            142     2          3
                   171955             42     1          4
                   161420             42     2          4
 @DIMT3-I, Dimensions of T3 amplitudes : 
               # abc          # ijk       Symmetry    Spin 
                   171955             42     1          1
                   161420             42     2          1
                   526575            182     1          2
                   489552            142     2          2
                   526575            182     1          3
                   489552            142     2          3
                   171955             42     1          4
                   161420             42     2          4
 @TRPS-I, Welcome to TRPS. Watch your RUs ! 
 @TRPS-I, Method is CCSD(T) 
 @TRPS-I, Calculation type is energy 
 @TRPS-I, Reference function information : 
          Reference function is Hartree-Fock 
          Reference function is RHF Hartree-Fock 
 @TRPS-I, INT1 is true 
 @TRPS-I, INT2 is false 
 @TRPS-I, Lengths of ijka integrals. #1      21434
                                     #2      21434
                                     #3      48979
                                     #4      48979
                                    Max      48979
 @INITRP-I, Initializing W intermediate lists. 
 @SETOOOV-I, Some OOOV lists are being transposed. 
 @TRPS-I, Available memory in integer words   1499959040
          Number of pre-allocated words for TRPS2       355298
          Number of free words for TRPS2   1499603742
 @TRPS2-I, Spin case AAB 
 @TRPS2-I, Number of free integer words 1499603742
           Number of free double  words 1499603742
           Ratio                                 1
 @TRPS2-I, E4TBAA      -0.011470203954
  @TRPS2-I, E4TAAA  -6.144227137640866E-004
 @TRPS2-I, E5ST A    0.000174194171045
 @TRPS2-I, E5ST B    0.000117337868663
 @SETOOOV-I, Some OOOV lists are being transposed. 
 @CCENRG-I, CCSD/QCISD energy will now be evaluated. 
 @CCENRG-I, Correlation energies. ECCAA       -0.052518813117
                                  ECCBB        0.000000000000
                                  ECCAB       -0.414031204078
                                  Total       -0.519068830311
 @CCENRG-I, Reference   energy   -2649.899098919841
            CCSD/QCISD energy    -2650.418167750153
          E4T (T(CCSD)) = -0.024169253335
          E5ST          =  0.000583064079
          E4ST          =  0.000000000000
          In other words  
          <T3[2](Dagger) D3  T3[2]> = -0.024169253335
          <T1   (Dagger) Q1 WT3[2]> =  0.000583064079
          <T2   (Dagger) Q2 FT3[2]> =  0.000000000000
        E(CCSD)           =   -2650.418167750153
        E(CCSD + T(CCSD)) =   -2650.442337003488
        E(CCSD(T))        =   -2650.441753939408
  @CHECKOUT-I, Total execution time (CPU/WALL):       60.50/      68.19 seconds.
--executable xvcc finished with status     0 in       68.38 seconds (walltime).
  The final electronic energy is     -2650.441753939408500 a.u. 
  This computation required                          262.25 seconds (walltime).
