 --invoking executable--
/cvmfs/restricted.computecanada.ca/easybuild/software/2020/avx2/Compiler/intel2020/cfour/2.1/bin/xjoda


   *************************************************************************
         <<<     CCCCCC     CCCCCC   |||     CCCCCC     CCCCCC   >>>
       <<<      CCC        CCC       |||    CCC        CCC         >>>
      <<<      CCC        CCC        |||   CCC        CCC            >>>
    <<<        CCC        CCC        |||   CCC        CCC              >>>
      <<<      CCC        CCC        |||   CCC        CCC            >>>
       <<<      CCC        CCC       |||    CCC        CCC         >>>
         <<<     CCCCCC     CCCCCC   |||     CCCCCC     CCCCCC   >>>
   *************************************************************************

     ****************************************************************
     * CFOUR Coupled-Cluster techniques for Computational Chemistry *
     ****************************************************************
 

   Department of Chemistry                Institut fuer Physikalische Chemie
   University of Florida                  Universitaet Mainz
   Gainesville, FL 32611, USA             D-55099 Mainz, Germany

   Department of Chemistry                Fakultaet fuer Chemie und Biowiss.
   Johns Hopkins University               Karlsruher Institut fuer Technologie
   Baltimore, MD 21218, USA               D-76131 Karlsruhe, Germany

   Department of Chemistry                Department of Physical Chemistry
   Southern Methodist University          Eotvos Lorand University
   Dallas, TX 75275, USA                  H-1053 Budapest, Hungary

 
                       Version 2.1
 
                     gra284                                            
                     Sat 16 Mar 2024 05:32:30 PM EDT                   
                     integer*8 version is running
 
********************************************************************************
*                          Input from ZMAT file                                *
********************************************************************************
Test                                                                            
N                                                                               
                                                                                
*ACES2(CALC=CCSDT                                                               
FROZEN_CORE=ON                                                                  
#DROPMO=1                                                                       
#INPUT_MRCC=OFF                                                                 
#CC_PROG=MRCC                                                                   
XFORM_TOL=18                                                                    
SAVE_INTS=ON                                                                    
SCF_EXPORDER=6                                                                  
SCF_EXPSTART=5                                                                  
#SCF_DAMPING=1000                                                               
SCF_EXTRAPOLATION=ON                                                            
SCF_CONV=10                                                                     
SCF_MAXCYC=9999                                                                 
CC_CONV=10                                                                      
CC_MAXCYC=999                                                                   
T3_EXTRAPOL=ON                                                                  
REFERENCE=ROHF                                                                  
CHARGE=+1                                                                       
MULT=3                                                                          
ABCDTYPE=STANDARD                                                               
OCCUPATION=2-1-1-0-0-0-0-0/2-0-0-0-0-0-0-0                                      
MEM=20                                                                          
MEM_UNIT=GB                                                                     
BASIS=SPECIAL)                                                                  
                                                                                
N:aV6Z-EMSL                                                                     
                                                                                
********************************************************************************
  @GTFLGS-W, Keyword #DROPMO not known and is ignored.
  @GTFLGS-W, Keyword #INPUT_MRCC not known and is ignored.
  @GTFLGS-W, Keyword #CC_PROG not known and is ignored.
  @GTFLGS-W, Keyword #SCF_DAMPING not known and is ignored.
    -------------------------------------------------------------------
                    CFOUR Control Parameters 
    -------------------------------------------------------------------
        External           Internal           Value            Units
          Name               Name
    -------------------------------------------------------------------
       ABCDTYPE             IABCDT         STANDARD    [  0]    ***   
       ANHARMONIC           IANHAR         OFF         [  0]    ***   
       ANH_ALGORIT          IANALG         STANDARD    [  0]    ***   
       ANH_DERIVAT          IANDER         SECOND      [  1]    ***   
       ANH_MODE             ANHMOD         VIBRATION   [  0]    ***   
       ANH_STEPSIZ          ICUBST             50000          x 10-6  
       ANH_SYMMETR          IANHSM         ABELIAN     [  0]    ***   
       AO_LADDERS           IAOLAD         SINGLEPASS  [  1]    ***   
       AV_SCF               IAVSCF         OFF         [  0]    ***   
       BASIS                IBASIS         SPECIAL     [  0]    ***   
       BOTHVECTORS          BOTHVC         OFF         [  0]    ***   
       BOX_POTENT           IPIAB          OFF         [  0]    ***   
       BREIT                IBREIT         OFF         [  0]    ***   
       BRUCK_CONV           IBRTOL          10D-  4             ***   
       BRUECKNER            IBRKNR         OFF         [  0]    ***   
       BUFFERSIZE           IBUFFS              4096            ***   
       CACHE_RECS           ICHREC             10               ***   
       CALCLEVEL            ICLLVL         CCSDT       [ 18]    ***   
       CCORBOPT             ICCORB         OFF         [  0]  x 0.01  
       CC_CONV              ICCCNV          10D- 10             ***   
       CC_EXPORDER          ICCEOR              5               ***   
       CC_EXTRAPOL          ICCEXT         DIIS        [  1]    ***   
       CC_GUESS             ICCGES         MP2         [  0]    ***   
       CC_MAXCYC            ICCCYC            999              cycles 
       CC_PROGRAM           ICCPRO         VCC         [  0]    ***   
       CHARGE               ICHRGE              1               ***   
       CHOLESKY             ICHOLE         OFF         [  0]    ***   
       CIS_CONV             ICISTL              5               ***   
       COMM_SIZE            IPSIZE            ***               ***   
       CONSTANT             ICONST         OLD         [  1]    ***   
       CONTINUUM            ICONTU         NONE        [  0]    ***   
       CONTRACTION          ICNTYP         GENERAL     [  1]    ***   
       COORDINATES          ICOORD         INTERNAL    [  0]    ***   
       CPHF_CONVER          ICPHFT          10D- 16             ***   
       CPHF_MAXCYC          ICPHFC             64              cycles 
       CUBIC                ICUBIC         OFF         [  0]    ***   
       CURVILINEAR          ICURVY         OFF         [  0]    ***   
       DBOC                 IDBOC          OFF         [  0]    ***   
       DCT                  IDCT           OFF         [  0]    ***   
       DERIV_LEV            IDRLVL         ZERO        [  0]    ***   
       DEVMEM_SIZE          IDVMEM         *********           MByte  
       DIAG_MRCC            IEOMST          10D-  0             ***   
       DIFF_TYPE            IDIFTY         RELAXED     [  0]    ***   
       DIRECT               IDIRCT         OFF         [  0]    ***   
       DROPMO               IDRPMO      NONE         
       ECP                  IECP           OFF         [  0]    ***   
       EIGENVECTOR          IVEC                1               ***   
       EL_ANHARM            IELANH         OFF         [  0]    ***   
       EOMFOLLOW            IEOMSR         ENERGY      [  0]    ***   
       EOMIP                IEOMIP         OFF         [  0]    ***   
       EOMLEVEL             HBARFM         SAME        [  0]    ***   
       EOM_MRCC             IMRCCE         NEW         [  1]    ***   
       EOM_NONIT            EOMNON         OFF         [  0]    ***   
       EOM_NSING            IEOMSI          10D-  0             ***   
       EOM_NSTATES          IMRCCD         DAVIDSON    [  0]    ***   
       EOM_NTRIP            IEOMTR          10D-  0             ***   
       EOM_ORDER            IEXORD         ENERGY      [  0]    ***   
       EOM_PROPSTA          IEOMST              0               ***   
       ESTATE_CONV          IEXTOL          10D-  5             ***   
       ESTATE_DIAG          IEXDIG         ITERATIVE   [  0]    ***   
       ESTATE_LOCK          IESLOC         ON          [  1]    ***   
       ESTATE_MAXC          IEXMXC             40               ***   
       ESTATE_PROP          IEXPRP         OFF         [  0]    ***   
       EVAL_HESS            IRECAL              0            # of cyc.
       EXCITATION           IEXCIT              0               ***   
       EXCITE               IEXCIT         NONE        [  0]    ***   
       EXTERN_POT           IEXPOT         OFF         [  0]    ***   
       FCGRADNEW            IFCGNW         OFF         [  0]    ***   
       FC_FIELD             IFINFC              0             x 10-6  
       FD_CALTYPE           IFDCAL         GRADONLY    [  0]    ***   
       FD_PROJECT           IFDPRJ         OFF         [  1]    ***   
       FD_STEPSIZE          IDISFD              0            10-4 bohr
       FD_USEGROUP          IFDGRP         FULL        [  0]    ***   
       FILE_RECSIZ          IFLREC              4096           words  
       FINITE_PERT          IFIPER              0             x 10-6  
       FIXGEOM              IFIXGM         OFF         [  0]    ***   
       FOCK                 IFOCK          AO          [  1]    ***   
       FREQ_ALGORI          IVIALG         STANDARD    [  0]    ***   
       FROZEN_CORE          IFROCO         ON          [  1]    ***   
       GAMMA_ABCD           IGABCD         STORE       [  0]    ***   
       GAMMA_ABCI           IGABCI         STORE       [  0]    ***   
       GENBAS_1             IGNBS1              0               ***   
       GENBAS_2             IGNBS2              0               ***   
       GENBAS_3             IGNBS3              0               ***   
       GENBAS_4             IGNBS4              0               ***   
       GEO_CONV             ICONTL              5              H/bohr 
       GEO_MAXCYC           IOPTCY             50               ***   
       GEO_MAXSTEP          IMXSTP            300            millibohr
       GEO_METHOD           INR            SINGLE_POINT[  5]    ***   
       GIAO                 IGIAO          OFF         [  1]    ***   
       GIMIC                IGIMIC         OFF         [  0]    ***   
       GRID                 IGRID          OFF         [  0]    ***   
       GRID_ALGO            IGALGO         SERIAL      [  0]    ***   
       GUESS                IGUESS         MOREAD      [  0]    ***   
       HBAR                 IHBAR          OFF         [  0]    ***   
       HESS_TYPE            IHESTP         SCF         [  0]    ***   
       HF2_FILE             IHF2Fl         USE         [  1]    ***   
       HFSTABILITY          ISTABL         OFF         [  0]    ***   
       INCORE               INCORE         OFF         [  0]    ***   
       INPUT_MRCC           IMRCC          ON          [  1]    ***   
       INTEGRALS            INTTYP         VMOL        [  1]    ***   
       JODA_PRINT           IJPRNT              0               ***   
       KEYWORD_OUT          IDMPKW         NO          [  0]    ***   
       LINDEP_TOL           ILINDP              8               ***   
       LINEQ_CONV           IZTACN          10D-  7           cycles  
       LINEQ_EXPOR          ILMAXD              5               ***   
       LINEQ_MAXCY          ILMAXC            100               ***   
       LINEQ_TYPE           ILTYPE         DIIS        [  1]    ***   
       LOCK_ORBOCC          ILOCOC         OFF         [  0]    ***   
       MEMORY_SIZE          IMEMSZ         *********           words  
       MEM_UNIT             IMEMU          GB          [  3]    ***   
       MRCC                 IMRCCC         OFF         [  0]    ***   
       MULTIPLICTY          IMULTP              3               ***   
       NACOUPLING           IVCOUP         OFF         [  0]    ***   
       NEGEVAL              IDIE           ABORT       [  0]    ***   
       NEWNORM              INEWNO         OFF         [  0]    ***   
       NON-HF               INONHF         ON          [  1]    ***   
       NTOP_TAMP            ITOPT2             15               ***   
       NUC_MODEL            INUCMO         POINT       [  0]    ***   
       OCCUPATION           IOCCU  A   2,  1,  1,  0,  0,  0,  0,  0,
                                   B   2,  0,  0,  0,  0,  0,  0,  0,
       OPEN-SHELL           IOPEN          SPIN-ORBITAL[  0]    ***   
       OPTVIB               IOPTVB         OFF         [  0]    ***   
       ORBITALS             IORBTP         SEMICANONICA[  1]    ***   
       PARALLEL             IPARAL         ON          [  1]    ***   
       PARA_INT             IPINTS         ON          [  1]    ***   
       PARA_PRINT           IPPRIN              0               ***   
       PERT_ORB             IPTORB         STANDARD    [  0]    ***   
       POINTS               IGRDFD              0               ***   
       PRINT                IPRNT               0               ***   
       PROPS                IPROPS         OFF         [  0]    ***   
       PROP_INTEGR          IINTYP         INTERNAL    [  0]    ***   
       PSI                  IPSI           OFF         [  0]    ***   
       QC_ALG               IQCALG         FLM         [  0]    ***   
       QC_LINALG            IQCLIN         TRIDIAG     [  2]    ***   
       QC_MAXCYC            IQCMAX          10D-100           cycles  
       QC_MAXSCFCY          IQCMSC          10D- 15           cycles  
       QC_RTRUST            IQCRTR          10D-  0           x 10-3  
       QC_SKIPSCF           IQCSKI         OFF         [  0]    ***   
       QC_START             IQCSTA          10D-  1             ***   
       QRHFGUESS            IQGUES         OFF         [  0]    ***   
       QUARTIC              IQUART         OFF         [  0]    ***   
       RAMAN_INT            IRAMIN         OFF         [  0]    ***   
       RAMAN_ORB            IRAMRE         UNRELAXED   [  0]    ***   
       RDO                  IRDOFM         OFF         [  0]    ***   
       REDUCE_REPR          REDREP         Ir          [  0]    ***   
       REFERENCE            IREFNC         ROHF        [  2]    ***   
       RELATIVIST           IRELAT         OFF         [  0]    ***   
       RELAX_DENS           IRDENS         OFF         [  0]    ***   
       RESET_FLAGS          IRESET         OFF         [  0]    ***   
       RESTART_CC           ICCRES         OFF         [  0]    ***   
       ROT_EVEC             ROTVEC              0               ***   
       SAVE_INTS            ISVINT         ON          [  1]    ***   
       SCALE_ON             ISTCRT              0               ***   
       SCF_CONV             ISCFCV          10D- 10             ***   
       SCF_DAMPING          IDAMP               0             x 10-3  
       SCF_EXPORDE          IRPPOR              6               ***   
       SCF_EXPSTAR          IRPPLS              5               ***   
       SCF_EXTRAPO          IRPP           ON          [  1]    ***   
       SCF_MAXCYC           ISCFCY            ***              cycles 
       SCF_NOSTOP           ISCFST         OFF         [  0]    ***   
       SCF_PRINT            ISCFPR              0               ***   
       SCF_PROG             ISCFPR         SCF         [  0]    ***   
       SD_FIELD             IFINSD              0             x 10-6  
       SOPERT               IPERSO         OFF         [  0]    ***   
       SPHERICAL            IDFGHI         ON          [  1]    ***   
       SPINORBIT            ISOCAL         OFF         [  0]    ***   
       SPINROTATIO          ISRCON         OFF         [  0]    ***   
       SPIN_FLIP            ISPFLP         OFF         [  0]    ***   
       SPIN_ORBIT           ISPORB         OFF         [  0]    ***   
       SPIN_SCAL            ISCSMP         OFF         [  0]    ***   
       STEEPSCALE           ISTPSC              1000          x 10-3  
       SUBGROUP             ISUBGP         DEFAULT     [  0]    ***   
       SUBGRPAXIS           ISBXYZ         X           [  0]    ***   
       SYMMETRY             ISYM           ON          [  0]    ***   
       SYM_CHECK            ISYMCK         OVERRIDE    [  1]    ***   
       T3_EXTRAPOL          IT3EXT         ON          [  1]    ***   
       T4_EXTRAPOL          IT4EXP         OFF         [  0]    ***   
       TAMP_SUM             IEVERY              5               ***   
       TESTSUITE            ITESTS         OFF         [  0]    ***   
       THERMOCH             ITHERM         OFF         [  0]    ***   
       TOL_CHOLESK          ITOLCH          10D-  4             ***   
       TRANGRAD             IRESRM         OFF         [  0]    ***   
       TRANS_INV            ITRAIN         USE         [  0]    ***   
       TREAT_PERT           ITREAT         SIMULTANEOUS[  0]    ***   
       TRIP_ALGORI          ITRALG         NORMAL      [  0]    ***   
       UIJ_THRESHO          IUIJTH              1               ***   
       UNITS                IUNITS         ANGSTROM    [  0]    ***   
       UNOS                 IUNOS          OFF         [  0]    ***   
       UPDATE_HESS          IHUPDT         ON          [  1]    ***   
       VIBPHASE             ISETPH         STANDARD    [  0]    ***   
       VIBRATION            IVIB           NO          [  0]    ***   
       VIB_ALGORIT          IGEALG         STANDARD    [  0]    ***   
       VNATORB              IVNORB         OFF         [  0]    ***   
       VTRAN                IVTRAN         FULL/PARTIAL[  0]    ***   
       XFIELD               IXEFLD              0             x 10-6  
       XFORM_TOL            IXFTOL          10D- 18             ***   
       YFIELD               IYEFLD              0             x 10-6  
       ZFIELD               IZEFLD              0             x 10-6  
       ZSCALE_EXP           IZEXPS         OFF         [  0]    ***   
    -------------------------------------------------------------------
   1 entries found in Z-matrix 
   Job Title : Test                                                                            
   Rotational constants (in cm-1): 

   Rotational constants (in MHz): 

********************************************************************************
   The full molecular point group is I h .
   The largest Abelian subgroup of the full molecular point group is D2h .
   The computational point group is D2h .
********************************************************************************
  ECPDATA file not present.   Using default ECPDATA. 
  @GTFLGS-W, Keyword #DROPMO not known and is ignored.
  @GTFLGS-W, Keyword #INPUT_MRCC not known and is ignored.
  @GTFLGS-W, Keyword #CC_PROG not known and is ignored.
  @GTFLGS-W, Keyword #SCF_DAMPING not known and is ignored.
  There is   1 frozen-core orbital.
  There is   1 frozen-core orbital.
  There are  189 basis functions.
 @GEOPT-W, Archive file not created for single-point calculation.
 @CHECKOUT-I, Total execution time (CPU/WALL):        0.28/       0.42 seconds.
--executable xjoda finished with status     0 in        0.48 seconds (walltime).
 --invoking executable--
/cvmfs/restricted.computecanada.ca/easybuild/software/2020/avx2/Compiler/intel2020/cfour/2.1/bin/xvmol
 SERIAL VERSION OF MOLECULE STARTED
********************************************************************************
                    INPUT FROM MOL FILE
********************************************************************************
INTGRL        1    0    1    0    0    0    0    0    0                         
         *** CFOUR Program System (Release V0.1) ***                            
Test                                                                            
    1    3 X  Y   Z   0.10E-08              0    0                              
   9999.00      3.00                                                            
          7.00000000    1    7    1    1    1    1    1    1    1               
N #1   0.000000000000000   0.000000000000000   0.000000000000000                
   17    8                                                                      
   432300.000000000       5.500000000000000E-006 -1.200000000000000E-006        
  0.000000000000000E+000  0.000000000000000E+000  0.000000000000000E+000        
  0.000000000000000E+000  0.000000000000000E+000  0.000000000000000E+000        
   64700.0000000000       4.350000000000000E-005 -9.500000000000001E-006        
  0.000000000000000E+000  0.000000000000000E+000  0.000000000000000E+000        
  0.000000000000000E+000  0.000000000000000E+000  0.000000000000000E+000        
   14720.0000000000       2.289000000000000E-004 -5.050000000000000E-005        
  0.000000000000000E+000  0.000000000000000E+000  0.000000000000000E+000        
  0.000000000000000E+000  0.000000000000000E+000  0.000000000000000E+000        
   4170.00000000000       9.650000000000000E-004 -2.126000000000000E-004        
  0.000000000000000E+000  0.000000000000000E+000  0.000000000000000E+000        
  0.000000000000000E+000  0.000000000000000E+000  0.000000000000000E+000        
   1361.00000000000       3.502100000000000E-003 -7.753000000000000E-004        
  0.000000000000000E+000  0.000000000000000E+000  0.000000000000000E+000        
  0.000000000000000E+000  0.000000000000000E+000  0.000000000000000E+000        
   491.200000000000       1.129210000000000E-002 -2.506200000000000E-003        
  0.000000000000000E+000  0.000000000000000E+000  0.000000000000000E+000        
  0.000000000000000E+000  0.000000000000000E+000  0.000000000000000E+000        
   191.600000000000       3.261280000000000E-002 -7.365200000000000E-003        
  0.000000000000000E+000  0.000000000000000E+000  0.000000000000000E+000        
  0.000000000000000E+000  0.000000000000000E+000  0.000000000000000E+000        
   79.4100000000000       8.329720000000000E-002 -1.930160000000000E-002        
  0.000000000000000E+000  0.000000000000000E+000  0.000000000000000E+000        
  0.000000000000000E+000  0.000000000000000E+000  0.000000000000000E+000        
   34.5300000000000       0.179985600000000      -4.471730000000000E-002        
  0.000000000000000E+000  0.000000000000000E+000  0.000000000000000E+000        
  0.000000000000000E+000  0.000000000000000E+000  0.000000000000000E+000        
   15.5800000000000       0.305003500000000      -8.606640000000000E-002        
  0.000000000000000E+000  0.000000000000000E+000  0.000000000000000E+000        
  0.000000000000000E+000  0.000000000000000E+000  0.000000000000000E+000        
   7.23200000000000       0.341159300000000      -0.133296200000000             
  0.000000000000000E+000  0.000000000000000E+000  0.000000000000000E+000        
  0.000000000000000E+000  0.000000000000000E+000  0.000000000000000E+000        
   3.38200000000000       0.177482600000000      -0.105965400000000             
   1.00000000000000       0.000000000000000E+000  0.000000000000000E+000        
  0.000000000000000E+000  0.000000000000000E+000  0.000000000000000E+000        
   1.36900000000000       1.988400000000000E-002  0.134667300000000             
  0.000000000000000E+000   1.00000000000000       0.000000000000000E+000        
  0.000000000000000E+000  0.000000000000000E+000  0.000000000000000E+000        
  0.624800000000000      -1.246600000000000E-003  0.433940000000000             
  0.000000000000000E+000  0.000000000000000E+000   1.00000000000000             
  0.000000000000000E+000  0.000000000000000E+000  0.000000000000000E+000        
  0.274700000000000       1.040100000000000E-003  0.452949000000000             
  0.000000000000000E+000  0.000000000000000E+000  0.000000000000000E+000        
   1.00000000000000       0.000000000000000E+000  0.000000000000000E+000        
  0.119200000000000      -1.265000000000000E-004  0.134021600000000             
  0.000000000000000E+000  0.000000000000000E+000  0.000000000000000E+000        
  0.000000000000000E+000   1.00000000000000       0.000000000000000E+000        
  4.714000000000000E-002  0.000000000000000E+000  0.000000000000000E+000        
  0.000000000000000E+000  0.000000000000000E+000  0.000000000000000E+000        
  0.000000000000000E+000  0.000000000000000E+000   1.00000000000000             
   11    7                                                                      
   415.900000000000       1.484000000000000E-004  0.000000000000000E+000        
  0.000000000000000E+000  0.000000000000000E+000  0.000000000000000E+000        
  0.000000000000000E+000  0.000000000000000E+000                                
   98.6100000000000       1.276300000000000E-003  0.000000000000000E+000        
  0.000000000000000E+000  0.000000000000000E+000  0.000000000000000E+000        
  0.000000000000000E+000  0.000000000000000E+000                                
   31.9200000000000       6.702400000000000E-003  0.000000000000000E+000        
  0.000000000000000E+000  0.000000000000000E+000  0.000000000000000E+000        
  0.000000000000000E+000  0.000000000000000E+000                                
   12.0000000000000       2.526170000000000E-002  0.000000000000000E+000        
  0.000000000000000E+000  0.000000000000000E+000  0.000000000000000E+000        
  0.000000000000000E+000  0.000000000000000E+000                                
   4.91900000000000       7.518940000000000E-002  0.000000000000000E+000        
  0.000000000000000E+000  0.000000000000000E+000  0.000000000000000E+000        
  0.000000000000000E+000  0.000000000000000E+000                                
   2.14800000000000       0.174015000000000        1.00000000000000             
  0.000000000000000E+000  0.000000000000000E+000  0.000000000000000E+000        
  0.000000000000000E+000  0.000000000000000E+000                                
  0.969600000000000       0.292792000000000       0.000000000000000E+000        
   1.00000000000000       0.000000000000000E+000  0.000000000000000E+000        
  0.000000000000000E+000  0.000000000000000E+000                                
  0.439900000000000       0.348264700000000       0.000000000000000E+000        
  0.000000000000000E+000   1.00000000000000       0.000000000000000E+000        
  0.000000000000000E+000  0.000000000000000E+000                                
  0.197800000000000       0.255936500000000       0.000000000000000E+000        
  0.000000000000000E+000  0.000000000000000E+000   1.00000000000000             
  0.000000000000000E+000  0.000000000000000E+000                                
  8.603000000000000E-002  6.947920000000000E-002  0.000000000000000E+000        
  0.000000000000000E+000  0.000000000000000E+000  0.000000000000000E+000        
   1.00000000000000       0.000000000000000E+000                                
  3.150000000000000E-002  0.000000000000000E+000  0.000000000000000E+000        
  0.000000000000000E+000  0.000000000000000E+000  0.000000000000000E+000        
  0.000000000000000E+000   1.00000000000000                                     
    6    6                                                                      
   6.71700000000000        1.00000000000000       0.000000000000000E+000        
  0.000000000000000E+000  0.000000000000000E+000  0.000000000000000E+000        
  0.000000000000000E+000                                                        
   2.89600000000000       0.000000000000000E+000   1.00000000000000             
  0.000000000000000E+000  0.000000000000000E+000  0.000000000000000E+000        
  0.000000000000000E+000                                                        
   1.24900000000000       0.000000000000000E+000  0.000000000000000E+000        
   1.00000000000000       0.000000000000000E+000  0.000000000000000E+000        
  0.000000000000000E+000                                                        
  0.538000000000000       0.000000000000000E+000  0.000000000000000E+000        
  0.000000000000000E+000   1.00000000000000       0.000000000000000E+000        
  0.000000000000000E+000                                                        
  0.232000000000000       0.000000000000000E+000  0.000000000000000E+000        
  0.000000000000000E+000  0.000000000000000E+000   1.00000000000000             
  0.000000000000000E+000                                                        
  8.740000000000001E-002  0.000000000000000E+000  0.000000000000000E+000        
  0.000000000000000E+000  0.000000000000000E+000  0.000000000000000E+000        
   1.00000000000000                                                             
    5    5                                                                      
   3.82900000000000        1.00000000000000       0.000000000000000E+000        
  0.000000000000000E+000  0.000000000000000E+000  0.000000000000000E+000        
   1.79500000000000       0.000000000000000E+000   1.00000000000000             
  0.000000000000000E+000  0.000000000000000E+000  0.000000000000000E+000        
  0.841000000000000       0.000000000000000E+000  0.000000000000000E+000        
   1.00000000000000       0.000000000000000E+000  0.000000000000000E+000        
  0.394000000000000       0.000000000000000E+000  0.000000000000000E+000        
  0.000000000000000E+000   1.00000000000000       0.000000000000000E+000        
  0.151000000000000       0.000000000000000E+000  0.000000000000000E+000        
  0.000000000000000E+000  0.000000000000000E+000   1.00000000000000             
    4    4                                                                      
   3.85600000000000        1.00000000000000       0.000000000000000E+000        
  0.000000000000000E+000  0.000000000000000E+000                                
   1.70200000000000       0.000000000000000E+000   1.00000000000000             
  0.000000000000000E+000  0.000000000000000E+000                                
  0.751000000000000       0.000000000000000E+000  0.000000000000000E+000        
   1.00000000000000       0.000000000000000E+000                                
  0.326000000000000       0.000000000000000E+000  0.000000000000000E+000        
  0.000000000000000E+000   1.00000000000000                                     
    3    3                                                                      
   2.87500000000000        1.00000000000000       0.000000000000000E+000        
  0.000000000000000E+000                                                        
   1.17000000000000       0.000000000000000E+000   1.00000000000000             
  0.000000000000000E+000                                                        
  0.587000000000000       0.000000000000000E+000  0.000000000000000E+000        
   1.00000000000000                                                             
    2    2                                                                      
   2.09900000000000        1.00000000000000       0.000000000000000E+000        
   1.04100000000000       0.000000000000000E+000   1.00000000000000             
FINISH                                                                          
 
********************************************************************************
 ONE- AND TWO-ELECTRON INTEGRALS OVER SYMMETRY-ADAPTED AOS ARE CALCULATED.

  SPHERICAL HARMONICS ARE USED.
  
  INTEGRALS LESS THAN  0.10E-13 ARE NEGLECTED.

  NUCLEAR REPULSION ENERGY :    0.0000000000 A.U.
  @MOLECU-I, ONE ELECTRON INTEGRALS (CPU/WALL):        0.12/       0.12 SECONDS.
  @TWOEL-I,     480616 INTEGRALS OF SYMMETRY TYPE  I I I I
  @TWOEL-I,    4112139 INTEGRALS OF SYMMETRY TYPE  I J I J
  @TWOEL-I,    2362312 INTEGRALS OF SYMMETRY TYPE  I I J J
  @TWOEL-I,   10108732 INTEGRALS OF SYMMETRY TYPE  I J K L
  @TWOEL-I, TOTAL NUMBER OF 2-E INTEGRALS   17063799.
  @MOLECU-I, TWO ELECTRON INTEGRALS (CPU/WALL):       64.02/      64.03 SECONDS.
 @CHECKOUT-I, Total execution time (CPU/WALL):       64.17/      64.19 seconds.

OMP_NUM_THREADS not specified; defaulting to 1
Running with 1 threads/proc

--executable xvmol finished with status     0 in       64.23 seconds (walltime).
 --invoking executable--
/cvmfs/restricted.computecanada.ca/easybuild/software/2020/avx2/Compiler/intel2020/cfour/2.1/bin/xvmol2ja
 @GETMEM-I,  Allocated   19073 MB of main memory.
 @CHECKOUT-I, Total execution time (CPU/WALL):        0.37/       0.13 seconds.
--executable xvmol2ja finished with status     0 in        0.18 seconds (walltime).
 --invoking executable--
/cvmfs/restricted.computecanada.ca/easybuild/software/2020/avx2/Compiler/intel2020/cfour/2.1/bin/xvscf
  There are  189 functions in the AO basis.

  There are 8 irreducible representations.

       Irrep        # of functions
         1                 40
         2                 26
         3                 26
         4                 20
         5                 26
         6                 20
         7                 20
         8                 11


  Parameters for SCF calculation: 
        SCF reference function: ROHF  
  Maximum number of iterations: 9999
     Full symmetry point group: I h 
     Computational point group: D2h 
        Initial density matrix: MOREAD                 
     SCF convergence tolerance: 10**(-10)
  DIIS convergence acceleration:  ON
          Latest start for DIIS:   5
                     DIIS order:   6

     Alpha population by irrep:   2    1    1    0    0    0    0    0
      Beta population by irrep:   2    0    0    0    0    0    0    0


  Memory information:    2725225 words required.
  Fock matrices are constructed from AO integral file.
 @GETMEM-I,  Allocated      20 MB of main memory.
  Initialization and symmetry analysis required      0.004 seconds.

 total no. of electrons in initial guess :  0.000000000000000E+000
 total no. of electrons in initial guess :  0.000000000000000E+000
  --------------------------------------------------------------------
  Iteration         Total Energy            Largest Density Difference
  --------------------------------------------------------------------
       0             0.000000000000000              0.0000000000D+00
   current occupation vector 
     2  1  1  0  0  0  0  0
     2  0  0  0  0  0  0  0
       1           -50.671045006616175              0.1074440621D+02
   current occupation vector 
     2  1  1  0  0  0  0  0
     2  0  0  0  0  0  0  0
       2           -52.792165628169251              0.1056223802D+02
   current occupation vector 
     2  1  1  0  0  0  0  0
     2  0  0  0  0  0  0  0
       3           -53.852271967863665              0.1320865105D+01
   current occupation vector 
     2  1  1  0  0  0  0  0
     2  0  0  0  0  0  0  0
       4           -53.887213021236697              0.3281178883D+00
   current occupation vector 
     2  1  1  0  0  0  0  0
     2  0  0  0  0  0  0  0
       5           -53.888026800932650              0.5564016253D-01
   current occupation vector 
     2  1  1  0  0  0  0  0
     2  0  0  0  0  0  0  0
       6           -53.888056471136807              0.7632935203D-02
   current occupation vector 
     2  1  1  0  0  0  0  0
     2  0  0  0  0  0  0  0
       7           -53.888058245637680              0.2282167452D-02
   current occupation vector 
     2  1  1  0  0  0  0  0
     2  0  0  0  0  0  0  0
       8           -53.888058515708565              0.5805290147D-03
   current occupation vector 
     2  1  1  0  0  0  0  0
     2  0  0  0  0  0  0  0
       9           -53.888058516084875              0.2040699492D-04
   current occupation vector 
     2  1  1  0  0  0  0  0
     2  0  0  0  0  0  0  0
      10           -53.888058516094851              0.6127394016D-05
   current occupation vector 
     2  1  1  0  0  0  0  0
     2  0  0  0  0  0  0  0
      11           -53.888058516095683              0.1196869052D-05
   current occupation vector 
     2  1  1  0  0  0  0  0
     2  0  0  0  0  0  0  0
      12           -53.888058516095711              0.3848345190D-07
   current occupation vector 
     2  1  1  0  0  0  0  0
     2  0  0  0  0  0  0  0
      13           -53.888058516095846              0.3123783676D-08
   current occupation vector 
     2  1  1  0  0  0  0  0
     2  0  0  0  0  0  0  0
      14           -53.888058516095917              0.2222359519D-09
   current occupation vector 
     2  1  1  0  0  0  0  0
     2  0  0  0  0  0  0  0

  SCF has converged.

 Density matrix saved to file den.dat
 total alpha spin electron number:   4.00000000000000     
 total  beta spin electron number:   2.00000000000000     
     E(ROHF)=       -53.888058516095462              0.4551308218D-10

  Eigenvector printing suppressed.


       The average multiplicity is    3.0000000
  The expectation value of S**2 is    2.0000000

 @PUTMOS-I, Writing converged MOs to NEWMOS. 
 @PUTMOS-I, Symmetry   1 Full Blocks 10 Partial Blocksize   0
 @PUTMOS-I, Symmetry   2 Full Blocks  6 Partial Blocksize   2
 @PUTMOS-I, Symmetry   3 Full Blocks  6 Partial Blocksize   2
 @PUTMOS-I, Symmetry   4 Full Blocks  5 Partial Blocksize   0
 @PUTMOS-I, Symmetry   5 Full Blocks  6 Partial Blocksize   2
 @PUTMOS-I, Symmetry   6 Full Blocks  5 Partial Blocksize   0
 @PUTMOS-I, Symmetry   7 Full Blocks  5 Partial Blocksize   0
 @PUTMOS-I, Symmetry   8 Full Blocks  2 Partial Blocksize   3
 @PUTFOCK-I, Writing converged Fock matrix to NEWFOCK. 
 @PUTFOCK-I, Symmetry   1 Full Blocks 10 Partial Blocksize   0
 @PUTFOCK-I, Symmetry   2 Full Blocks  6 Partial Blocksize   2
 @PUTFOCK-I, Symmetry   3 Full Blocks  6 Partial Blocksize   2
 @PUTFOCK-I, Symmetry   4 Full Blocks  5 Partial Blocksize   0
 @PUTFOCK-I, Symmetry   5 Full Blocks  6 Partial Blocksize   2
 @PUTFOCK-I, Symmetry   6 Full Blocks  5 Partial Blocksize   0
 @PUTFOCK-I, Symmetry   7 Full Blocks  5 Partial Blocksize   0
 @PUTFOCK-I, Symmetry   8 Full Blocks  2 Partial Blocksize   3
  @DMPJOB-I, Rotating orbitals to semicanonical basis.
             *** Eigenvalues correspond to new basis. ***

  @PRJDEN-I, Basis set contains h and/or higher angular momentum functions.
             Analysis of density matrix symmetry not available.
             Check irreps of the molecular orbitals in the full point group
             for presence of an asymmetric solution.

 
  ORBITAL EIGENVALUES (ALPHA)  (1H = 27.2113834 eV)

       MO #        E(hartree)               E(eV)           FULLSYM    COMPSYM
       ----   --------------------   --------------------   -------   ---------
    1     1         -16.3207458555        -444.1100728482      Ag        Ag (1)
    2     2          -1.6128413519         -43.8876443887      Ag        Ag (1)
    3    41          -1.1101374621         -30.2083761080       u       B2u (2)
    4    67          -1.1101374621         -30.2083761080       u       B3u (3)
  +++++++++++++++++++++++++++++++++++++++++++++++++++++++++++++++++++++++++++++
    5   113          -0.4673035337         -12.7159756192      Au       B1u (5)
    6     3          -0.1366531274          -3.7185206422      Ag        Ag (1)
    7    42          -0.0939303669          -2.5559752269       u       B2u (2)
    8    68          -0.0939303669          -2.5559752269       u       B3u (3)
    9   114          -0.0888050871          -2.4165092741      Au       B1u (5)
   10     4           0.0357397889           0.9725290995      Ag        Ag (1)
   11   139           0.0365394402           0.9942887155       g       B3g (6)
   12   159           0.0365394402           0.9942887155       g       B2g (7)
   13     5           0.0391454748           1.0652025237       g        Ag (1)
   14    93           0.0391454748           1.0652025237       g       B1g (4)
   15    43           0.0725554852           1.9743351246       u       B2u (2)
   16    69           0.0725554852           1.9743351246       u       B3u (3)
   17   115           0.0879910795           2.3943589992      Au       B1u (5)
   18     6           0.1651689607           4.4944759150      Ag        Ag (1)
   19   116           0.3571269167           9.7179174539      Au       B1u (5)
   20    44           0.3580032396           9.7417634124       u       B2u (2)
   21    70           0.3580032396           9.7417634124       u       B3u (3)
   22   117           0.3606481594           9.8137353372       u       B1u (5)
   23   179           0.3606481594           9.8137353372       u        Au (8)
   24    71           0.3651161702           9.9353160927       u       B3u (3)
   25    45           0.3651161702           9.9353160927       u       B2u (2)
   26     7           0.4774453923          12.9919496231       g        Ag (1)
   27    94           0.4774453923          12.9919496231       g       B1g (4)
   28   160           0.4807938843          13.0830667207       g       B2g (7)
   29   140           0.4807938843          13.0830667207       g       B3g (6)
   30     8           0.4821001744          13.1186126829      Ag        Ag (1)
   31    46           0.5970306800          16.2460307362       u       B2u (2)
   32    72           0.5970306800          16.2460307362       u       B3u (3)
   33   118           0.6283148729          17.0973169036      Au       B1u (5)
   34     9           1.1681972098          31.7882621628      Ag        Ag (1)
   35    10           1.2963514266          35.2755156915      Ag        Ag (1)
   36   161           1.2973813500          35.3035413319       g       B2g (7)
   37   141           1.2973813500          35.3035413319       g       B3g (6)
   38    95           1.3004806770          35.3878783057       g       B1g (4)
   39    11           1.3004806770          35.3878783057       g        Ag (1)
   40   162           1.3056723158          35.5291499791       g       B2g (7)
   41   142           1.3056723158          35.5291499791       g       B3g (6)
   42    12           1.3129793098          35.7279833950       g        Ag (1)
   43    96           1.3129793098          35.7279833950       g       B1g (4)
   44   119           1.4230895970          38.7242366368      Au       B1u (5)
   45    47           1.4250217305          38.7768126608       u       B2u (2)
   46    73           1.4250217305          38.7768126608       u       B3u (3)
   47   180           1.4308261438          38.9347587774       u        Au (8)
   48   120           1.4308261438          38.9347587774       u       B1u (5)
   49    74           1.4405407934          39.1991078334       u       B3u (3)
   50    48           1.4405407934          39.1991078334       u       B2u (2)
   51    13           1.5676287923          42.6573480968       g        Ag (1)
   52    97           1.5676287923          42.6573480968       g       B1g (4)
   53   163           1.5775359600          42.9269358344       g       B2g (7)
   54   143           1.5775359600          42.9269358344       g       B3g (6)
   55    14           1.5812203167          43.0271922781      Ag        Ag (1)
   56    75           2.0308955771          55.2634781945       u       B3u (3)
   57    49           2.0308955771          55.2634781945       u       B2u (2)
   58   121           2.0553758872          55.9296212990      Au       B1u (5)
   59   122           3.0491435764          82.9714148991      Au       B1u (5)
   60    50           3.0502431421          83.0013356028       u       B2u (2)
   61    76           3.0502431421          83.0013356028       u       B3u (3)
   62   123           3.0535457800          83.0912049495       u       B1u (5)
   63   181           3.0535457800          83.0912049495       u        Au (8)
   64    51           3.0590633709          83.2413462306       u       B2u (2)
   65    77           3.0590633709          83.2413462306       u       B3u (3)
   66   124           3.0668159205          83.4523038304               B1u (5)
   67   182           3.0668159205          83.4523038304                Au (8)
   68    52           3.0768318801          83.7248519477       u       B2u (2)
   69    78           3.0768318801          83.7248519477       u       B3u (3)
   70   125           3.7386542264         101.7339535546      Au       B1u (5)
   71    53           3.7417949765         101.8194177100       u       B2u (2)
   72    79           3.7417949765         101.8194177100       u       B3u (3)
   73   126           3.7512223355         102.0759491895       u       B1u (5)
   74   183           3.7512223355         102.0759491895       u        Au (8)
   75    80           3.7669617059         102.5042392328       u       B3u (3)
   76    54           3.7669617059         102.5042392328       u       B2u (2)
   77    15           3.8827466513         105.6549077732      Ag        Ag (1)
   78   144           3.8850289073         105.7170111175       g       B3g (6)
   79   164           3.8850289073         105.7170111175       g       B2g (7)
   80    16           3.8918767221         105.9033496304       g        Ag (1)
   81    98           3.8918767221         105.9033496304       g       B1g (4)
   82   145           3.9032844943         106.2137708936       g       B3g (6)
   83   165           3.9032844943         106.2137708936       g       B2g (7)
   84    17           3.9192070097         106.6470445643       g        Ag (1)
   85    99           3.9192070097         106.6470445643       g       B1g (4)
   86    18           4.2282822818         115.0574102926      Ag        Ag (1)
   87   166           4.2353684385         115.2502344205       g       B2g (7)
   88   146           4.2353684385         115.2502344205       g       B3g (6)
   89    19           4.2370727905         115.2966121954       g        Ag (1)
   90   100           4.2370727905         115.2966121954       g       B1g (4)
   91    20           4.2469840753         115.5663119678      Ag        Ag (1)
   92   127           5.6717708771         154.3367318935      Au       B1u (5)
   93    55           5.6762178674         154.4577406504       u       B2u (2)
   94    81           5.6762178674         154.4577406504       u       B3u (3)
   95    21           6.7318671701         183.1834185633      Ag        Ag (1)
   96   167           6.7331285725         183.2177430669       g       B2g (7)
   97   147           6.7331285725         183.2177430669       g       B3g (6)
   98    22           6.7369155253         183.3207912931       g        Ag (1)
   99   101           6.7369155253         183.3207912931       g       B1g (4)
  100   168           6.7432362947         183.4927881708       g       B2g (7)
  101   148           6.7432362947         183.4927881708       g       B3g (6)
  102    23           6.7521047541         183.7341112205       g        Ag (1)
  103   102           6.7521047541         183.7341112205       g       B1g (4)
  104   169           6.7635405341         184.0452946145    XXXX      XXXX (7)
  105   149           6.7635405341         184.0452946145    XXXX      XXXX (6)
  106    24           6.7775692388         184.4270350770    XXXX      XXXX (1)
  107   103           6.7775692388         184.4270350770    XXXX      XXXX (4)
  108   128           7.8459151363         213.4982048987      Au       B1u (5)
  109    56           7.8480719414         213.5568945476       u       B2u (2)
  110    82           7.8480719414         213.5568945476       u       B3u (3)
  111   129           7.8545483747         213.7331272572       u       B1u (5)
  112   184           7.8545483747         213.7331272572       u        Au (8)
  113    83           7.8653625247         214.0273952386       u       B3u (3)
  114    57           7.8653625247         214.0273952386       u       B2u (2)
  115   130           7.8805446524         214.4405219386               B1u (5)
  116   185           7.8805446524         214.4405219386                Au (8)
  117    58           7.9001373636         214.9736667137       u       B2u (2)
  118    84           7.9001373636         214.9736667137       u       B3u (3)
  119   131           8.7713060725         238.6793724573      Au       B1u (5)
  120    85           8.7764124244         238.8183233572       u       B3u (3)
  121    59           8.7764124244         238.8183233572       u       B2u (2)
  122   186           8.7917548612         239.2358122860       u        Au (8)
  123   132           8.7917548612         239.2358122860       u       B1u (5)
  124    60           8.8174107484         239.9339444695       u       B2u (2)
  125    86           8.8174107484         239.9339444695       u       B3u (3)
  126    25           9.6178841401         261.7159328331      Ag        Ag (1)
  127   170           9.6216124702         261.8173858529       g       B2g (7)
  128   150           9.6216124702         261.8173858529       g       B3g (6)
  129    26           9.6327933423         262.1216328495       g        Ag (1)
  130   104           9.6327933423         262.1216328495       g       B1g (4)
  131   171           9.6514128031         262.6282941361       g       B2g (7)
  132   151           9.6514128031         262.6282941361       g       B3g (6)
  133    27           9.6774431831         263.3366167863       g        Ag (1)
  134   105           9.6774431831         263.3366167863       g       B1g (4)
  135    28          10.7935167423         293.7065223103      Ag        Ag (1)
  136   172          10.8010058983         293.9103126035       g       B2g (7)
  137   152          10.8010058983         293.9103126035       g       B3g (6)
  138    29          10.8238136387         294.5309427729       g        Ag (1)
  139   106          10.8238136387         294.5309427729       g       B1g (4)
  140    30          14.2773294418         388.5058853703      Ag        Ag (1)
  141    31          16.7180952780         454.9225003280      Ag        Ag (1)
  142   153          16.7202483881         454.9810894324       g       B3g (6)
  143   173          16.7202483881         454.9810894324       g       B2g (7)
  144    32          16.7267111136         455.1569491331       g        Ag (1)
  145   107          16.7267111136         455.1569491331       g       B1g (4)
  146   154          16.7374936619         455.4503571878       g       B3g (6)
  147   174          16.7374936619         455.4503571878       g       B2g (7)
  148    33          16.7526131187         455.8617785244       g        Ag (1)
  149   108          16.7526131187         455.8617785244       g       B1g (4)
  150   155          16.7720935605         456.3918682959    XXXX      XXXX (6)
  151   175          16.7720935605         456.3918682959    XXXX      XXXX (7)
  152    34          16.7959662160         457.0414762776    XXXX      XXXX (1)
  153   109          16.7959662160         457.0414762776    XXXX      XXXX (4)
  154   133          17.4544527224         474.9598050655      Au       B1u (5)
  155    61          17.4757391809         475.5390390489       u       B2u (2)
  156    87          17.4757391809         475.5390390489       u       B3u (3)
  157   134          19.5950042446         533.2071732247      Au       B1u (5)
  158    88          19.5982277954         533.2948905001       u       B3u (3)
  159    62          19.5982277954         533.2948905001       u       B2u (2)
  160   135          19.6079016928         533.5581306314       u       B1u (5)
  161   187          19.6079016928         533.5581306315       u        Au (8)
  162    63          19.6240359886         533.9971671399       u       B2u (2)
  163    89          19.6240359886         533.9971671399       u       B3u (3)
  164   136          19.6466484260         534.6124828462               B1u (5)
  165   188          19.6466484260         534.6124828462                Au (8)
  166    90          19.6757657302         535.4048049723       u       B3u (3)
  167    64          19.6757657302         535.4048049723       u       B2u (2)
  168   137          20.2525868977         551.1009069162      Au       B1u (5)
  169    65          20.2589943846         551.2752634981       u       B2u (2)
  170    91          20.2589943846         551.2752634981       u       B3u (3)
  171   138          20.2782581109         551.7994561402       u       B1u (5)
  172   189          20.2782581109         551.7994561402       u        Au (8)
  173    92          20.3105104782         552.6770876728       u       B2u (3)
  174    66          20.3105104782         552.6770876728       u       B3u (2)
  175    35          23.2651054078         633.0757030924      Ag        Ag (1)
  176   156          23.2697192826         633.2012530089       g       B3g (6)
  177   176          23.2697192826         633.2012530089       g       B2g (7)
  178    36          23.2835667639         633.5780621319       g        Ag (1)
  179   110          23.2835667639         633.5780621319       g       B1g (4)
  180   177          23.3066653223         634.2066058595       g       B2g (7)
  181   157          23.3066653223         634.2066058595       g       B3g (6)
  182    37          23.3390437834         635.0876685806       g        Ag (1)
  183   111          23.3390437834         635.0876685806       g       B1g (4)
  184    38          27.3863601876         745.2207469960      Ag        Ag (1)
  185   158          27.3969607116         745.5092019175       g       B3g (6)
  186   178          27.3969607116         745.5092019175       g       B2g (7)
  187    39          27.4289630787         746.3800305998       g        Ag (1)
  188   112          27.4289630787         746.3800305998       g       B1g (4)
  189    40          74.1425424612        2017.5211491623      Ag        Ag (1)


 
  ORBITAL EIGENVALUES ( BETA)  (1H = 27.2113834 eV)

       MO #        E(hartree)               E(eV)           FULLSYM    COMPSYM
       ----   --------------------   --------------------   -------   ---------
    1     1         -16.2485565034        -442.1457007097      Ag        Ag (1)
    2     2          -1.3119983829         -35.7012910178      Ag        Ag (1)
  +++++++++++++++++++++++++++++++++++++++++++++++++++++++++++++++++++++++++++++
    3   113          -0.3983313662         -10.8391475248      Au       B1u (5)
    4    41          -0.3316994441          -9.0260007461       u       B2u (2)
    5    67          -0.3316994441          -9.0260007461       u       B3u (3)
    6     3          -0.1286658770          -3.5011765095      Ag        Ag (1)
    7   114          -0.0855214111          -2.3271559053      Au       B1u (5)
    8    68          -0.0787665636          -2.1433471615       u       B3u (3)
    9    42          -0.0787665636          -2.1433471615       u       B2u (2)
   10     4           0.0388586942           1.0573988273      Ag        Ag (1)
   11   159           0.0408235970           1.1108665510       g       B2g (7)
   12   139           0.0408235970           1.1108665510       g       B3g (6)
   13     5           0.0465994203           1.2680346922       g        Ag (1)
   14    93           0.0465994203           1.2680346922       g       B1g (4)
   15   115           0.0961590419           2.6166205558      Au       B1u (5)
   16    69           0.1116839730           3.0390754099       u       B3u (3)
   17    43           0.1116839730           3.0390754099       u       B2u (2)
   18     6           0.1852140575           5.0399307297      Ag        Ag (1)
   19   116           0.3586526572           9.7594349631      Au       B1u (5)
   20    70           0.3597026903           9.7880078168       u       B3u (3)
   21    44           0.3597026903           9.7880078168       u       B2u (2)
   22   117           0.3628602977           9.8739306807       u       B1u (5)
   23   179           0.3628602977           9.8739306807       u        Au (8)
   24    71           0.3681866452          10.0188679655       u       B3u (3)
   25    45           0.3681866452          10.0188679655       u       B2u (2)
   26     7           0.5032485193          13.6940884052      Ag        Ag (1)
   27   160           0.5097026092          13.8697131192       g       B2g (7)
   28   140           0.5097026092          13.8697131192       g       B3g (6)
   29     8           0.5286200509          14.3844828780       g        Ag (1)
   30    94           0.5286200509          14.3844828780       g       B1g (4)
   31   118           0.6452275447          17.5575340990      Au       B1u (5)
   32    46           0.6773106226          18.4305590333       u       B2u (2)
   33    72           0.6773106226          18.4305590333       u       B3u (3)
   34     9           1.2158498252          33.0849557507      Ag        Ag (1)
   35    10           1.2995666765          35.3630070886      Ag        Ag (1)
   36   161           1.3007709472          35.3957769611       g       B2g (7)
   37   141           1.3007709472          35.3957769611       g       B3g (6)
   38    11           1.3043972009          35.4944523398       g        Ag (1)
   39    95           1.3043972009          35.4944523398       g       B1g (4)
   40   162           1.3104869028          35.6601615531       g       B2g (7)
   41   142           1.3104869028          35.6601615531       g       B3g (6)
   42    12           1.3191188688          35.8950492893       g        Ag (1)
   43    96           1.3191188688          35.8950492893       g       B1g (4)
   44   119           1.4360591026          39.0771548269      Au       B1u (5)
   45    73           1.4395069424          39.1709753155       u       B3u (3)
   46    47           1.4395069424          39.1709753155       u       B2u (2)
   47   120           1.4498403171          39.4521607374       u       B1u (5)
   48   180           1.4498403171          39.4521607374       u        Au (8)
   49    74           1.4671687427          39.9236911698       u       B3u (3)
   50    48           1.4671687427          39.9236911698       u       B2u (2)
   51    13           1.6293870968          44.3378769974      Ag        Ag (1)
   52   163           1.6422496350          44.6878844558       g       B2g (7)
   53   143           1.6422496350          44.6878844558       g       B3g (6)
   54    97           1.6805704213          45.7306460641       g       B1g (4)
   55    14           1.6805704213          45.7306460641       g        Ag (1)
   56   121           2.0805686975          56.6151525166      Au       B1u (5)
   57    75           2.1339766618          58.0684571118       u       B3u (3)
   58    49           2.1339766618          58.0684571118       u       B2u (2)
   59   122           3.0540264860          83.1042856255      Au       B1u (5)
   60    50           3.0553050090          83.1390760028       u       B2u (2)
   61    76           3.0553050090          83.1390760028       u       B3u (3)
   62   123           3.0591459993          83.2435946649       u       B1u (5)
   63   181           3.0591459993          83.2435946649       u        Au (8)
   64    51           3.0655659273          83.4182897850       u       B2u (2)
   65    77           3.0655659273          83.4182897850       u       B3u (3)
   66   124           3.0745929298          83.6639270113               B1u (5)
   67   182           3.0745929298          83.6639270113                Au (8)
   68    52           3.0862679154          83.9816195211       u       B2u (2)
   69    78           3.0862679154          83.9816195211       u       B3u (3)
   70   125           3.7701333146         102.5905430929      Au       B1u (5)
   71    53           3.7768900400         102.7744029368       u       B2u (2)
   72    79           3.7768900400         102.7744029368       u       B3u (3)
   73   183           3.7972211960         103.3276418183       u        Au (8)
   74   126           3.7972211960         103.3276418183       u       B1u (5)
   75    80           3.8314081128         104.2579151197       u       B3u (3)
   76    54           3.8314081128         104.2579151197       u       B2u (2)
   77    15           3.8986641509         106.0880449571      Ag        Ag (1)
   78   144           3.9018481210         106.1746851886       g       B3g (6)
   79   164           3.9018481210         106.1746851886       g       B2g (7)
   80    16           3.9114209928         106.4351762752       g        Ag (1)
   81    98           3.9114209928         106.4351762752       g       B1g (4)
   82   145           3.9274593494         106.8716021442       g       B3g (6)
   83   165           3.9274593494         106.8716021442       g       B2g (7)
   84    17           3.9501245482         107.4883535583       g        Ag (1)
   85    99           3.9501245482         107.4883535583       g       B1g (4)
   86    18           4.2886675839         116.7005779018      Ag        Ag (1)
   87    19           4.3094930033         117.2672663715      Ag        Ag (1)
   88   166           4.3106226459         117.2980055112       g       B2g (7)
   89   146           4.3106226459         117.2980055112       g       B3g (6)
   90    20           4.3661123726         118.8079577394       g        Ag (1)
   91   100           4.3661123726         118.8079577394       g       B1g (4)
   92   127           5.7007110002         155.1242326799      Au       B1u (5)
   93    81           5.7740443664         157.1197350236       u       B3u (3)
   94    55           5.7740443664         157.1197350236       u       B2u (2)
   95    21           6.7397442031         183.3977635286      Ag        Ag (1)
   96   167           6.7412042030         183.4374921457       g       B2g (7)
   97   147           6.7412042030         183.4374921457       g       B3g (6)
   98    22           6.7455881836         183.5567863226       g        Ag (1)
   99   101           6.7455881836         183.5567863226       g       B1g (4)
  100   168           6.7529081589         183.7559729759       g       B2g (7)
  101   148           6.7529081589         183.7559729759       g       B3g (6)
  102    23           6.7631843941         184.0356035540       g        Ag (1)
  103   102           6.7631843941         184.0356035540       g       B1g (4)
  104   149           6.7764457855         184.3964643581    XXXX      XXXX (6)
  105   169           6.7764457855         184.3964643581    XXXX      XXXX (7)
  106    24           6.7927304267         184.8395919749    XXXX      XXXX (1)
  107   103           6.7927304267         184.8395919749    XXXX      XXXX (4)
  108   128           7.8615705683         213.9242108596      Au       B1u (5)
  109    56           7.8643052528         213.9986254086       u       B2u (2)
  110    82           7.8643052528         213.9986254086       u       B3u (3)
  111   129           7.8725199969         214.2221599586       u       B1u (5)
  112   184           7.8725199969         214.2221599586       u        Au (8)
  113    83           7.8862472174         214.5956966187       u       B3u (3)
  114    57           7.8862472174         214.5956966187       u       B2u (2)
  115   130           7.9055421102         215.1207373443               B1u (5)
  116   185           7.9055421102         215.1207373443                Au (8)
  117    84           7.9304844984         215.7994542339       u       B3u (3)
  118    58           7.9304844984         215.7994542339       u       B2u (2)
  119   131           8.8118818180         239.7834946249      Au       B1u (5)
  120    85           8.8215246584         240.0458896519       u       B3u (3)
  121    59           8.8215246584         240.0458896519       u       B2u (2)
  122   132           8.8505692563         240.8362333414       u       B1u (5)
  123   186           8.8505692563         240.8362333414       u        Au (8)
  124    86           8.8994179624         242.1654742116       u       B3u (3)
  125    60           8.8994179624         242.1654742116       u       B2u (2)
  126    25           9.6470162443         262.5086576887      Ag        Ag (1)
  127   150           9.6524733309         262.6571525664       g       B3g (6)
  128   170           9.6524733309         262.6571525664       g       B2g (7)
  129    26           9.6688606952         263.1030754184       g        Ag (1)
  130   104           9.6688606952         263.1030754184       g       B1g (4)
  131   171           9.6962363622         263.8480051892       g       B2g (7)
  132   151           9.6962363622         263.8480051892       g       B3g (6)
  133    27           9.7347284206         264.8954273472       g        Ag (1)
  134   105           9.7347284206         264.8954273472       g       B1g (4)
  135    28          10.8411348881         295.0022779308      Ag        Ag (1)
  136   172          10.8621657607         295.5745570688       g       B2g (7)
  137   152          10.8621657607         295.5745570688       g       B3g (6)
  138    29          10.9264387839         297.3235149444       g        Ag (1)
  139   106          10.9264387839         297.3235149444       g       B1g (4)
  140    30          14.3291034928         389.9147289212      Ag        Ag (1)
  141    31          16.7351590436         455.3868289951      Ag        Ag (1)
  142   173          16.7377489114         455.4573028807       g       B2g (7)
  143   153          16.7377489114         455.4573028807       g       B3g (6)
  144    32          16.7455238948         455.6688709358       g        Ag (1)
  145   107          16.7455238948         455.6688709358       g       B1g (4)
  146   174          16.7585001992         456.0219741282       g       B2g (7)
  147   154          16.7585001992         456.0219741282       g       B3g (6)
  148    33          16.7767050535         456.5173534000       g        Ag (1)
  149   108          16.7767050535         456.5173534000       g       B1g (4)
  150   155          16.8001770525         457.1560589647    XXXX      XXXX (6)
  151   175          16.8001770525         457.1560589647    XXXX      XXXX (7)
  152    34          16.8289666590         457.9394639835    XXXX      XXXX (1)
  153   109          16.8289666590         457.9394639835    XXXX      XXXX (4)
  154   133          17.4749000658         475.5162055664      Au       B1u (5)
  155    61          17.5401847622         477.2926924705       u       B2u (2)
  156    87          17.5401847622         477.2926924705       u       B3u (3)
  157   134          19.6199260980         533.8853313335      Au       B1u (5)
  158    88          19.6241036442         533.9990081436       u       B3u (3)
  159    62          19.6241036442         533.9990081436       u       B2u (2)
  160   135          19.6366389903         534.3401122513       u       B1u (5)
  161   187          19.6366389903         534.3401122513       u        Au (8)
  162    63          19.6575420491         534.9089133988       u       B2u (2)
  163    89          19.6575420491         534.9089133988       u       B3u (3)
  164   136          19.6868346487         535.7060055580               B1u (5)
  165   188          19.6868346487         535.7060055580                Au (8)
  166    90          19.7245566775         536.7324741475       u       B2u (3)
  167    64          19.7245566775         536.7324741475       u       B3u (2)
  168   137          20.2886392575         552.0819415011      Au       B1u (5)
  169    65          20.2989949123         552.3637331940       u       B2u (2)
  170    91          20.2989949123         552.3637331940       u       B3u (3)
  171   138          20.3301710652         553.2120794438       u       B1u (5)
  172   189          20.3301710652         553.2120794438       u        Au (8)
  173    66          20.3825404405         554.6371225932       u       B2u (2)
  174    92          20.3825404405         554.6371225932       u       B3u (3)
  175    35          23.2957703501         633.9101385947      Ag        Ag (1)
  176   156          23.3022182722         634.0855954755       g       B3g (6)
  177   176          23.3022182722         634.0855954755       g       B2g (7)
  178    36          23.3215803695         634.6124649287       g        Ag (1)
  179   110          23.3215803695         634.6124649287       g       B1g (4)
  180   177          23.3539127835         635.4922746410       g       B2g (7)
  181   157          23.3539127835         635.4922746410       g       B3g (6)
  182    37          23.3993131550         636.7276815579       g        Ag (1)
  183   111          23.3993131550         636.7276815579       g       B1g (4)
  184    38          27.4156813155         746.0186154485      Ag        Ag (1)
  185   158          27.4342934436         746.5250772029       g       B3g (6)
  186   178          27.4342934436         746.5250772029       g       B2g (7)
  187    39          27.4906884545         748.0596634667       g        Ag (1)
  188   112          27.4906884545         748.0596634667       g       B1g (4)
  189    40          74.1603392604        2018.0054246881      Ag        Ag (1)


  VSCF finished.

 @CHECKOUT-I, Total execution time (CPU/WALL):        8.14/       2.78 seconds.
--executable xvscf finished with status     0 in        2.82 seconds (walltime).
 --invoking executable--
/cvmfs/restricted.computecanada.ca/easybuild/software/2020/avx2/Compiler/intel2020/cfour/2.1/bin/xvtran
 @GETMEM-I,  Allocated   19073 MB of main memory.
  Full UHF integral transformation
  The following   1 alpha MOs will be dropped.
    1
  There are 188 active alpha molecular orbitals.
  The following   1 beta MOs will be dropped.
    1
  There are 188 active beta molecular orbitals.
  Transformation of IIII integrals :
  2 passes through the AO integral file were required.
      480616 AO integrals were read.
      558594 MO integrals (Spin case AAAA) were written to HF2AA.
      558594 MO integrals (Spin case BBBB) were written to HF2BB.
     1114659 MO integrals (Spin case AABB) were written to HF2AB.
  Transformation of IIJJ integrals :
  2 passes through the AO integral file were required.
     2362312 AO integrals were read.
     2640591 MO integrals (Spin case AAAA) were written to HF2AA.
     2640591 MO integrals (Spin case BBBB) were written to HF2BB.
     5281182 MO integrals (Spin case AABB) were written to HF2AB.
  Transformation of IJIJ integrals :
  2 passes through the AO integral file were required.
     4112139 AO integrals were read.
     4892091 MO integrals (Spin case AAAA) were written to HF2AA.
     4892091 MO integrals (Spin case BBBB) were written to HF2BB.
     9768945 MO integrals (Spin case AABB) were written to HF2AB.
  Transformation of IJKL integrals :
  2 passes through the AO integral file were required.
    10108732 AO integrals were read.
    11732448 MO integrals (Spin case AAAA) were written to HF2AA.
    11732448 MO integrals (Spin case BBBB) were written to HF2BB.
    23464896 MO integrals (Spin case AABB) were written to HF2AB.
  Summary of active molecular orbitals: 
------------------------------------------------------------------------
                         * Spin case alpha *
 
  Index      Eigenvalue    Symmetry    Index      Eigenvalue    Symmetry
------------------------------------------------------------------------
     1        -1.6128414        1        95         1.3129793        4
     2        -1.1101375        2        96         1.5676288        4
     3        -1.1101375        3        97         3.8918767        4
     4        -0.1366531        1        98         3.9192070        4
     5         0.0357398        1        99         4.2370728        4
     6         0.0391455        1       100         6.7369155        4
     7         0.1651690        1       101         6.7521048        4
     8         0.4774454        1       102         6.7775692        4
     9         0.4821002        1       103         9.6327933        4
    10         1.1681972        1       104         9.6774432        4
    11         1.2963514        1       105        10.8238136        4
    12         1.3004807        1       106        16.7267111        4
    13         1.3129793        1       107        16.7526131        4
    14         1.5676288        1       108        16.7959662        4
    15         1.5812203        1       109        23.2835668        4
    16         3.8827467        1       110        23.3390438        4
    17         3.8918767        1       111        27.4289631        4
    18         3.9192070        1       112        -0.4673035        5
    19         4.2282823        1       113        -0.0888051        5
    20         4.2370728        1       114         0.0879911        5
    21         4.2469841        1       115         0.3571269        5
    22         6.7318672        1       116         0.3606482        5
    23         6.7369155        1       117         0.6283149        5
    24         6.7521048        1       118         1.4230896        5
    25         6.7775692        1       119         1.4308261        5
    26         9.6178841        1       120         2.0553759        5
    27         9.6327933        1       121         3.0491436        5
    28         9.6774432        1       122         3.0535458        5
    29        10.7935167        1       123         3.0668159        5
    30        10.8238136        1       124         3.7386542        5
    31        14.2773294        1       125         3.7512223        5
    32        16.7180953        1       126         5.6717709        5
    33        16.7267111        1       127         7.8459151        5
    34        16.7526131        1       128         7.8545484        5
    35        16.7959662        1       129         7.8805447        5
    36        23.2651054        1       130         8.7713061        5
    37        23.2835668        1       131         8.7917549        5
    38        23.3390438        1       132        17.4544527        5
    39        27.3863602        1       133        19.5950042        5
    40        27.4289631        1       134        19.6079017        5
    41        74.1425425        1       135        19.6466484        5
    42        -0.0939304        2       136        20.2525869        5
    43         0.0725555        2       137        20.2782581        5
    44         0.3580032        2       138         0.0365394        6
    45         0.3651162        2       139         0.4807939        6
    46         0.5970307        2       140         1.2973814        6
    47         1.4250217        2       141         1.3056723        6
    48         1.4405408        2       142         1.5775360        6
    49         2.0308956        2       143         3.8850289        6
    50         3.0502431        2       144         3.9032845        6
    51         3.0590634        2       145         4.2353684        6
    52         3.0768319        2       146         6.7331286        6
    53         3.7417950        2       147         6.7432363        6
    54         3.7669617        2       148         6.7635405        6
    55         5.6762179        2       149         9.6216125        6
    56         7.8480719        2       150         9.6514128        6
    57         7.8653625        2       151        10.8010059        6
    58         7.9001374        2       152        16.7202484        6
    59         8.7764124        2       153        16.7374937        6
    60         8.8174107        2       154        16.7720936        6
    61        17.4757392        2       155        23.2697193        6
    62        19.5982278        2       156        23.3066653        6
    63        19.6240360        2       157        27.3969607        6
    64        19.6757657        2       158         0.0365394        7
    65        20.2589944        2       159         0.4807939        7
    66        20.3105105        2       160         1.2973814        7
    67        -0.0939304        3       161         1.3056723        7
    68         0.0725555        3       162         1.5775360        7
    69         0.3580032        3       163         3.8850289        7
    70         0.3651162        3       164         3.9032845        7
    71         0.5970307        3       165         4.2353684        7
    72         1.4250217        3       166         6.7331286        7
    73         1.4405408        3       167         6.7432363        7
    74         2.0308956        3       168         6.7635405        7
    75         3.0502431        3       169         9.6216125        7
    76         3.0590634        3       170         9.6514128        7
    77         3.0768319        3       171        10.8010059        7
    78         3.7417950        3       172        16.7202484        7
    79         3.7669617        3       173        16.7374937        7
    80         5.6762179        3       174        16.7720936        7
    81         7.8480719        3       175        23.2697193        7
    82         7.8653625        3       176        23.3066653        7
    83         7.9001374        3       177        27.3969607        7
    84         8.7764124        3       178         0.3606482        8
    85         8.8174107        3       179         1.4308261        8
    86        17.4757392        3       180         3.0535458        8
    87        19.5982278        3       181         3.0668159        8
    88        19.6240360        3       182         3.7512223        8
    89        19.6757657        3       183         7.8545484        8
    90        20.2589944        3       184         7.8805447        8
    91        20.3105105        3       185         8.7917549        8
    92         0.0391455        4       186        19.6079017        8
    93         0.4774454        4       187        19.6466484        8
    94         1.3004807        4       188        20.2782581        8
------------------------------------------------------------------------
------------------------------------------------------------------------
                         * Spin case beta *
 
  Index      Eigenvalue    Symmetry    Index      Eigenvalue    Symmetry
------------------------------------------------------------------------
     1        -1.3119984        1        95         1.3191189        4
     2        -0.1286659        1        96         1.6805704        4
     3         0.0388587        1        97         3.9114210        4
[...]
   23.3215803695123        23.3993131550202        27.4906884545488     
 -0.398331366159363      -8.552141106251206E-002  9.615904187453052E-002
  0.358652657222661       0.362860297674837       0.645227544697932     
   1.43605910263544        1.44984031709898        2.08056869745784     
   3.05402648604438        3.05914599934875        3.07459292978455     
   3.77013331460912        3.79722119597427        5.70071100023141     
   7.86157056827845        7.87251999685561        7.90554211015552     
   8.81188181799382        8.85056925629808        17.4749000657727     
   19.6199260980442        19.6366389902563        19.6868346486938     
   20.2886392575362        20.3301710652382       4.082359704550455E-002
  0.509702609208979        1.30077094724571        1.31048690281255     
   1.64224963497575        3.90184812098127        3.92745934939072     
   4.31062264593248        6.74120420300826        6.75290815886561     
   6.77644578548482        9.65247333093527        9.69623636221170     
   10.8621657607008        16.7377489113880        16.7585001991557     
   16.8001770525442        23.3022182722051        23.3539127834637     
   27.4342934436351       4.082359704550129E-002  0.509702609208973     
   1.30077094724571        1.31048690281254        1.64224963497572     
   3.90184812098128        3.92745934939072        4.31062264593247     
   6.74120420300826        6.75290815886560        6.77644578548482     
   9.65247333093527        9.69623636221170        10.8621657607008     
   16.7377489113880        16.7585001991556        16.8001770525442     
   23.3022182722051        23.3539127834637        27.4342934436351     
  0.362860297674841        1.44984031709898        3.05914599934876     
   3.07459292978457        3.79722119597427        7.87251999685565     
   7.90554211015560        8.85056925629808        19.6366389902564     
   19.6868346486938        20.3301710652383     
 @CHECKOUT-I, Total execution time (CPU/WALL):       46.31/     319.65 seconds.
--executable xvtran finished with status     0 in      319.70 seconds (walltime).
 --invoking executable--
/cvmfs/restricted.computecanada.ca/easybuild/software/2020/avx2/Compiler/intel2020/cfour/2.1/bin/xintprc
 @GETMEM-I,  Allocated   19073 MB of main memory.
  @GMOIAA-I, Processing MO integrals for spin case AA.
  @GMOIAA-I, Generation of integral list completed.
                      TYPE                NUMBER
                      ----               --------
                      PPPP              18583924
                      PPPH               1205310
                      PPHH                 20216
                      PHPH                 13765
                      PHHH                   500
                      HHHH                     9

                     TOTAL              19823724
  @GMOIAA-I, Processing MO integrals for spin case BB.
  @GMOIAA-I, Generation of integral list completed.
                      TYPE                NUMBER
                      ----               --------
                      PPPP              19399663
                      PPPH                419042
                      PPHH                  2490
                      PHPH                  2490
                      PHHH                    38
                      HHHH                     1

                     TOTAL              19823724
  @GMOIAB-I, Processing MO integrals for spin case AB.
                      TYPE                NUMBER
                      ----               --------
                      PPPP              37957210
                      PPPH1H             1231982
                      PPPH2H              410070
                      PPHH                 13617
                      PHPH1P                2438
                      PHPH2P               14088
                      PHHH1P                  88
                      PHHH2P                 186
                      HHHH                     3

                     TOTAL              39629682

  @FORMT2-I, Second-order MP correlation energies:
  @FORMT2-I, Singles contribution will be calculated.
            ------------------------------------------------
            E(SCF)                  =    -53.888058516095 a.u.
            E2(AA)                  =     -0.014630379183 a.u.
            E2(BB)                  =      0.000000000000 a.u.
            E2(AB)                  =     -0.068590003830 a.u.
            E2(SINGLE)              =     -0.004100346211 a.u.
            E2(TOT)                 =     -0.083220383013 a.u.
            Total MP2 energy        =    -53.975379245319 a.u.
            ------------------------------------------------
            ----------------------------------------------
                     Projected spin multiplicities: 
            ----------------------------------------------
             <0|S^2|0>                  =    2.0000000000.
             <0|S^2 T2|0>               =   -0.0000000000.
             Projected <0|S^2 exp(T)|0> =    2.0000000000.
             Approximate spin mult.     =    3.0000000000.
            ----------------------------------------------
   Largest T2 amplitudes for spin case AA:
   i   j   a   b             i   j   a   b             i   j   a   b
-----------------------------------------------------------------------------
[  3   2  96  14]-0.01143 [  3   2  71  46]-0.01030 [  3   1 162 112] 0.01028
[  2   1 142 112] 0.01028 [  3   2  93   8]-0.01005 [  2   1 139 112]-0.00993
[  3   1 159 112]-0.00993 [  3   2  96   8] 0.00955 [  3   2  93  14] 0.00955
[  3   2  71  49]-0.00789 [  3   2  74  46]-0.00789 [  3   2  74  49]-0.00756
[  3   2  71  43]-0.00746 [  3   2  68  46]-0.00746 [  3   2  96  20] 0.00646
-----------------------------------------------------------------------------
   Norm of T2AA vector (     6451 symmetry allowed elements):  0.0527217258.
-----------------------------------------------------------------------------
   Largest T2 amplitudes for spin case AB:
       _       _                 _       _                 _       _
   i   j   a   b             i   j   a   b             i   j   a   b
-----------------------------------------------------------------------------
[  1   1 112 112]-0.06316 [  3   1 162 112] 0.01998 [  2   1 142 112] 0.01998
[  3   1  96  40] 0.01910 [  2   1  96  66] 0.01910 [  2   1  14  40] 0.01910
[  3   1  14  66]-0.01910 [  2   1 139 112]-0.01863 [  3   1 159 112]-0.01863
[  3   1   8  66] 0.01825 [  3   1  93  40]-0.01825 [  2   1  93  66]-0.01825
[  2   1   8  40]-0.01825 [  1   1 112 114]-0.01540 [  1   1 114 112]-0.01269
-----------------------------------------------------------------------------
   Norm of T2AB vector (    13617 symmetry allowed elements):  0.1304283259.
-----------------------------------------------------------------------------
 @CHECKOUT-I, Total execution time (CPU/WALL):       15.19/      50.02 seconds.
--executable xintprc finished with status     0 in       50.22 seconds (walltime).
  calling xvcc 
 --invoking executable--
/cvmfs/restricted.computecanada.ca/easybuild/software/2020/avx2/Compiler/intel2020/cfour/2.1/bin/xvcc
 @GETMEM-I,  Allocated   19073 MB of main memory.
   CCSDT   energy will be calculated.
   The reference state is a ROHF wave function.
   The total correlation energy is -0.087378614518 a.u.
  transposing abij 
   The total correlation energy is -0.100062746161 a.u.
  Convergence information after     1 iterations: 
  Largest element of residual vector : -0.27206263E-01.
  Largest element of DIIS residual   : -0.27206263E-01.
  transposing abij 
   The total correlation energy is -0.104391277348 a.u.
  Convergence information after     2 iterations: 
  Largest element of residual vector : -0.14409296E-01.
  Largest element of DIIS residual   : -0.58146516E-02.
  transposing abij 
   The total correlation energy is -0.107214696033 a.u.
  Convergence information after     3 iterations: 
  Largest element of residual vector : -0.31406633E-02.
  Largest element of DIIS residual   : -0.52886065E-03.
  transposing abij 
   The total correlation energy is -0.107645516386 a.u.
  Convergence information after     4 iterations: 
  Largest element of residual vector : -0.49238269E-03.
  Largest element of DIIS residual   : -0.10965236E-03.
  transposing abij 
   The total correlation energy is -0.107715038608 a.u.
  Convergence information after     5 iterations: 
  Largest element of residual vector : -0.29140145E-04.
  Largest element of DIIS residual   :  0.19990974E-04.
  transposing abij 
   The total correlation energy is -0.107716450351 a.u.
  Convergence information after     6 iterations: 
  Largest element of residual vector : -0.91947778E-05.
  Largest element of DIIS residual   : -0.66886560E-05.
  transposing abij 
   The total correlation energy is -0.107718944941 a.u.
  Convergence information after     7 iterations: 
  Largest element of residual vector : -0.18757089E-05.
  Largest element of DIIS residual   : -0.12216579E-05.
  transposing abij 
   The total correlation energy is -0.107719699164 a.u.
  Convergence information after     8 iterations: 
  Largest element of residual vector : -0.90061742E-06.
  Largest element of DIIS residual   : -0.58969815E-06.
  transposing abij 
   The total correlation energy is -0.107719968632 a.u.
  Convergence information after     9 iterations: 
  Largest element of residual vector : -0.34256478E-06.
  Largest element of DIIS residual   :  0.29656769E-06.
  transposing abij 
   The total correlation energy is -0.107720020111 a.u.
  Convergence information after    10 iterations: 
  Largest element of residual vector : -0.21304569E-06.
  Largest element of DIIS residual   : -0.11030773E-06.
  transposing abij 
   The total correlation energy is -0.107720058138 a.u.
  Convergence information after    11 iterations: 
  Largest element of residual vector : -0.53276451E-07.
  Largest element of DIIS residual   : -0.30748003E-07.
  transposing abij 
   The total correlation energy is -0.107720060800 a.u.
  Convergence information after    12 iterations: 
  Largest element of residual vector : -0.75152730E-07.
  Largest element of DIIS residual   : -0.19799091E-07.
  transposing abij 
   The total correlation energy is -0.107720073696 a.u.
  Convergence information after    13 iterations: 
  Largest element of residual vector :  0.14882110E-07.
  Largest element of DIIS residual   : -0.48869279E-08.
  transposing abij 
   The total correlation energy is -0.107720074281 a.u.
  Convergence information after    14 iterations: 
  Largest element of residual vector : -0.26577488E-07.
  Largest element of DIIS residual   : -0.45386563E-08.
  transposing abij 
   The total correlation energy is -0.107720076970 a.u.
  Convergence information after    15 iterations: 
  Largest element of residual vector : -0.12317900E-07.
  Largest element of DIIS residual   : -0.29181925E-08.
  transposing abij 
   The total correlation energy is -0.107720078612 a.u.
  Convergence information after    16 iterations: 
  Largest element of residual vector :  0.88365237E-08.
  Largest element of DIIS residual   : -0.87518793E-09.
  transposing abij 
   The total correlation energy is -0.107720078002 a.u.
  Convergence information after    17 iterations: 
  Largest element of residual vector : -0.11973896E-07.
  Largest element of DIIS residual   :  0.35419350E-09.
  transposing abij 
   The total correlation energy is -0.107720078546 a.u.
  Convergence information after    18 iterations: 
  Largest element of residual vector : -0.41904259E-08.
  Largest element of DIIS residual   :  0.20818816E-09.
  transposing abij 
   The total correlation energy is -0.107720078668 a.u.
  Convergence information after    19 iterations: 
  Largest element of residual vector : -0.24398488E-08.
  Largest element of DIIS residual   :  0.58117286E-10.
  transposing abij 
   The total correlation energy is -0.107720078778 a.u.
  Convergence information after    20 iterations: 
  Largest element of residual vector : -0.12961752E-08.
  Largest element of DIIS residual   :  0.39516467E-10.
  transposing abij 
   The total correlation energy is -0.107720078825 a.u.
  Convergence information after    21 iterations: 
  Largest element of residual vector : -0.65254450E-09.
  Largest element of DIIS residual   :  0.12759424E-10.
  transposing abij 
   The total correlation energy is -0.107720078861 a.u.
  Convergence information after    22 iterations: 
  Largest element of residual vector :  0.26366529E-09.
  Largest element of DIIS residual   :  0.11158941E-10.
  transposing abij 
   The total correlation energy is -0.107720078848 a.u.
  Convergence information after    23 iterations: 
  Largest element of residual vector : -0.49083753E-09.
  Largest element of DIIS residual   :  0.36857972E-11.
  transposing abij 
   The total correlation energy is -0.107720078856 a.u.
  Convergence information after    24 iterations: 
  Largest element of residual vector : -0.29287191E-09.
  Largest element of DIIS residual   : -0.32863950E-11.
  transposing abij 
   The total correlation energy is -0.107720078863 a.u.
  Convergence information after    25 iterations: 
  Largest element of residual vector : -0.81114572E-10.
  Largest element of DIIS residual   : -0.10911339E-11.
  Amplitude equations converged in    25iterations.
   The total correlation energy is -0.107720078866 a.u.
   The CC iterations have converged.

            ----------------------------------------------
                     Projected spin multiplicities: 
            ----------------------------------------------
             <0|S^2|0>                  =    2.0000000000.
             <0|S^2 (T2+T1**2) |0>      =   -0.0000000000.
             <0|S^2 T1|0>               =   -0.0000000000.
             Projected <0|S^2 exp(T)|0> =    2.0000000000.
             Approximate spin mult.     =    3.0000000000.
            ----------------------------------------------
   Largest T1 amplitudes for spin case AA:
   i       a                 i       a                 i       a    
-----------------------------------------------------------------------------
[  1       7    ]-0.01639 [  1       4    ] 0.01347 [  1      10    ] 0.01279
[  1      15    ]-0.01094 [  1       9    ] 0.00968 [  1      19    ]-0.00627
[  1       5    ]-0.00410 [  1      21    ] 0.00122 [  2      46    ] 0.00116
[  3      71    ] 0.00116 [  1      29    ]-0.00113 [  3      74    ] 0.00109
[  2      49    ] 0.00109 [  1      31    ]-0.00027 [  1      16    ]-0.00025
-----------------------------------------------------------------------------
   Norm of T1AA vector (       88 symmetry allowed elements):  0.0298571130.
-----------------------------------------------------------------------------
   Largest T2 amplitudes for spin case AA:
   i   j   a   b             i   j   a   b             i   j   a   b
-----------------------------------------------------------------------------
[  3   2  71  46]-0.01309 [  3   2  96  14]-0.01229 [  3   2  93   8]-0.01074
[  3   1 159 112]-0.01069 [  2   1 139 112]-0.01069 [  3   2  96   8] 0.01030
[  3   2  93  14] 0.01030 [  3   1 162 112] 0.01027 [  2   1 142 112] 0.01027
[  3   2  71  49]-0.00981 [  3   2  74  46]-0.00981 [  3   2  71  43]-0.00956
[  3   2  68  46]-0.00956 [  3   2  74  49]-0.00897 [  3   1  71  10]-0.00777
-----------------------------------------------------------------------------
   Norm of T2AA vector (     6451 symmetry allowed elements):  0.0598165996.
-----------------------------------------------------------------------------
   Largest T1 amplitudes for spin case BB:
   i       a                 i       a                 i       a    
-----------------------------------------------------------------------------
[  1      12    ] 0.02178 [  1       6    ]-0.02165 [  1       5    ] 0.01109
[  1       3    ] 0.01006 [  1       2    ]-0.00995 [  1      17    ] 0.00906
[  1       8    ]-0.00627 [  1      18    ] 0.00468 [  1      27    ] 0.00192
[  1      14    ] 0.00047 [  1      29    ] 0.00040 [  1       9    ] 0.00032
[  1      24    ] 0.00020 [  1      37    ]-0.00009 [  1      34    ]-0.00003
-----------------------------------------------------------------------------
   Norm of T1BB vector (       38 symmetry allowed elements):  0.0375972286.
-----------------------------------------------------------------------------
   Largest T2 amplitudes for spin case AB:
       _       _                 _       _                 _       _
   i   j   a   b             i   j   a   b             i   j   a   b
-----------------------------------------------------------------------------
[  1   1 112 112]-0.12177 [  1   1 112 114]-0.02818 [  2   1 139 112]-0.02622
[  3   1 159 112]-0.02622 [  3   1 162 112] 0.02583 [  2   1 142 112] 0.02583
[  3   1   8  66] 0.02534 [  3   1  93  40]-0.02534 [  2   1   8  40]-0.02534
[  2   1  93  66]-0.02534 [  3   1  96  40] 0.02433 [  2   1  14  40] 0.02433
[  2   1  96  66] 0.02433 [  3   1  14  66]-0.02433 [  1   1 114 112]-0.02380
-----------------------------------------------------------------------------
   Norm of T2AB vector (    13617 symmetry allowed elements):  0.1945561641.
-----------------------------------------------------------------------------
       Summary of iterative solution of CC equations 
      -----------------------------------------------------------
                       Correlation           Total
       Iteration         Energy              Energy
      -----------------------------------------------------------
            0        -0.087378614518     -53.975437130613  DIIS 
            1        -0.100062746161     -53.988121262257  DIIS 
            2        -0.104391277348     -53.992449793444  DIIS 
            3        -0.107214696033     -53.995273212129  DIIS 
            4        -0.107645516386     -53.995704032482  DIIS 
            5        -0.107715038608     -53.995773554703  DIIS 
            6        -0.107716450351     -53.995774966446  DIIS 
            7        -0.107718944941     -53.995777461036  DIIS 
            8        -0.107719699164     -53.995778215259  DIIS 
            9        -0.107719968632     -53.995778484728  DIIS 
           10        -0.107720020111     -53.995778536207  DIIS 
           11        -0.107720058138     -53.995778574233  DIIS 
           12        -0.107720060800     -53.995778576896  DIIS 
           13        -0.107720073696     -53.995778589791  DIIS 
           14        -0.107720074281     -53.995778590376  DIIS 
           15        -0.107720076970     -53.995778593066  DIIS 
           16        -0.107720078612     -53.995778594707  DIIS 
           17        -0.107720078002     -53.995778594097  DIIS 
           18        -0.107720078546     -53.995778594642  DIIS 
           19        -0.107720078668     -53.995778594764  DIIS 
           20        -0.107720078778     -53.995778594874  DIIS 
           21        -0.107720078825     -53.995778594920  DIIS 
           22        -0.107720078861     -53.995778594956  DIIS 
           23        -0.107720078848     -53.995778594944  DIIS 
           24        -0.107720078856     -53.995778594952  DIIS 
           25        -0.107720078866     -53.995778594962  DIIS 
      -----------------------------------------------------------
      A miracle has come to pass. The CC iterations have converged.
      The reference energy is       -53.88805851609546 a.u.
      The correlation energy is      -0.10772007886623 a.u.
      The total energy is           -53.99577859496170 a.u.
 @CHECKOUT-I, Total execution time (CPU/WALL):     2603.99/     788.92 seconds.
--executable xvcc finished with status     0 in      788.99 seconds (walltime).
  The final electronic energy is       -53.995778594961699 a.u. 
  This computation required                         1226.67 seconds (walltime).
