 --invoking executable--
/project1/nike/cfour_v2.00beta_May2019xnmol_noLABBASIS/bin/xjoda


   *************************************************************************
         <<<     CCCCCC     CCCCCC   |||     CCCCCC     CCCCCC   >>>
       <<<      CCC        CCC       |||    CCC        CCC         >>>
      <<<      CCC        CCC        |||   CCC        CCC            >>>
    <<<        CCC        CCC        |||   CCC        CCC              >>>
      <<<      CCC        CCC        |||   CCC        CCC            >>>
       <<<      CCC        CCC       |||    CCC        CCC         >>>
         <<<     CCCCCC     CCCCCC   |||     CCCCCC     CCCCCC   >>>
   *************************************************************************

     ****************************************************************
     * CFOUR Coupled-Cluster techniques for Computational Chemistry *
     ****************************************************************
 

   Department of Chemistry                Institut fuer Physikalische Chemie
   University of Texas at Austin          Universitaet Mainz
   Austin, TX  78712, USA                 D-55099 Mainz, Germany
 
                       Version 2.00beta
 
                     wob104                                            
                     Fri Aug 23 00:21:23 EDT 2019                      
                     integer*8 version is running
 
********************************************************************************
*                          Input from ZMAT file                                *
********************************************************************************
TITLE                                                                           
S                                                                               
O 1 R                                                                           
O 1 R 2 A                                                                       
                                                                                
R=1.4308                                                                        
A=119.329                                                                       
                                                                                
*ACES2(CALC=CCSD                                                                
#GEOM=CRC2016_Re_And_Theta_e                                                    
#COORD=CARTESIAN                                                                
PRINT=4                                                                         
JODA_PRINT=4                                                                    
INPUT_MRCC=OFF                                                                  
CC_PROG=MRCC                                                                    
FROZEN_CORE=ON                                                                  
#DROPMO=1>5                                                                     
CONTRACTION=GENERAL                                                             
#CONTRACTION=SEGMENTED                                                          
RELATIVISTIC=OFF                                                                
#EXCITE=EOMEE                                                                   
#ESTATE_CONV=5                                                                  
#ESTATE_SYM=2/2/2/2/2/2/2/2                                                     
XFORM_TOL=18                                                                    
SAVE_INTS=ON                                                                    
SCF_EXPORDER=6                                                                  
SCF_EXPSTART=5                                                                  
#SCF_DAMPING=1000                                                               
SCF_EXTRAPOLATION=ON                                                            
SCF_CONV=12                                                                     
SCF_MAXCYC=9999                                                                 
CC_CONV=5                                                                       
CC_MAXCYC=999                                                                   
T3_EXTRAPOL=ON                                                                  
REFERENCE=RHF                                                                   
CHARGE=+0                                                                       
MULT=1                                                                          
ABCDTYPE=STANDARD                                                               
#OCCUPATION=3-2-2-0-1-0-0-0/3-1-1-0-1-0-0-0                                     
MEM=20                                                                          
MEM_UNIT=GB                                                                     
BASIS=SPECIAL)                                                                  
                                                                                
S:def2-TZVPP                                                                    
O:def2-TZVPP                                                                    
O:def2-TZVPP                                                                    
                                                                                
********************************************************************************
  @GTFLGS-W, Keyword #GEOM not known and is ignored.
  @GTFLGS-W, Keyword #COORD not known and is ignored.
  @GTFLGS-W, Keyword #DROPMO not known and is ignored.
  @GTFLGS-W, Keyword #CONTRACTION not known and is ignored.
  @GTFLGS-W, Keyword #EXCITE not known and is ignored.
  @GTFLGS-W, Keyword #ESTATE_CONV not known and is ignored.
  @GTFLGS-W, Keyword #ESTATE_SYM not known and is ignored.
  @GTFLGS-W, Keyword #SCF_DAMPING not known and is ignored.
  @GTFLGS-W, Keyword #OCCUPATION not known and is ignored.
    -------------------------------------------------------------------
                    CFOUR Control Parameters 
    -------------------------------------------------------------------
        External           Internal           Value            Units
          Name               Name
    -------------------------------------------------------------------
       ABCDTYPE             IABCDT         STANDARD     [  0]   ***   
       ANHARMONIC           IANHAR         OFF          [  0]   ***   
       ANH_ALGORIT          IANALG         STANDARD     [  0]   ***   
       ANH_DERIVAT          IANDER         SECOND       [  1]   ***   
       ANH_STEPSIZ          ICUBST             50000          x 10-6  
       ANH_SYMMETR          IANHSM         ABELIAN      [  0]   ***   
       AO_LADDERS           IAOLAD         SINGLEPASS   [  1]   ***   
       BASIS                IBASIS         SPECIAL      [  0]   ***   
       BREIT                IBREIT         OFF          [  0]   ***   
       BRUCK_CONV           IBRTOL          10D-  4             ***   
       BRUECKNER            IBRKNR             OFF      [  0]   ***   
       BUFFERSIZE           IBUFFS            600               ***   
       CACHE_RECS           ICHREC             10               ***   
       CALCLEVEL            ICLLVL           CCSD       [ 10]   ***   
       CCORBOPT             ICCORB             OFF      [  0] x 0.01  
       CC_CONV              ICCCNV          10D-  5             ***   
       CC_EXPORDER          ICCEOR              5               ***   
       CC_EXTRAPOL          ICCEXT             DIIS     [  1]   ***   
       CC_MAXCYC            ICCCYC            999              cycles 
       CC_PROGRAM           ICCPRO         MRCC         [  2]   ***   
       CHARGE               ICHRGE              0               ***   
       CHOLESKY             ICHOLE         OFF          [  0]   ***   
       CIS_CONV             ICISTL              5               ***   
       COMM_SIZE            IPSIZE            ***               ***   
       CONSTANT             ICONST         OLD          [  1]   ***   
       CONTINUUM            ICONTU         NONE         [  0]   ***   
       CONTRACTION          ICNTYP          GENERAL     [  1]   ***   
       COORDINATES          ICOORD         INTERNAL     [  0]   ***   
       CPHF_CONVER          ICPHFT          10D- 16             ***   
       CPHF_MAXCYC          ICPHFC             64              cycles 
       CUBIC                ICUBIC         OFF          [  0]   ***   
       CURVILINEAR          ICURVY            OFF       [  0]   ***   
       DBOC                 IDBOC          OFF          [  0]   ***   
       DCT                  IDCT           OFF          [  0]   ***   
       DERIV_LEV            IDRLVL            ZERO      [  0]   ***   
       DIAG_MRCC            IEOMST          10D-  0             ***   
       DIFF_TYPE            IDIFTY         RELAXED      [  0]   ***   
       DIRECT               IDIRCT         OFF          [  0]   ***   
       DROPMO               IDRPMO      NONE         
       ECP                  IECP           OFF          [  0]   ***   
       EIGENVECTOR          IVEC                1               ***   
       EL_ANHARM            IELANH         OFF          [  0]   ***   
       EOMFOLLOW            IEOMSR         ENERGY       [  0]   ***   
       EOM_MRCC             IMRCCE         NEW          [  1]   ***   
       EOM_NONIT            EOMNON         OFF          [  0]   ***   
       EOM_NSING            IEOMSI          10D-  0             ***   
       EOM_NSTATES          IMRCCD         DAVIDSON     [  0]   ***   
       EOM_NTRIP            IEOMTR          10D-  0             ***   
       EOM_ORDER            IEXORD         ENERGY       [  0]   ***   
       ESTATE_CONV          IEXTOL          10D-  5             ***   
       ESTATE_DIAG          IEXDIG         ITERATIVE    [  0]   ***   
       ESTATE_LOCK          IESLOC         ON           [  1]   ***   
       ESTATE_MAXC          IEXMXC             20               ***   
       ESTATE_PROP          IEXPRP         OFF          [  0]   ***   
       EVAL_HESS            IRECAL              0            # of cyc.
       EXCITATION           IEXCIT              0               ***   
       EXCITE               IEXCIT         NONE         [  0]   ***   
       FCGRADNEW            IFCGNW         OFF          [  0]   ***   
       FC_FIELD             IFINFC              0             x 10-6  
       FD_CALTYPE           IFDCAL         GRADONLY     [  0]   ***   
       FD_PROJECT           IFDPRJ         OFF          [  1]   ***   
       FD_STEPSIZE          IDISFD              0            10-4 bohr
       FD_USEGROUP          IFDGRP         FULL         [  0]   ***   
       FILE_RECSIZ          IFLREC              4096           words  
       FINITE_PERT          IFIPER              0             x 10-6  
       FIXGEOM              IFIXGM         OFF          [  0]   ***   
       FOCK                 IFOCK          AO           [  1]   ***   
       FREQ_ALGORI          IVIALG         STANDARD     [  0]   ***   
       FROZEN_CORE          IFROCO         ON           [  1]   ***   
       FROZEN_VIRT          IFROVI         OFF          [  0]   ***   
       GAMMA_ABCD           IGABCD         STORE        [  0]   ***   
       GAMMA_ABCI           IGABCI         STORE        [  0]   ***   
       GENBAS_1             IGNBS1              0               ***   
       GENBAS_2             IGNBS2              0               ***   
       GENBAS_3             IGNBS3              0               ***   
       GENBAS_4             IGNBS4              0               ***   
       GEO_CONV             ICONTL              5              H/bohr 
       GEO_MAXCYC           IOPTCY             50               ***   
       GEO_MAXSTEP          IMXSTP            300            millibohr
       GEO_METHOD           INR            SINGLE_POINT [  5]   ***   
       GIAO                 IGIAO          OFF          [  1]   ***   
       GIMIC                IGIMIC         OFF          [  0]   ***   
       GRID                 IGRID          OFF          [  0]   ***   
       GRID_ALGO            IGALGO         SERIAL       [  0]   ***   
       GUESS                IGUESS            MOREAD    [  0]   ***   
       HBAR                 IHBAR              OFF      [  0]   ***   
       HESS_TYPE            IHESTP         SCF          [  0]   ***   
       HF2_FILE             IHF2Fl         USE          [  1]   ***   
       HFSTABILITY          ISTABL         OFF          [  0]   ***   
       INCORE               INCORE             OFF      [  0]   ***   
       INPUT_MRCC           IMRCC          OFF          [  0]   ***   
       INTEGRALS            INTTYP             VMOL     [  1]   ***   
       JODA_PRINT           IJPRNT              4               ***   
       LINDEP_TOL           ILINDP              8               ***   
       LINEQ_CONV           IZTACN          10D-  7           cycles  
       LINEQ_EXPOR          ILMAXD              5               ***   
       LINEQ_MAXCY          ILMAXC             50               ***   
       LINEQ_TYPE           ILTYPE         DIIS         [  1]   ***   
       LOCK_ORBOCC          ILOCOC             OFF      [  0]   ***   
       MEMORY_SIZE          IMEMSZ         *********           words  
       MEM_UNIT             IMEMU          GB           [  3]   ***   
       MRCC                 IMRCCC         OFF          [  0]   ***   
       MULTIPLICTY          IMULTP              1               ***   
       NEGEVAL              IDIE             ABORT      [  0]   ***   
       NEWNORM              INEWNO         OFF          [  0]   ***   
       NON-HF               INONHF             OFF      [  0]   ***   
       NTOP_TAMP            ITOPT2             15               ***   
       NUC_MODEL            INUCMO         POINT        [  0]   ***   
       OCCUPATION           IOCCU   ESTIMATED BY SCF 
       OPEN-SHELL           IOPEN          SPIN-ORBITAL [  0]   ***   
       ORBITALS             IORBTP           STANDARD   [  0]   ***   
       PARALLEL             IPARAL         ON           [  1]   ***   
       PARA_INT             IPINTS         ON           [  1]   ***   
       PARA_PRINT           IPPRIN              0               ***   
       PERT_ORB             IPTORB         STANDARD     [  0]   ***   
       POINTS               IGRDFD              0               ***   
       PRINT                IPRNT               4               ***   
       PROPS                IPROPS             OFF      [  0]   ***   
       PROP_INTEGR          IINTYP         INTERNAL     [  0]   ***   
       PSI                  IPSI           OFF          [  0]   ***   
       QUARTIC              IQUART         OFF          [  0]   ***   
       RAMAN_INT            IRAMIN         OFF          [  0]   ***   
       RAMAN_ORB            IRAMRE         UNRELAXED    [  0]   ***   
       RDO                  IRDOFM             OFF      [  0]   ***   
       REFERENCE            IREFNC             RHF      [  0]   ***   
       RELATIVIST           IRELAT         OFF          [  0]   ***   
       RELAX_DENS           IRDENS             OFF      [  0]   ***   
       RESET_FLAGS          IRESET             OFF      [  0]   ***   
       RESTART_CC           ICCRES         OFF          [  0]   ***   
       ROT_EVEC             ROTVEC              0               ***   
       SAVE_INTS            ISVINT              ON      [  1]   ***   
       SCALE_ON             ISTCRT              0               ***   
       SCF_CONV             ISCFCV          10D- 12             ***   
       SCF_DAMPING          IDAMP               0             x 10-3  
       SCF_EXPORDE          IRPPOR              6               ***   
       SCF_EXPSTAR          IRPPLS              5               ***   
       SCF_EXTRAPO          IRPP                ON      [  1]   ***   
       SCF_MAXCYC           ISCFCY            ***              cycles 
       SCF_NOSTOP           ISCFST         OFF          [  0]   ***   
       SCF_PRINT            ISCFPR              0               ***   
       SD_FIELD             IFINSD              0             x 10-6  
       SEQUENCE             ISEQUE         OFF          [  0]   ***   
       SOPERT               IPERSO         OFF          [  0]   ***   
       SPHERICAL            IDFGHI             ON       [  1]   ***   
       SPINORBIT            ISOCAL         OFF          [  0]   ***   
       SPINROTATIO          ISRCON         OFF          [  0]   ***   
       SPIN_FLIP            ISPFLP         OFF          [  0]   ***   
       SPIN_ORBIT           ISPORB         OFF          [  0]   ***   
       SPIN_SCAL            ISCSMP         OFF          [  0]   ***   
       SUBGROUP             ISUBGP         DEFAULT      [  0]   ***   
       SUBGRPAXIS           ISBXYZ         X            [  0]   ***   
       SYMMETRY             ISYM             ON         [  0]   ***   
       SYM_CHECK            ISYMCK         OVERRIDE     [  1]   ***   
       T3_EXTRAPOL          IT3EXT         ON           [  1]   ***   
       TAMP_SUM             IEVERY              5               ***   
       TESTSUITE            ITESTS         OFF          [  0]   ***   
       THERMOCH             ITHERM         OFF          [  0]   ***   
       TOL_CHOLESK          ITOLCH          10D-  4             ***   
       TRANGRAD             IRESRM         OFF          [  0]   ***   
       TRANS_INV            ITRAIN         USE          [  0]   ***   
       TREAT_PERT           ITREAT         SIMULTANEOUS [  0]   ***   
       UIJ_THRESHO          IUIJTH              1               ***   
       UNITS                IUNITS         ANGSTROM     [  0]   ***   
       UNOS                 IUNOS          OFF          [  0]   ***   
       UPDATE_HESS          IHUPDT         ON           [  1]   ***   
       VIBPHASE             ISETPH         STANDARD     [  0]   ***   
       VIBRATION            IVIB              NO        [  0]   ***   
       VIB_ALGORIT          IGEALG         STANDARD     [  0]   ***   
       VNATORB              IVNORB         OFF          [  0]   ***   
       VTRAN                IVTRAN         FULL/PARTIAL [  0]   ***   
       XFIELD               IXEFLD              0             x 10-6  
       XFORM_TOL            IXFTOL          10D- 18             ***   
       YFIELD               IYEFLD              0             x 10-6  
       ZFIELD               IZEFLD              0             x 10-6  
    -------------------------------------------------------------------
   3 entries found in Z-matrix 
   Job Title : TITLE                                                                           
 Variable names read by FETCHZ
  1           
  2           
  3           
  4 R         
  5           
  6           
  7 R         
  8 A         
  9           
 Atomic symbols read by FETCHZ
  1 S    
  2 O    
  3 O    
 Connectivity matrix read by FETCHZ
  1   0
  2   0
  3   0
  4   1
  5   0
  6   0
  7   1
  8   2
  9   0
   There are  2 unique internal coordinates.
   Of these,  0 will be optimized.
   User supplied Z-matrix: 
--------------------------------------------------------------------------------
       SYMBOL    BOND      LENGTH    ANGLE     ANGLE     DIHED     ANGLE
                  TO      (ANGST)    WRT      (DEG)      WRT      (DEG)
--------------------------------------------------------------------------------
        S    
        O          1         R    
        O          1         R          2        A    
                  *Initial values for internal coordinates* 
                      Name             Value
                        R               1.4308000000
                        A             119.3290000000
--------------------------------------------------------------------------------
  1  S         16    31.97207
  2  O          8    15.99491
  3  O          8    15.99491
   31.9720707000
   15.9949146300
   15.9949146300
 After translation to center of mass coordinates 
       -0.589475848475    0.000000000000   -0.344952001652
       -0.589475848475    0.000000000000    2.358868704119
        1.767773072272    0.000000000000   -1.669347688218
  Inertia tensor (amu*bohr**2)
  137.37768    0.00000   62.94108
    0.00000  204.02979    0.00000
   62.94108    0.00000   66.65211
    Inertia tensor:
      137.377681349347    0.000000000000   62.941077305524
        0.000000000000  204.029788867593    0.000000000000
       62.941077305524    0.000000000000   66.652107518246
    Principal axis orientation for molecular system: 
        0.000000000000   -0.682988769585    0.000000000000
       -2.333621101307    0.682609621045    0.000000000000
        2.333621101307    0.682609621045    0.000000000000
    Diagonalized inertia tensor:
       29.819978332906    0.000000000000    0.000000000000
        0.000000000000  174.209810534687    0.000000000000
        0.000000000000    0.000000000000  204.029788867593
    Eigenvectors of inertia tensor: 
        0.505062479814    0.863082783679    0.000000000000
        0.000000000000    0.000000000000    1.000000000000
       -0.863082783679    0.505062479814    0.000000000000
 factor:   60.1997200000000     
   Rotational constants (in cm-1): 
          0.2950535818             0.3455587249             2.0187714199
   Rotational constants (in MHz): 
       8845.4850922833         10359.5914045877         60521.2530895257
  @SYMMETRY-I, Handedness of inertial frame:-1.00000
  @SYMMETRY-I, Sense of inertial frame y-axis will be changed.
  @SYMMETRY-I, The symmetry group is 1-fold degenerate.
  @SYMMETRY-I, The molecule belongs to an Abelian group.
   Principal axis orientation for molecule:
        0.000000000000    0.682988769585    0.000000000000
       -2.333621101307   -0.682609621045    0.000000000000
        2.333621101307   -0.682609621045    0.000000000000
   Reflection in plane  3 is a valid symmetry operation.
   Rotation about  2 is a valid symmetry operation 
   Reflection in plane  1 is a valid symmetry operation.
  Symmetry bits:    5   2   0
********************************************************************************
   The full molecular point group is C2v .
   The largest Abelian subgroup of the full molecular point group is C2v .
   The computational point group is C2v .
********************************************************************************
--------------------------------------------------------------------------------
   Analysis of internal coordinates specified by Z-matrix 
--------------------------------------------------------------------------------
   *The nuclear repulsion energy is  108.393428770527322 a.u.
   *There are   2 degrees of freedom within the tot. symm. molecular subspace.
   *Z-matrix requests optimization of   0 coordinates.
   *The optimization is constrained.
   *The following   2 parameters can have non-zero 
    derivatives within the totally symmetric subspace:
             A    [ 3]  R    [ 1]
   *The following   0 parameters are to be optimized:

   *The following coordinates must be varied in an  unconstrained optimization.
             A    [ 3]  R    [ 1]
--------------------------------------------------------------------------------
 ----------------------------------------------------------------
 Z-matrix   Atomic            Coordinates (in bohr)
  Symbol    Number           X              Y              Z
 ----------------------------------------------------------------
     S        16         0.00000000     0.00000000     0.68298877
     O         8         0.00000000    -2.33362110    -0.68260962
     O         8         0.00000000     2.33362110    -0.68260962
 ----------------------------------------------------------------
   Interatomic distance matrix (Angstroms) 
 
                 S             O             O    
                [ 1]        [ 2]        [ 3]
  S    [ 1]     0.00000
  O    [ 2]     1.43080     0.00000
  O    [ 3]     1.43080     2.46980     0.00000
  Inertia tensor (amu*bohr**2)
  204.02979    0.00000    0.00000
    0.00000   29.81998    0.00000
    0.00000    0.00000  174.20981
   Rotational constants (in cm-1): 
          0.2950535818             2.0187714199             0.3455587249
   Rotational constants (in MHz): 
       8845.4850922833         60521.2530895256         10359.5914045877
  @GTFLGS-W, Keyword #GEOM not known and is ignored.
  @GTFLGS-W, Keyword #COORD not known and is ignored.
  @GTFLGS-W, Keyword #DROPMO not known and is ignored.
  @GTFLGS-W, Keyword #CONTRACTION not known and is ignored.
  @GTFLGS-W, Keyword #EXCITE not known and is ignored.
  @GTFLGS-W, Keyword #ESTATE_CONV not known and is ignored.
  @GTFLGS-W, Keyword #ESTATE_SYM not known and is ignored.
  @GTFLGS-W, Keyword #SCF_DAMPING not known and is ignored.
  @GTFLGS-W, Keyword #OCCUPATION not known and is ignored.
  There are   7 frozen-core orbitals.
  There are  104 basis functions.
 @GEOPT-W, Archive file not created for single-point calculation.
  @CHECKOUT-I, Total execution time (CPU/WALL):        0.36/       0.44 seconds.
--executable xjoda finished with status     0 in        0.57 seconds (walltime).
 --invoking executable--
/project1/nike/cfour_v2.00beta_May2019xnmol_noLABBASIS/bin/xvmol
Running with 15 threads/proc

********************************************************************************
                   INPUT FROM MOL FILE                                          
********************************************************************************
INTGRL        1    0    1    0    0    0    0    0    0
         *** CFOUR Program System (Release V0.1) *** 
TITLE
    2    2 X  Y       0.10E-08              0    0
   9999.00      3.00
         16.00000000    1    4    1    1    1    1
S #1  -0.000000000000001   0.000000000000000   0.682988769585003
   14    5
   60700.9281040000       5.469594422500000E-004  0.000000000000000E+000
  0.000000000000000E+000  0.000000000000000E+000  0.000000000000000E+000
   9102.61068540000       4.229722455700000E-003  0.000000000000000E+000
  0.000000000000000E+000  0.000000000000000E+000  0.000000000000000E+000
   2071.41660090000       2.174782415900000E-002  0.000000000000000E+000
  0.000000000000000E+000  0.000000000000000E+000  0.000000000000000E+000
   586.024768210000       8.510005358900000E-002  0.000000000000000E+000
  0.000000000000000E+000  0.000000000000000E+000  0.000000000000000E+000
   190.553950210000       0.247991284590000       0.000000000000000E+000
  0.000000000000000E+000  0.000000000000000E+000  0.000000000000000E+000
   67.6303842600000       0.467036404060000       0.000000000000000E+000
  0.000000000000000E+000  0.000000000000000E+000  0.000000000000000E+000
   25.1273069050000       0.364345875500000       0.000000000000000E+000
  0.000000000000000E+000  0.000000000000000E+000  0.000000000000000E+000
   112.574630100000       0.000000000000000E+000  2.167004024000000E-002
  0.000000000000000E+000  0.000000000000000E+000  0.000000000000000E+000
   34.7955542170000       0.000000000000000E+000  9.360230176000001E-002
  0.000000000000000E+000  0.000000000000000E+000  0.000000000000000E+000
   6.51155562150000       0.000000000000000E+000 -0.260680014220000     
  0.000000000000000E+000  0.000000000000000E+000  0.000000000000000E+000
   3.23990322610000       0.000000000000000E+000  0.000000000000000E+000
   1.28420894350000       0.000000000000000E+000  0.000000000000000E+000
   1.54771608810000       0.000000000000000E+000  0.000000000000000E+000
  0.660364165840000       0.000000000000000E+000  0.000000000000000E+000
  0.405410301120000       0.000000000000000E+000  0.000000000000000E+000
  0.000000000000000E+000   1.00000000000000       0.000000000000000E+000
  0.145506510590000       0.000000000000000E+000  0.000000000000000E+000
  0.000000000000000E+000  0.000000000000000E+000   1.00000000000000     
    9    5
   564.367160270000       2.479679631700000E-003  0.000000000000000E+000
  0.000000000000000E+000  0.000000000000000E+000  0.000000000000000E+000
   133.426243790000       1.967793025000000E-002  0.000000000000000E+000
  0.000000000000000E+000  0.000000000000000E+000  0.000000000000000E+000
   42.4682711890000       8.998000825800000E-002  0.000000000000000E+000
  0.000000000000000E+000  0.000000000000000E+000  0.000000000000000E+000
   15.6165275800000       0.257058805750000       0.000000000000000E+000
  0.000000000000000E+000  0.000000000000000E+000  0.000000000000000E+000
   6.10939884690000       0.435151672920000       0.000000000000000E+000
  0.000000000000000E+000  0.000000000000000E+000  0.000000000000000E+000
   2.44041601980000       0.000000000000000E+000  0.348832405950000     
  0.000000000000000E+000  0.000000000000000E+000  0.000000000000000E+000
  0.838822012960000       0.000000000000000E+000  0.000000000000000E+000
   1.00000000000000       0.000000000000000E+000  0.000000000000000E+000
  0.312887469000000       0.000000000000000E+000  0.000000000000000E+000
  0.000000000000000E+000   1.00000000000000       0.000000000000000E+000
  0.107701090040000       0.000000000000000E+000  0.000000000000000E+000
  0.000000000000000E+000  0.000000000000000E+000   1.00000000000000     
    3    3
  0.273000000000000        1.00000000000000       0.000000000000000E+000
  0.000000000000000E+000
   3.75600000000000       0.000000000000000E+000   1.00000000000000     
  0.000000000000000E+000
  0.812000000000000       0.000000000000000E+000  0.000000000000000E+000
   1.00000000000000     
    1    1
  0.557000000000000        1.00000000000000     
          8.00000000    1    4    1    1    1    1
O #2   0.000000000000000  -2.333621101306935  -0.682609621045465
   11    5
   27032.3826310000       2.172630246500000E-004  0.000000000000000E+000
  0.000000000000000E+000  0.000000000000000E+000  0.000000000000000E+000
   4052.38713920000       1.683866219900000E-003  0.000000000000000E+000
  0.000000000000000E+000  0.000000000000000E+000  0.000000000000000E+000
   922.327227100000       8.739561626499999E-003  0.000000000000000E+000
  0.000000000000000E+000  0.000000000000000E+000  0.000000000000000E+000
   261.240709890000       3.523996880800000E-002  0.000000000000000E+000
  0.000000000000000E+000  0.000000000000000E+000  0.000000000000000E+000
   85.3546413510000       0.111535191150000       0.000000000000000E+000
  0.000000000000000E+000  0.000000000000000E+000  0.000000000000000E+000
   31.0350352450000       0.255889539610000       0.000000000000000E+000
  0.000000000000000E+000  0.000000000000000E+000  0.000000000000000E+000
   12.2608607280000       0.000000000000000E+000  0.397687309010000     
  0.000000000000000E+000  0.000000000000000E+000  0.000000000000000E+000
   4.99870760050000       0.000000000000000E+000  0.246278494300000     
  0.000000000000000E+000  0.000000000000000E+000  0.000000000000000E+000
   1.17031081580000       0.000000000000000E+000  0.000000000000000E+000
   1.00000000000000       0.000000000000000E+000  0.000000000000000E+000
  0.464747409940000       0.000000000000000E+000  0.000000000000000E+000
  0.000000000000000E+000   1.00000000000000       0.000000000000000E+000
  0.185045363570000       0.000000000000000E+000  0.000000000000000E+000
  0.000000000000000E+000  0.000000000000000E+000   1.00000000000000     
    6    3
   63.2749548010000       6.068510341800000E-003  0.000000000000000E+000
  0.000000000000000E+000
   14.6270493790000       4.191257582400000E-002  0.000000000000000E+000
  0.000000000000000E+000
   4.45012234560000       0.161538410880000       0.000000000000000E+000
  0.000000000000000E+000
   1.52757996470000       0.357069513110000       0.000000000000000E+000
  0.000000000000000E+000
  0.529351179430000       0.000000000000000E+000  0.447942075020000     
  0.000000000000000E+000
  0.174784212700000       0.000000000000000E+000  0.000000000000000E+000
  0.244460696630000     
    2    2
   2.31400000000000        1.00000000000000       0.000000000000000E+000
  0.645000000000000       0.000000000000000E+000   1.00000000000000     
    1    1
   1.42800000000000        1.00000000000000     
FINISH
                                                                                
********************************************************************************

ONE- AND TWO-ELECTRON INTEGRALS OVER SYMMETRY-ADAPTED AOS ARE CALCULATED.


    BASIS FUNCTION NOT NORMALIZED:
    CENTER (AS ORDERED IN MOL FILE): ?
    ANGULAR MOMENTUM TYPE:           S
    OFFSET WITHIN ANGULAR MOMENTUM:  1
    <CHI|CHI>:                       1.0903803538

    BASIS FUNCTION NOT NORMALIZED:
    CENTER (AS ORDERED IN MOL FILE): ?
    ANGULAR MOMENTUM TYPE:           S
    OFFSET WITHIN ANGULAR MOMENTUM:  2
    <CHI|CHI>:                       0.0465339884

    BASIS FUNCTION NOT NORMALIZED:
    CENTER (AS ORDERED IN MOL FILE): ?
    ANGULAR MOMENTUM TYPE:           S
    OFFSET WITHIN ANGULAR MOMENTUM:  3
    <CHI|CHI>:                       3.6198277538

    BASIS FUNCTION NOT NORMALIZED:
    CENTER (AS ORDERED IN MOL FILE): ?
    ANGULAR MOMENTUM TYPE:           P
    OFFSET WITHIN ANGULAR MOMENTUM:  1
    <CHI|CHI>:                       0.5052028598

    BASIS FUNCTION NOT NORMALIZED:
    CENTER (AS ORDERED IN MOL FILE): ?
    ANGULAR MOMENTUM TYPE:           P
    OFFSET WITHIN ANGULAR MOMENTUM:  2
    <CHI|CHI>:                       0.1216840474

    BASIS FUNCTION NOT NORMALIZED:
    CENTER (AS ORDERED IN MOL FILE): ?
    ANGULAR MOMENTUM TYPE:           S
    OFFSET WITHIN ANGULAR MOMENTUM:  1
    <CHI|CHI>:                       0.1441333881

    BASIS FUNCTION NOT NORMALIZED:
    CENTER (AS ORDERED IN MOL FILE): ?
    ANGULAR MOMENTUM TYPE:           S
    OFFSET WITHIN ANGULAR MOMENTUM:  2
    <CHI|CHI>:                       0.3880597184

    BASIS FUNCTION NOT NORMALIZED:
    CENTER (AS ORDERED IN MOL FILE): ?
    ANGULAR MOMENTUM TYPE:           P
    OFFSET WITHIN ANGULAR MOMENTUM:  1
    <CHI|CHI>:                       0.2549621911

    BASIS FUNCTION NOT NORMALIZED:
    CENTER (AS ORDERED IN MOL FILE): ?
    ANGULAR MOMENTUM TYPE:           P
    OFFSET WITHIN ANGULAR MOMENTUM:  2
    <CHI|CHI>:                       0.2006521026

    BASIS FUNCTION NOT NORMALIZED:
    CENTER (AS ORDERED IN MOL FILE): ?
    ANGULAR MOMENTUM TYPE:           P
    OFFSET WITHIN ANGULAR MOMENTUM:  3
    <CHI|CHI>:                       0.0597610322
CARTESIAN GAUSSIANS ARE USED.

2 TYPES OF ATOMS
2 SYMMETRY OPERATIONS

REFLECTION IN THE YZ-PLANE
REFLECTION IN THE XZ-PLANE

INTEGRALS LESS THAN 1e-14 ARE NEGLECTED.

ATOMIC TYPE NUMBER 1:
---------------------

    NUCLEAR CHARGE:                       16
    NUMBER OF SYMMETRY INDEPENDENT ATOMS: 1
    HIGHEST ORBITAL TYPE:                 F

    1 GROUPS OF CGTOS OF S TYPE
    1 GROUPS OF CGTOS OF P TYPE
    1 GROUPS OF CGTOS OF D TYPE
    1 GROUPS OF CGTOS OF F TYPE

    NUCLEAR COORDINATES (IN A.U.) ARE:

    S #1  -0.000000000000001   0.000000000000000   0.682988769585003

ATOMIC TYPE NUMBER 2:
---------------------

    NUCLEAR CHARGE:                       8
    NUMBER OF SYMMETRY INDEPENDENT ATOMS: 1
    HIGHEST ORBITAL TYPE:                 F

    1 GROUPS OF CGTOS OF S TYPE
    1 GROUPS OF CGTOS OF P TYPE
    1 GROUPS OF CGTOS OF D TYPE
    1 GROUPS OF CGTOS OF F TYPE

    NUCLEAR COORDINATES (IN A.U.) ARE:

    O #2   0.000000000000000  -2.333621101306935  -0.682609621045465

INTERNUCLEAR DISTANCES (A):

    FOR ATOM S #1 (COORDINATES:  -0.00000   0.00000   0.68299)

    O #2 1 DISTANCE IS   1.43080

    FOR ATOM O #2 (COORDINATES:   0.00000  -2.33362  -0.68261)

    O #2 3 DISTANCE IS   2.46980

GROUP MULTIPLICATION TABLE:

    1 2 3 4
    2 1 4 3
    3 4 1 2
    4 3 2 1

GAUSSIAN BASIS INFORMATION:

ATOM                EXPONENT       COEFFICIENTS

S #1  1  S   
                  1   60700.928104   1.4436859   0.0000000   0.0000000   0.0000000   0.0000000
                  2    9102.610685   2.6903416   0.0000000   0.0000000   0.0000000   0.0000000
                  3    2071.416601   4.5576134   0.0000000   0.0000000   0.0000000   0.0000000
                  4     586.024768   6.9181169   0.0000000   0.0000000   0.0000000   0.0000000
                  5     190.553950   8.6810242   0.0000000   0.0000000   0.0000000   0.0000000
                  6      67.630384   7.5175826   0.0000000   0.0000000   0.0000000   0.0000000
                  7      25.127307   2.7909008   0.0000000   0.0000000   0.0000000   0.0000000
                  8     112.574630   0.0000000   2.4743724   0.0000000   0.0000000   0.0000000
                  9      34.795554   0.0000000   4.4305159   0.0000000   0.0000000   0.0000000
                 10       6.511556   0.0000000  -3.5107205   0.0000000   0.0000000   0.0000000
                 11       3.239903   0.0000000   0.0000000   1.1617184   0.0000000   0.0000000
                 12       1.547716   0.0000000   0.0000000   0.3432560   0.0000000   0.0000000
                 13       0.405410   0.0000000   0.0000000   0.0000000   0.3621022   0.0000000
                 14       0.145507   0.0000000   0.0000000   0.0000000   0.0000000   0.1679082

S #1  1  X   
                 15     564.367160  13.6790183   0.0000000   0.0000000   0.0000000   0.0000000
                 16     133.426244  17.8952669   0.0000000   0.0000000   0.0000000   0.0000000
                 17      42.468271  19.5629319   0.0000000   0.0000000   0.0000000   0.0000000
                 18      15.616528  16.0036949   0.0000000   0.0000000   0.0000000   0.0000000
                 19       6.109399   8.3819669   0.0000000   0.0000000   0.0000000   0.0000000
                 20       2.440416   0.0000000   4.3478036   0.0000000   0.0000000   0.0000000
                 21       0.838822   0.0000000   0.0000000   1.1442670   0.0000000   0.0000000
                 22       0.312887   0.0000000   0.0000000   0.0000000   0.3335610   0.0000000
                 23       0.107701   0.0000000   0.0000000   0.0000000   0.0000000   0.0879458

S #1  1  Y   
                 24     564.367160  13.6790183   0.0000000   0.0000000   0.0000000   0.0000000
                 25     133.426244  17.8952669   0.0000000   0.0000000   0.0000000   0.0000000
                 26      42.468271  19.5629319   0.0000000   0.0000000   0.0000000   0.0000000
                 27      15.616528  16.0036949   0.0000000   0.0000000   0.0000000   0.0000000
                 28       6.109399   8.3819669   0.0000000   0.0000000   0.0000000   0.0000000
                 29       2.440416   0.0000000   4.3478036   0.0000000   0.0000000   0.0000000
                 30       0.838822   0.0000000   0.0000000   1.1442670   0.0000000   0.0000000
                 31       0.312887   0.0000000   0.0000000   0.0000000   0.3335610   0.0000000
                 32       0.107701   0.0000000   0.0000000   0.0000000   0.0000000   0.0879458

S #1  1  Z   
                 33     564.367160  13.6790183   0.0000000   0.0000000   0.0000000   0.0000000
                 34     133.426244  17.8952669   0.0000000   0.0000000   0.0000000   0.0000000
                 35      42.468271  19.5629319   0.0000000   0.0000000   0.0000000   0.0000000
                 36      15.616528  16.0036949   0.0000000   0.0000000   0.0000000   0.0000000
                 37       6.109399   8.3819669   0.0000000   0.0000000   0.0000000   0.0000000
                 38       2.440416   0.0000000   4.3478036   0.0000000   0.0000000   0.0000000
                 39       0.838822   0.0000000   0.0000000   1.1442670   0.0000000   0.0000000
                 40       0.312887   0.0000000   0.0000000   0.0000000   0.3335610   0.0000000
                 41       0.107701   0.0000000   0.0000000   0.0000000   0.0000000   0.0879458

S #1  1  XX  
                 42       0.273000   0.2939373   0.0000000   0.0000000
                 43       3.756000   0.0000000  28.8894887   0.0000000
                 44       0.812000   0.0000000   0.0000000   1.9801274

S #1  1  XY  
                 45       0.273000   0.2939373   0.0000000   0.0000000
                 46       3.756000   0.0000000  28.8894887   0.0000000
                 47       0.812000   0.0000000   0.0000000   1.9801274

S #1  1  XZ  
                 48       0.273000   0.2939373   0.0000000   0.0000000
                 49       3.756000   0.0000000  28.8894887   0.0000000
                 50       0.812000   0.0000000   0.0000000   1.9801274

S #1  1  YY  
                 51       0.273000   0.2939373   0.0000000   0.0000000
                 52       3.756000   0.0000000  28.8894887   0.0000000
                 53       0.812000   0.0000000   0.0000000   1.9801274

S #1  1  YZ  
                 54       0.273000   0.2939373   0.0000000   0.0000000
                 55       3.756000   0.0000000  28.8894887   0.0000000
                 56       0.812000   0.0000000   0.0000000   1.9801274

S #1  1  ZZ  
                 57       0.273000   0.2939373   0.0000000   0.0000000
                 58       3.756000   0.0000000  28.8894887   0.0000000
                 59       0.812000   0.0000000   0.0000000   1.9801274

S #1  1  F300
                 60       0.557000   1.5281791

S #1  1  F210
                 61       0.557000   1.5281791

S #1  1  F201
                 62       0.557000   1.5281791

S #1  1  F120
                 63       0.557000   1.5281791

S #1  1  F111
                 64       0.557000   1.5281791

S #1  1  F102
                 65       0.557000   1.5281791

S #1  1  F030
                 66       0.557000   1.5281791

S #1  1  F021
                 67       0.557000   1.5281791

S #1  1  F012
                 68       0.557000   1.5281791

S #1  1  F003
                 69       0.557000   1.5281791

O #2  1  S   
                 70   27032.382631   0.8598582   0.0000000   0.0000000   0.0000000   0.0000000
                 71    4052.387139   1.6055306   0.0000000   0.0000000   0.0000000   0.0000000
                 72     922.327227   2.7458779   0.0000000   0.0000000   0.0000000   0.0000000
                 73     261.240710   4.2987674   0.0000000   0.0000000   0.0000000   0.0000000
                 74      85.354641   5.8797663   0.0000000   0.0000000   0.0000000   0.0000000
                 75      31.035035   6.3163983   0.0000000   0.0000000   0.0000000   0.0000000
                 76      12.260861   0.0000000   2.9812148   0.0000000   0.0000000   0.0000000
                 77       4.998708   0.0000000   0.9419560   0.0000000   0.0000000   0.0000000
                 78       1.170311   0.0000000   0.0000000   0.8019292   0.0000000   0.0000000
                 79       0.464747   0.0000000   0.0000000   0.0000000   0.4011648   0.0000000
                 80       0.185045   0.0000000   0.0000000   0.0000000   0.0000000   0.2010799

O #2  3  S   
                 81   27032.382631   0.8598582   0.0000000   0.0000000   0.0000000   0.0000000
                 82    4052.387139   1.6055306   0.0000000   0.0000000   0.0000000   0.0000000
                 83     922.327227   2.7458779   0.0000000   0.0000000   0.0000000   0.0000000
                 84     261.240710   4.2987674   0.0000000   0.0000000   0.0000000   0.0000000
                 85      85.354641   5.8797663   0.0000000   0.0000000   0.0000000   0.0000000
                 86      31.035035   6.3163983   0.0000000   0.0000000   0.0000000   0.0000000
                 87      12.260861   0.0000000   2.9812148   0.0000000   0.0000000   0.0000000
                 88       4.998708   0.0000000   0.9419560   0.0000000   0.0000000   0.0000000
                 89       1.170311   0.0000000   0.0000000   0.8019292   0.0000000   0.0000000
                 90       0.464747   0.0000000   0.0000000   0.0000000   0.4011648   0.0000000
                 91       0.185045   0.0000000   0.0000000   0.0000000   0.0000000   0.2010799

O #2  1  X   
                 92      63.274955   3.0572017   0.0000000   0.0000000
                 93      14.627049   3.3844839   0.0000000   0.0000000
                 94       4.450122   2.9474262   0.0000000   0.0000000
                 95       1.527580   1.7118271   0.0000000   0.0000000
                 96       0.529351   0.0000000   0.6436058   0.0000000
                 97       0.174784   0.0000000   0.0000000   0.1610897

O #2  3  X   
                 98      63.274955   3.0572017   0.0000000   0.0000000
                 99      14.627049   3.3844839   0.0000000   0.0000000
                100       4.450122   2.9474262   0.0000000   0.0000000
                101       1.527580   1.7118271   0.0000000   0.0000000
                102       0.529351   0.0000000   0.6436058   0.0000000
                103       0.174784   0.0000000   0.0000000   0.1610897

O #2  1  Y   
                104      63.274955   3.0572017   0.0000000   0.0000000
                105      14.627049   3.3844839   0.0000000   0.0000000
                106       4.450122   2.9474262   0.0000000   0.0000000
                107       1.527580   1.7118271   0.0000000   0.0000000
                108       0.529351   0.0000000   0.6436058   0.0000000
                109       0.174784   0.0000000   0.0000000   0.1610897

O #2  3  Y   
                110      63.274955   3.0572017   0.0000000   0.0000000
                111      14.627049   3.3844839   0.0000000   0.0000000
                112       4.450122   2.9474262   0.0000000   0.0000000
                113       1.527580   1.7118271   0.0000000   0.0000000
                114       0.529351   0.0000000   0.6436058   0.0000000
                115       0.174784   0.0000000   0.0000000   0.1610897

O #2  1  Z   
                116      63.274955   3.0572017   0.0000000   0.0000000
                117      14.627049   3.3844839   0.0000000   0.0000000
                118       4.450122   2.9474262   0.0000000   0.0000000
                119       1.527580   1.7118271   0.0000000   0.0000000
                120       0.529351   0.0000000   0.6436058   0.0000000
                121       0.174784   0.0000000   0.0000000   0.1610897

O #2  3  Z   
                122      63.274955   3.0572017   0.0000000   0.0000000
                123      14.627049   3.3844839   0.0000000   0.0000000
                124       4.450122   2.9474262   0.0000000   0.0000000
                125       1.527580   1.7118271   0.0000000   0.0000000
                126       0.529351   0.0000000   0.6436058   0.0000000
                127       0.174784   0.0000000   0.0000000   0.1610897

O #2  1  XX  
                128       2.314000  12.3767311   0.0000000
                129       0.645000   0.0000000   1.3234258

O #2  3  XX  
                130       2.314000  12.3767311   0.0000000
                131       0.645000   0.0000000   1.3234258

O #2  1  XY  
                132       2.314000  12.3767311   0.0000000
                133       0.645000   0.0000000   1.3234258

O #2  3  XY  
                134       2.314000  12.3767311   0.0000000
                135       0.645000   0.0000000   1.3234258

O #2  1  XZ  
                136       2.314000  12.3767311   0.0000000
                137       0.645000   0.0000000   1.3234258

O #2  3  XZ  
                138       2.314000  12.3767311   0.0000000
                139       0.645000   0.0000000   1.3234258

O #2  1  YY  
                140       2.314000  12.3767311   0.0000000
                141       0.645000   0.0000000   1.3234258

O #2  3  YY  
                142       2.314000  12.3767311   0.0000000
                143       0.645000   0.0000000   1.3234258

O #2  1  YZ  
                144       2.314000  12.3767311   0.0000000
                145       0.645000   0.0000000   1.3234258

O #2  3  YZ  
                146       2.314000  12.3767311   0.0000000
                147       0.645000   0.0000000   1.3234258

O #2  1  ZZ  
                148       2.314000  12.3767311   0.0000000
                149       0.645000   0.0000000   1.3234258

O #2  3  ZZ  
                150       2.314000  12.3767311   0.0000000
                151       0.645000   0.0000000   1.3234258

O #2  1  F300
                152       1.428000  12.7097950

O #2  3  F300
                153       1.428000  12.7097950

O #2  1  F210
                154       1.428000  12.7097950

O #2  3  F210
                155       1.428000  12.7097950

O #2  1  F201
                156       1.428000  12.7097950

O #2  3  F201
                157       1.428000  12.7097950

O #2  1  F120
                158       1.428000  12.7097950

O #2  3  F120
                159       1.428000  12.7097950

O #2  1  F111
                160       1.428000  12.7097950

O #2  3  F111
                161       1.428000  12.7097950

O #2  1  F102
                162       1.428000  12.7097950

O #2  3  F102
                163       1.428000  12.7097950

O #2  1  F030
                164       1.428000  12.7097950

O #2  3  F030
                165       1.428000  12.7097950

O #2  1  F021
                166       1.428000  12.7097950

O #2  3  F021
                167       1.428000  12.7097950

O #2  1  F012
                168       1.428000  12.7097950

O #2  3  F012
                169       1.428000  12.7097950

O #2  1  F003
                170       1.428000  12.7097950

O #2  3  F003
                171       1.428000  12.7097950

SYMMETRY TRANSFORMATION INTO 104 SYMMETRY-ADAPTED BASIS FUNCTIONS

    IRREDUCIBLE REPRESENTATION NUMBER 1

    1    1 S #1 S      1   1.0
    2    2 S #1 S      2   1.0
    3    3 S #1 S      3   1.0
    4    4 S #1 S      4   1.0
    5    5 S #1 S      5   1.0
    6    6 S #1 Z     16   1.0
    7    7 S #1 Z     17   1.0
    8    8 S #1 Z     18   1.0
    9    9 S #1 Z     19   1.0
   10   10 S #1 Z     20   1.0
   11   11 S #1 XX    21  -1.0  30  -1.0  36   2.0
   12   12 S #1 XX    22  -1.0  31  -1.0  37   2.0
   13   13 S #1 XX    23  -1.0  32  -1.0  38   2.0
   14   14 S #1 YY    21   1.0  30  -1.0
   15   15 S #1 YY    22   1.0  31  -1.0
   16   16 S #1 YY    23   1.0  32  -1.0
   17   17 S #1 ZZ    41  -3.0  46  -3.0  48   2.0
   18   18 S #1 ZZ    41   1.0  46  -1.0
   19   19 S #1 ZZ    49   1.0  50   1.0
   20   20 S #1 F201  51   1.0  52   1.0
   21   21 S #1 F021  53   1.0  54   1.0
   22   22 S #1 F003  55   1.0  56   1.0
   23   23 O #2 S     57   1.0  58   1.0
   24   24 O #2 S     65   1.0  66  -1.0
   25   25 O #2 S     67   1.0  68  -1.0
   26   26 O #2 S     69   1.0  70  -1.0
   27   27 O #2 S     71   1.0  72   1.0
   28   28 O #2 Y     73   1.0  74   1.0
   29   29 O #2 Y     75   1.0  76   1.0
   30   30 O #2 Y     77  -1.0  78  -1.0  89  -1.0  90  -1.0  97   2.0  98   2.0
   31   31 O #2 Z     79  -1.0  80  -1.0  91  -1.0  92  -1.0  99   2.0 100   2.0
   32   32 O #2 Z     77   1.0  78   1.0  89  -1.0  90  -1.0
   33   33 O #2 Z     79   1.0  80   1.0  91  -1.0  92  -1.0
   34   34 O #2 XX    93   1.0  94  -1.0
   35   35 O #2 XX    95   1.0  96  -1.0
   36   36 O #2 YY   103  -1.0 104   1.0 113  -1.0 114   1.0 117   4.0 118  -4.0
   37   37 O #2 YY   105  -3.0 106  -3.0 115  -3.0 116  -3.0 119   2.0 120   2.0
   38   38 O #2 YZ   103   3.0 104  -3.0 113  -1.0 114   1.0
   39   39 O #2 YZ   105   1.0 106   1.0 115  -1.0 116  -1.0
   40   40 O #2 ZZ     6   1.0
   41   41 O #2 ZZ     7   1.0
   42   42 O #2 F210   8   1.0
   43   43 O #2 F201   9   1.0
   44   44 O #2 F030  10   1.0
   45   45 O #2 F021  27   1.0
   46   46 O #2 F012  28   1.0
   47   47 O #2 F003  29   1.0

    IRREDUCIBLE REPRESENTATION NUMBER 2

   48    1 S #1 X     39  -1.0  42  -1.0  44   4.0
   49    2 S #1 X     39   1.0  42  -3.0
   50    3 S #1 X     59   1.0  60   1.0
   51    4 S #1 X     61   1.0  62   1.0
   52    5 S #1 X     63   1.0  64   1.0
   53    6 S #1 XZ    81   1.0  82  -1.0
   54    7 S #1 XZ    83   1.0  84  -1.0
   55    8 S #1 XZ    85   1.0  86   1.0
   56    9 S #1 F300  87   1.0  88   1.0
   57   10 S #1 F120 101  -1.0 102  -1.0 107  -1.0 108  -1.0 111   4.0 112   4.0
   58   11 S #1 F102 101   1.0 102   1.0 107  -3.0 108  -3.0
   59   12 O #2 X    109   1.0 110  -1.0
   60   13 O #2 X     11   1.0
   61   14 O #2 X     12   1.0
   62   15 O #2 XY    13   1.0
   63   16 O #2 XY    14   1.0
   64   17 O #2 XZ    15   1.0
   65   18 O #2 XZ    33   1.0
   66   19 O #2 F300  34   1.0
   67   20 O #2 F120  35   1.0
   68   21 O #2 F111  40  -1.0  45  -1.0  47   4.0
   69   22 O #2 F102  40   3.0  45  -1.0

    IRREDUCIBLE REPRESENTATION NUMBER 3

   70    1 S #1 Y     49   1.0  50  -1.0
   71    2 S #1 Y     51   1.0  52  -1.0
   72    3 S #1 Y     53   1.0  54  -1.0
   73    4 S #1 Y     55   1.0  56  -1.0
   74    5 S #1 Y     57   1.0  58  -1.0
   75    6 S #1 YZ    65   1.0  66   1.0
   76    7 S #1 YZ    67   1.0  68   1.0
   77    8 S #1 YZ    69   1.0  70   1.0
   78    9 S #1 F210  71   1.0  72  -1.0
   79   10 S #1 F030  73   1.0  74  -1.0
   80   11 S #1 F012  75   1.0  76  -1.0
   81   12 O #2 S     77  -1.0  78   1.0  89  -1.0  90   1.0  97   2.0  98  -2.0
   82   13 O #2 S     79  -1.0  80   1.0  91  -1.0  92   1.0  99   2.0 100  -2.0
   83   14 O #2 S     77   1.0  78  -1.0  89  -1.0  90   1.0
   84   15 O #2 S     79   1.0  80  -1.0  91  -1.0  92   1.0
   85   16 O #2 S     93   1.0  94   1.0
   86   17 O #2 Y     95   1.0  96   1.0
   87   18 O #2 Y    103  -1.0 104  -1.0 113  -1.0 114  -1.0 117   4.0 118   4.0
   88   19 O #2 Y    105  -3.0 106   3.0 115  -3.0 116   3.0 119   2.0 120  -2.0
   89   20 O #2 Z    103   3.0 104   3.0 113  -1.0 114  -1.0
   90   21 O #2 Z    105   1.0 106  -1.0 115  -1.0 116   1.0
   91   22 O #2 Z     24   1.0
   92   23 O #2 XX    25   1.0
   93   24 O #2 XX    26   1.0
   94   25 O #2 YY    43   1.0
   95   26 O #2 YY    59   1.0  60  -1.0
   96   27 O #2 YZ    61   1.0  62  -1.0
   97   28 O #2 YZ    63   1.0  64  -1.0
   98   29 O #2 ZZ    81   1.0  82   1.0
   99   30 O #2 ZZ    83   1.0  84   1.0
  100   31 O #2 F210  85   1.0  86  -1.0
  101   32 O #2 F201  87   1.0  88  -1.0
  102   33 O #2 F030 101  -1.0 102   1.0 107  -1.0 108   1.0 111   4.0 112  -4.0
  103   34 O #2 F021 101   1.0 102  -1.0 107  -3.0 108   3.0
  104   35 O #2 F012 109   1.0 110   1.0
  105   36 O #2 F003

    IRREDUCIBLE REPRESENTATION NUMBER 4

  106    1 S #1 XY  
  107    2 S #1 XY  
  108    3 S #1 XY  
  109    4 S #1 F111
  110    5 O #2 X   
  111    6 O #2 X   
  112    7 O #2 X   
  113    8 O #2 XY  
  114    9 O #2 XY  
  115   10 O #2 XZ  
  116   11 O #2 XZ  
  117   12 O #2 F300
  118   13 O #2 F120
  119   14 O #2 F111
  120   15 O #2 F102

NUCLEAR REPULSION ENERGY:  108.3934287705 A.U.

One-electron integrals took 0.032392 seconds

  @TWOEL-I,     411910 INTEGRALS OF SYMMETRY TYPE  I I I I
  @TWOEL-I,    1386416 INTEGRALS OF SYMMETRY TYPE  I J I J
  @TWOEL-I,     740942 INTEGRALS OF SYMMETRY TYPE  I I J J
  @TWOEL-I,     936243 INTEGRALS OF SYMMETRY TYPE  I J K L
  @TWOEL-I, TOTAL NUMBER OF 2-E INTEGRALS    3475511

Two-electron integrals took 1.097151 seconds

Nuclear repulsion energy: 108.393428770527
--executable xvmol finished with status     0 in        1.55 seconds (walltime).
 --invoking executable--
/project1/nike/cfour_v2.00beta_May2019xnmol_noLABBASIS/bin/xvmol2ja
--executable xvmol2ja finished with status     0 in        0.05 seconds (walltime).
 --invoking executable--
/project1/nike/cfour_v2.00beta_May2019xnmol_noLABBASIS/bin/xvscf
  There are  104 functions in the AO basis.

  There are 4 irreducible representations.

       Irrep        # of functions
         1                 39
         2                 20
         3                 31
         4                 14


  Parameters for SCF calculation: 
        SCF reference function:  RHF  
  Maximum number of iterations: 9999
     Full symmetry point group: C2v 
     Computational point group: C2v 
        Initial density matrix: MOREAD                 
     SCF convergence tolerance: 10**(-12)
  DIIS convergence acceleration:  ON
          Latest start for DIIS:   5
                     DIIS order:   6

  Memory information:     510347 words required.
  Fock matrices are constructed from AO integral file.
 @GETMEM-I,  Allocated       3 MB of main memory.
  Initialization and symmetry analysis required      0.002 seconds.

  @INITGES-I, Occupancies from core Hamiltonian:

          Alpha population by irrep:   8    3    4    1
           Beta population by irrep:   8    3    4    1


 total no. of electrons in initial guess :  0.000000000000000E+000
  --------------------------------------------------------------------
  Iteration         Total Energy            Largest Density Difference
  --------------------------------------------------------------------
       0           108.393428770527350              0.0000000000D+00
   current occupation vector 
     8  3  4  1
     8  3  4  1
  processed                 411910  ao basis integrals from 
                   687  buffers.
  processed                 740942  ao basis integrals from 
                  1235  buffers.
  processed                1386416  ao basis integrals from 
                  2311  buffers.
       1          -362.499806680414736              0.5514444574D+01
   current occupation vector 
     8  3  4  1
     8  3  4  1
  processed                 411910  ao basis integrals from 
                   687  buffers.
  processed                 740942  ao basis integrals from 
                  1235  buffers.
  processed                1386416  ao basis integrals from 
                  2311  buffers.
       2          -399.943827640226800              0.5491796021D+01
   current occupation vector 
     7  1  6  2
     7  1  6  2
  processed                 411910  ao basis integrals from 
                   687  buffers.
  processed                 740942  ao basis integrals from 
                  1235  buffers.
  processed                1386416  ao basis integrals from 
                  2311  buffers.
       3          -397.359456776142622              0.6259504518D+01
   current occupation vector 
     8  3  4  1
     8  3  4  1
  processed                 411910  ao basis integrals from 
                   687  buffers.
  processed                 740942  ao basis integrals from 
                  1235  buffers.
  processed                1386416  ao basis integrals from 
                  2311  buffers.
       4          -399.590097314964623              0.6262438761D+01
   current occupation vector 
     7  1  6  2
     7  1  6  2
 
 sum over diagonal and offdiagdiagonal of C(T)*S*C for irrep
                     1
 -2.380318164796336E-013  1.874303022829227E-013
 reorthoganalization of MOs is carried out
 sum over diagonal and offdiagdiagonal of C(T)*S*C for irrep
                     1
  4.074518500374325E-014 -9.259740232836150E-014
 
 sum over diagonal and offdiagdiagonal of C(T)*S*C for irrep
                     2
  6.439293542825908E-014 -6.171159048268309E-014
 reorthoganalization of MOs is carried out
 sum over diagonal and offdiagdiagonal of C(T)*S*C for irrep
                     2
  1.665334536937735E-015 -1.395502768348339E-015
 
 sum over diagonal and offdiagdiagonal of C(T)*S*C for irrep
                     3
  2.143840660551177E-013  3.285746446466195E-013
 reorthoganalization of MOs is carried out
 sum over diagonal and offdiagdiagonal of C(T)*S*C for irrep
                     3
  5.218048215738236E-015 -1.734513549448742E-014
 
 sum over diagonal and offdiagdiagonal of C(T)*S*C for irrep
                     4
 -2.720046410331634E-014 -3.920372869652827E-013
 reorthoganalization of MOs is carried out
 sum over diagonal and offdiagdiagonal of C(T)*S*C for irrep
                     4
 -1.443289932012704E-015 -8.257283745649602E-016
  processed                 411910  ao basis integrals from 
                   687  buffers.
  processed                 740942  ao basis integrals from 
                  1235  buffers.
  processed                1386416  ao basis integrals from 
                  2311  buffers.
       5          -397.377658172273641              0.6262873772D+01
   current occupation vector 
     8  3  4  1
     8  3  4  1
  processed                 411910  ao basis integrals from 
                   687  buffers.
  processed                 740942  ao basis integrals from 
                  1235  buffers.
  processed                1386416  ao basis integrals from 
                  2311  buffers.
       6          -421.098738609604027              0.4598812014D+00
   current occupation vector 
     8  3  4  1
     8  3  4  1
  processed                 411910  ao basis integrals from 
                   687  buffers.
  processed                 740942  ao basis integrals from 
                  1235  buffers.
  processed                1386416  ao basis integrals from 
                  2311  buffers.
       7          -434.020262709037695              0.2214536928D+00
   current occupation vector 
     8  3  4  1
     8  3  4  1
  processed                 411910  ao basis integrals from 
                   687  buffers.
  processed                 740942  ao basis integrals from 
                  1235  buffers.
  processed                1386416  ao basis integrals from 
                  2311  buffers.
       8          -446.571634790393261              0.2747762198D+00
   current occupation vector 
     8  3  4  1
     8  3  4  1
  processed                 411910  ao basis integrals from 
                   687  buffers.
  processed                 740942  ao basis integrals from 
                  1235  buffers.
  processed                1386416  ao basis integrals from 
                  2311  buffers.
       9          -448.568506827586305              0.3853550236D-01
   current occupation vector 
     8  3  4  1
     8  3  4  1
 
 sum over diagonal and offdiagdiagonal of C(T)*S*C for irrep
                     1
 -1.587618925213974E-013 -1.529991800356795E-013
 reorthoganalization of MOs is carried out
 sum over diagonal and offdiagdiagonal of C(T)*S*C for irrep
                     1
  9.992007221626409E-016  2.009759244429491E-014
 
 sum over diagonal and offdiagdiagonal of C(T)*S*C for irrep
                     2
  7.749356711883593E-014 -1.984995620628699E-014
 reorthoganalization of MOs is carried out
 sum over diagonal and offdiagdiagonal of C(T)*S*C for irrep
                     2
  6.661338147750939E-016  6.446622707160263E-016
 
 sum over diagonal and offdiagdiagonal of C(T)*S*C for irrep
                     3
  2.249311847890567E-013 -2.832017855033799E-013
 reorthoganalization of MOs is carried out
 sum over diagonal and offdiagdiagonal of C(T)*S*C for irrep
                     3
 -5.107025913275720E-015  1.146230714173781E-014
 
 sum over diagonal and offdiagdiagonal of C(T)*S*C for irrep
                     4
 -5.218048215738236E-015 -3.625832307194241E-013
 reorthoganalization of MOs is carried out
 sum over diagonal and offdiagdiagonal of C(T)*S*C for irrep
                     4
 -1.110223024625157E-015 -8.934063070505788E-016
  processed                 411910  ao basis integrals from 
                   687  buffers.
  processed                 740942  ao basis integrals from 
                  1235  buffers.
  processed                1386416  ao basis integrals from 
                  2311  buffers.
      10          -470.631287083777067              0.7115478401D+00
   current occupation vector 
     8  3  4  1
     8  3  4  1
  processed                 411910  ao basis integrals from 
                   687  buffers.
  processed                 740942  ao basis integrals from 
                  1235  buffers.
  processed                1386416  ao basis integrals from 
                  2311  buffers.
      11          -447.099589568703720              0.6520897279D+01
   current occupation vector 
     8  1  6  1
     8  1  6  1
  processed                 411910  ao basis integrals from 
                   687  buffers.
  processed                 740942  ao basis integrals from 
                  1235  buffers.
  processed                1386416  ao basis integrals from 
                  2311  buffers.
      12          -513.907426115601766              0.6653626293D+01
   current occupation vector 
     8  3  4  1
     8  3  4  1
  processed                 411910  ao basis integrals from 
                   687  buffers.
  processed                 740942  ao basis integrals from 
                  1235  buffers.
  processed                1386416  ao basis integrals from 
                  2311  buffers.
      13          -535.227391565454127              0.5579041291D+00
   current occupation vector 
     8  3  4  1
     8  3  4  1
  processed                 411910  ao basis integrals from 
                   687  buffers.
  processed                 740942  ao basis integrals from 
                  1235  buffers.
  processed                1386416  ao basis integrals from 
                  2311  buffers.
      14          -539.997595237623045              0.3593073402D+00
   current occupation vector 
     8  3  4  1
     8  3  4  1
 
 sum over diagonal and offdiagdiagonal of C(T)*S*C for irrep
                     1
 -1.767475055203249E-013 -5.062128064163541E-013
 reorthoganalization of MOs is carried out
 sum over diagonal and offdiagdiagonal of C(T)*S*C for irrep
                     1
  1.165734175856414E-014  7.664616056527331E-014
 
 sum over diagonal and offdiagdiagonal of C(T)*S*C for irrep
                     2
  1.709743457922741E-014 -1.012701337316350E-013
 reorthoganalization of MOs is carried out
 sum over diagonal and offdiagdiagonal of C(T)*S*C for irrep
                     2
 -3.330669073875470E-016  1.846713460642002E-015
 
 sum over diagonal and offdiagdiagonal of C(T)*S*C for irrep
                     3
  2.593480985524366E-013  1.838968271807351E-013
 reorthoganalization of MOs is carried out
 sum over diagonal and offdiagdiagonal of C(T)*S*C for irrep
                     3
  1.187938636348917E-014  2.572990812034733E-014
 
 sum over diagonal and offdiagdiagonal of C(T)*S*C for irrep
                     4
 -2.886579864025407E-015 -2.812104123678741E-013
 reorthoganalization of MOs is carried out
 sum over diagonal and offdiagdiagonal of C(T)*S*C for irrep
                     4
 -1.776356839400250E-015  3.902191849541100E-016
  processed                 411910  ao basis integrals from 
                   687  buffers.
  processed                 740942  ao basis integrals from 
                  1235  buffers.
  processed                1386416  ao basis integrals from 
                  2311  buffers.
      15          -546.888068966664150              0.1964157566D+01
   current occupation vector 
     8  2  5  1
     8  2  5  1
  processed                 411910  ao basis integrals from 
                   687  buffers.
  processed                 740942  ao basis integrals from 
                  1235  buffers.
  processed                1386416  ao basis integrals from 
                  2311  buffers.
      16          -547.244501937178484              0.3468929513D+00
   current occupation vector 
     8  2  5  1
     8  2  5  1
  processed                 411910  ao basis integrals from 
                   687  buffers.
  processed                 740942  ao basis integrals from 
                  1235  buffers.
  processed                1386416  ao basis integrals from 
                  2311  buffers.
      17          -547.293257625858359              0.9950438325D-01
   current occupation vector 
     8  2  5  1
     8  2  5  1
  processed                 411910  ao basis integrals from 
                   687  buffers.
  processed                 740942  ao basis integrals from 
                  1235  buffers.
  processed                1386416  ao basis integrals from 
                  2311  buffers.
      18          -547.301658941517417              0.7091881942D-01
   current occupation vector 
     8  2  5  1
     8  2  5  1
  processed                 411910  ao basis integrals from 
                   687  buffers.
  processed                 740942  ao basis integrals from 
                  1235  buffers.
  processed                1386416  ao basis integrals from 
                  2311  buffers.
      19          -547.303046999390972              0.1793738482D-01
   current occupation vector 
     8  2  5  1
     8  2  5  1
 
 sum over diagonal and offdiagdiagonal of C(T)*S*C for irrep
                     1
 -2.045030811359538E-013 -1.069840897518146E-012
 reorthoganalization of MOs is carried out
 sum over diagonal and offdiagdiagonal of C(T)*S*C for irrep
                     1
  1.598721155460225E-014 -1.758586616563110E-013
 
 sum over diagonal and offdiagdiagonal of C(T)*S*C for irrep
                     2
  1.176836406102666E-014 -7.070262435394649E-014
 reorthoganalization of MOs is carried out
 sum over diagonal and offdiagdiagonal of C(T)*S*C for irrep
                     2
  9.992007221626409E-016  9.183013729939911E-017
 
 sum over diagonal and offdiagdiagonal of C(T)*S*C for irrep
                     3
  2.847722058163527E-013  1.825958622646236E-013
 reorthoganalization of MOs is carried out
 sum over diagonal and offdiagdiagonal of C(T)*S*C for irrep
                     3
  1.998401444325282E-015  2.871965342428348E-014
 
 sum over diagonal and offdiagdiagonal of C(T)*S*C for irrep
                     4
 -2.264854970235319E-014 -3.955061310415361E-013
 reorthoganalization of MOs is carried out
 sum over diagonal and offdiagdiagonal of C(T)*S*C for irrep
                     4
  0.000000000000000E+000  4.496678217802386E-015
  processed                 411910  ao basis integrals from 
                   687  buffers.
  processed                 740942  ao basis integrals from 
                  1235  buffers.
  processed                1386416  ao basis integrals from 
                  2311  buffers.
      20          -547.303126570714312              0.4598844689D-02
   current occupation vector 
     8  2  5  1
     8  2  5  1
  processed                 411910  ao basis integrals from 
                   687  buffers.
  processed                 740942  ao basis integrals from 
                  1235  buffers.
  processed                1386416  ao basis integrals from 
                  2311  buffers.
      21          -547.303131037160028              0.1475493795D-02
   current occupation vector 
     8  2  5  1
     8  2  5  1
  processed                 411910  ao basis integrals from 
                   687  buffers.
  processed                 740942  ao basis integrals from 
                  1235  buffers.
  processed                1386416  ao basis integrals from 
                  2311  buffers.
      22          -547.303131252421053              0.3537114223D-03
   current occupation vector 
     8  2  5  1
     8  2  5  1
  processed                 411910  ao basis integrals from 
                   687  buffers.
  processed                 740942  ao basis integrals from 
                  1235  buffers.
  processed                1386416  ao basis integrals from 
                  2311  buffers.
      23          -547.303131264540298              0.1047816593D-03
   current occupation vector 
     8  2  5  1
     8  2  5  1
  processed                 411910  ao basis integrals from 
                   687  buffers.
  processed                 740942  ao basis integrals from 
                  1235  buffers.
  processed                1386416  ao basis integrals from 
                  2311  buffers.
      24          -547.303131265400907              0.1760152259D-04
   current occupation vector 
     8  2  5  1
     8  2  5  1
 
 sum over diagonal and offdiagdiagonal of C(T)*S*C for irrep
                     1
 -1.998401444325282E-013 -1.017453618948992E-012
 reorthoganalization of MOs is carried out
 sum over diagonal and offdiagdiagonal of C(T)*S*C for irrep
                     1
  2.553512956637860E-014 -1.945761940820397E-014
 
 sum over diagonal and offdiagdiagonal of C(T)*S*C for irrep
                     2
  1.776356839400250E-014 -6.881953775006728E-014
 reorthoganalization of MOs is carried out
 sum over diagonal and offdiagdiagonal of C(T)*S*C for irrep
                     2
  3.885780586188048E-015 -3.098920118352864E-015
 
 sum over diagonal and offdiagdiagonal of C(T)*S*C for irrep
                     3
  3.047562202596055E-013  1.390860573336085E-013
 reorthoganalization of MOs is carried out
 sum over diagonal and offdiagdiagonal of C(T)*S*C for irrep
                     3
 -6.439293542825908E-015  8.150690228157289E-014
 
 sum over diagonal and offdiagdiagonal of C(T)*S*C for irrep
                     4
  4.440892098500626E-015 -4.039729135106730E-013
 reorthoganalization of MOs is carried out
 sum over diagonal and offdiagdiagonal of C(T)*S*C for irrep
                     4
 -8.881784197001252E-016  1.621215449451455E-015
  processed                 411910  ao basis integrals from 
                   687  buffers.
  processed                 740942  ao basis integrals from 
                  1235  buffers.
  processed                1386416  ao basis integrals from 
                  2311  buffers.
      25          -547.303131265446382              0.1829773308D-05
   current occupation vector 
     8  2  5  1
     8  2  5  1
  processed                 411910  ao basis integrals from 
                   687  buffers.
  processed                 740942  ao basis integrals from 
                  1235  buffers.
  processed                1386416  ao basis integrals from 
                  2311  buffers.
      26          -547.303131265451157              0.1339106311D-05
   current occupation vector 
     8  2  5  1
     8  2  5  1
  processed                 411910  ao basis integrals from 
                   687  buffers.
  processed                 740942  ao basis integrals from 
                  1235  buffers.
  processed                1386416  ao basis integrals from 
                  2311  buffers.
      27          -547.303131265451611              0.3771422952D-06
   current occupation vector 
     8  2  5  1
     8  2  5  1
  processed                 411910  ao basis integrals from 
                   687  buffers.
  processed                 740942  ao basis integrals from 
                  1235  buffers.
  processed                1386416  ao basis integrals from 
                  2311  buffers.
      28          -547.303131265450247              0.7322274698D-07
   current occupation vector 
     8  2  5  1
     8  2  5  1
  processed                 411910  ao basis integrals from 
                   687  buffers.
  processed                 740942  ao basis integrals from 
                  1235  buffers.
  processed                1386416  ao basis integrals from 
                  2311  buffers.
      29          -547.303131265455022              0.4566342682D-07
   current occupation vector 
     8  2  5  1
     8  2  5  1
 
 sum over diagonal and offdiagdiagonal of C(T)*S*C for irrep
                     1
 -2.069455717901292E-013 -9.564980170948993E-013
 reorthoganalization of MOs is carried out
 sum over diagonal and offdiagdiagonal of C(T)*S*C for irrep
                     1
 -1.110223024625157E-015 -1.368935733457614E-013
 
 sum over diagonal and offdiagdiagonal of C(T)*S*C for irrep
                     2
  1.365574320288943E-014 -6.469296640295993E-014
 reorthoganalization of MOs is carried out
 sum over diagonal and offdiagdiagonal of C(T)*S*C for irrep
                     2
  1.776356839400250E-015 -4.143085399232042E-015
 
 sum over diagonal and offdiagdiagonal of C(T)*S*C for irrep
                     3
  2.237099394619690E-013  1.059542948274789E-013
 reorthoganalization of MOs is carried out
 sum over diagonal and offdiagdiagonal of C(T)*S*C for irrep
                     3
 -1.088018564132653E-014 -2.400552228072276E-014
 
 sum over diagonal and offdiagdiagonal of C(T)*S*C for irrep
                     4
 -8.437694987151190E-015 -4.008616836742559E-013
 reorthoganalization of MOs is carried out
 sum over diagonal and offdiagdiagonal of C(T)*S*C for irrep
                     4
 -4.440892098500626E-016 -6.438765417783295E-016
  processed                 411910  ao basis integrals from 
                   687  buffers.
  processed                 740942  ao basis integrals from 
                  1235  buffers.
  processed                1386416  ao basis integrals from 
                  2311  buffers.
      30          -547.303131265451384              0.3068084964D-07
   current occupation vector 
     8  2  5  1
     8  2  5  1
  processed                 411910  ao basis integrals from 
                   687  buffers.
  processed                 740942  ao basis integrals from 
                  1235  buffers.
  processed                1386416  ao basis integrals from 
                  2311  buffers.
      31          -547.303131265451611              0.1004236361D-07
   current occupation vector 
     8  2  5  1
     8  2  5  1
  processed                 411910  ao basis integrals from 
                   687  buffers.
  processed                 740942  ao basis integrals from 
                  1235  buffers.
  processed                1386416  ao basis integrals from 
                  2311  buffers.
      32          -547.303131265450247              0.3355778766D-08
   current occupation vector 
     8  2  5  1
     8  2  5  1
  processed                 411910  ao basis integrals from 
                   687  buffers.
  processed                 740942  ao basis integrals from 
                  1235  buffers.
  processed                1386416  ao basis integrals from 
                  2311  buffers.
      33          -547.303131265451839              0.3109809077D-09
   current occupation vector 
     8  2  5  1
     8  2  5  1
  processed                 411910  ao basis integrals from 
                   687  buffers.
  processed                 740942  ao basis integrals from 
                  1235  buffers.
  processed                1386416  ao basis integrals from 
                  2311  buffers.
      34          -547.303131265451611              0.1163236174D-09
   current occupation vector 
     8  2  5  1
     8  2  5  1
 
 sum over diagonal and offdiagdiagonal of C(T)*S*C for irrep
                     1
 -1.989519660128281E-013 -9.885270763005589E-013
 reorthoganalization of MOs is carried out
 sum over diagonal and offdiagdiagonal of C(T)*S*C for irrep
                     1
 -1.754152378907747E-014 -7.381561685964540E-014
 
 sum over diagonal and offdiagdiagonal of C(T)*S*C for irrep
                     2
  3.785860513971784E-014 -5.800214653894342E-014
 reorthoganalization of MOs is carried out
 sum over diagonal and offdiagdiagonal of C(T)*S*C for irrep
                     2
 -7.771561172376096E-016  8.494394869714580E-016
 
 sum over diagonal and offdiagdiagonal of C(T)*S*C for irrep
                     3
  2.218225603201063E-013  1.316210429939555E-013
 reorthoganalization of MOs is carried out
 sum over diagonal and offdiagdiagonal of C(T)*S*C for irrep
                     3
  1.376676550535194E-014 -4.962060828026846E-014
 
 sum over diagonal and offdiagdiagonal of C(T)*S*C for irrep
                     4
 -1.998401444325282E-014 -4.093159744191239E-013
 reorthoganalization of MOs is carried out
 sum over diagonal and offdiagdiagonal of C(T)*S*C for irrep
                     4
 -8.881784197001252E-016  2.468562116533595E-016
  processed                 411910  ao basis integrals from 
                   687  buffers.
  processed                 740942  ao basis integrals from 
                  1235  buffers.
[...]
    0.027084  7b 8b -> 10b 11b                                          
   -0.013511  7b 8b -> 10b 14b                                          
    0.025354  7b 8b -> 10b 20b                                          
    0.013903  6b 9b -> 10b 11b                                          
   -0.010199  6b 9b -> 10b 20b                                          
    0.013745  6b 9b -> 10b 26b                                          
    0.010197  6b 9b -> 10b 28b                                          
   -0.010734  6b 8b -> 10b 22b                                          
    0.016028  7b 9b -> 11b 12b                                          
    0.010072  7b 9b -> 11b 15b                                          
    0.015272  4b 6b -> 10b 15b                                          
    0.013882  6b 7b -> 10b 12b                                          
    0.031670  8b 9b -> 10b 12b                                          
    0.021667  8b 9b -> 10b 15b                                          
    0.010561  8b 9b -> 10b 25b                                          
    0.011488  8b 9b -> 10b 29b                                          
   -0.010336  3a 3b -> 16a 16b                                          
   -0.011543  5a 5b -> 11a 11b                                          
   -0.013997  5a 5b -> 14a 14b                                          
   -0.011809  5a 5b -> 18a 18b                                          
   -0.021942  5a 5b -> 20a 20b                                          
   -0.017986  9a 9b -> 11a 11b                                          
   -0.013360  9a 9b -> 14a 14b                                          
   -0.012118  9a 9b -> 16a 16b                                          
   -0.011307  9a 9b -> 26a 26b                                          
   -0.021628  6a 6b -> 11a 11b                                          
    0.012524  6a 6b -> 14a 11b                                          
    0.012524  6a 6b -> 11a 14b                                          
   -0.013503  4a 4b -> 16a 16b                                          
   -0.013042  7a 4b -> 20a 16b                                          
   -0.013042  4a 7b -> 16a 20b                                          
   -0.021346  7a 7b -> 11a 11b                                          
   -0.019614  7a 7b -> 20a 11b                                          
   -0.019614  7a 7b -> 11a 20b                                          
   -0.024752  7a 7b -> 20a 20b                                          
   -0.031094  3a 3b -> 10a 10b                                          
   -0.010653  3a 3b -> 13a 10b                                          
   -0.010653  3a 3b -> 10a 13b                                          
    0.017111  5a 3b -> 17a 10b                                          
   -0.025945  9a 3b -> 10a 10b                                          
    0.014234  9a 3b -> 17a 10b                                          
    0.012774  9a 3b -> 30a 10b                                          
    0.012412  9a 3b -> 10a 17b                                          
    0.017111  3a 5b -> 10a 17b                                          
   -0.013271  5a 5b -> 17a 17b                                          
   -0.016406  9a 5b -> 10a 10b                                          
    0.012611  9a 5b -> 17a 10b                                          
    0.016031  9a 5b -> 10a 17b                                          
   -0.025945  3a 9b -> 10a 10b                                          
    0.012412  3a 9b -> 17a 10b                                          
    0.014234  3a 9b -> 10a 17b                                          
    0.012774  3a 9b -> 10a 30b                                          
   -0.016406  5a 9b -> 10a 10b                                          
    0.016031  5a 9b -> 17a 10b                                          
    0.012611  5a 9b -> 10a 17b                                          
   -0.053863  9a 9b -> 10a 10b                                          
    0.017906  9a 9b -> 17a 10b                                          
    0.017906  9a 9b -> 10a 17b                                          
   -0.013043  9a 9b -> 17a 17b                                          
   -0.064254  6a 6b -> 10a 10b                                          
   -0.016969  6a 6b -> 13a 10b                                          
   -0.013812  6a 6b -> 24a 10b                                          
   -0.016969  6a 6b -> 10a 13b                                          
   -0.016152  6a 6b -> 13a 13b                                          
   -0.018803  6a 6b -> 17a 17b                                          
   -0.013812  6a 6b -> 10a 24b                                          
   -0.010272  4a 4b -> 10a 10b                                          
   -0.110310  8a 8b -> 10a 10b                                          
   -0.011237  8a 8b -> 13a 10b                                          
   -0.034526  8a 8b -> 17a 10b                                          
   -0.027221  8a 8b -> 24a 10b                                          
   -0.011237  8a 8b -> 10a 13b                                          
   -0.034526  8a 8b -> 10a 17b                                          
   -0.010427  8a 8b -> 17a 17b                                          
   -0.010262  8a 8b -> 24a 17b                                          
   -0.027221  8a 8b -> 10a 24b                                          
   -0.010262  8a 8b -> 17a 24b                                          
   -0.013148  8a 8b -> 24a 24b                                          
   -0.013768  3a 3b -> 15a 15b                                          
   -0.010105  9a 3b -> 12a 12b                                          
   -0.012712  5a 5b -> 12a 12b                                          
   -0.010007  9a 5b -> 15a 15b                                          
   -0.010105  3a 9b -> 12a 12b                                          
   -0.010007  5a 9b -> 15a 15b                                          
   -0.029021  9a 9b -> 12a 12b                                          
   -0.022472  9a 9b -> 15a 12b                                          
   -0.010026  9a 9b -> 25a 12b                                          
   -0.022472  9a 9b -> 12a 15b                                          
   -0.019340  9a 9b -> 15a 15b                                          
   -0.010026  9a 9b -> 12a 25b                                          
   -0.016388  4a 4b -> 15a 15b                                          
   -0.015677  7a 7b -> 12a 12b                                          
   -0.011986  7a 7b -> 25a 25b                                          
   -0.017637  6a 6b -> 22a 22b                                          
   -0.022163  8a 8b -> 22a 22b                                          
   -0.010812  1a 6b -> 11a 10b                                          
   -0.015619  3a 6b -> 16a 10b                                          
    0.013334  5a 6b -> 11a 10b                                          
   -0.011293  5a 6b -> 14a 10b                                          
    0.010842  5a 6b -> 20a 10b                                          
   -0.010194  5a 6b -> 14a 13b                                          
    0.012484  5a 6b -> 20a 17b                                          
    0.016135  9a 6b -> 26a 10b                                          
    0.016290  9a 6b -> 28a 10b                                          
   -0.017075  6a 3b -> 11a 10b                                          
    0.010871  6a 5b -> 11a 17b                                          
   -0.016202  6a 9b -> 11a 10b                                          
   -0.012528  2a 8b -> 11a 10b                                          
   -0.010095  4a 8b -> 11a 10b                                          
   -0.020501  4a 8b -> 16a 10b                                          
   -0.010682  4a 8b -> 28a 10b                                          
   -0.032653  7a 8b -> 11a 10b                                          
    0.016056  7a 8b -> 14a 10b                                          
   -0.033864  7a 8b -> 20a 10b                                          
   -0.010854  7a 8b -> 23a 10b                                          
   -0.012055  7a 8b -> 20a 17b                                          
   -0.011887  7a 8b -> 20a 24b                                          
   -0.017075  3a 6b -> 10a 11b                                          
    0.010871  5a 6b -> 17a 11b                                          
   -0.016202  9a 6b -> 10a 11b                                          
   -0.010812  6a 1b -> 10a 11b                                          
   -0.015619  6a 3b -> 10a 16b                                          
    0.013334  6a 5b -> 10a 11b                                          
   -0.011293  6a 5b -> 10a 14b                                          
   -0.010194  6a 5b -> 13a 14b                                          
    0.010842  6a 5b -> 10a 20b                                          
    0.012484  6a 5b -> 17a 20b                                          
    0.016135  6a 9b -> 10a 26b                                          
    0.016290  6a 9b -> 10a 28b                                          
   -0.012528  8a 2b -> 10a 11b                                          
   -0.010095  8a 4b -> 10a 11b                                          
   -0.020501  8a 4b -> 10a 16b                                          
   -0.010682  8a 4b -> 10a 28b                                          
   -0.032653  8a 7b -> 10a 11b                                          
    0.016056  8a 7b -> 10a 14b                                          
   -0.033864  8a 7b -> 10a 20b                                          
   -0.012055  8a 7b -> 17a 20b                                          
   -0.011887  8a 7b -> 24a 20b                                          
   -0.010854  8a 7b -> 10a 23b                                          
   -0.013333  4a 8b -> 15a 22b                                          
    0.012189  7a 8b -> 12a 22b                                          
   -0.013333  8a 4b -> 22a 15b                                          
    0.012189  8a 7b -> 22a 12b                                          
    0.010515  4a 9b -> 16a 15b                                          
    0.012049  7a 9b -> 11a 12b                                          
    0.016608  7a 9b -> 20a 12b                                          
    0.013365  7a 9b -> 20a 15b                                          
    0.011043  7a 9b -> 20a 25b                                          
   -0.010002  3a 4b -> 10a 21b                                          
   -0.013004  3a 4b -> 10a 22b                                          
   -0.037862  6a 8b -> 10a 22b                                          
   -0.012544  6a 8b -> 24a 22b                                          
   -0.027128  8a 6b -> 10a 22b                                          
   -0.010521  8a 6b -> 24a 22b                                          
    0.010515  9a 4b -> 15a 16b                                          
    0.012049  9a 7b -> 12a 11b                                          
    0.016608  9a 7b -> 12a 20b                                          
    0.013365  9a 7b -> 15a 20b                                          
    0.011043  9a 7b -> 25a 20b                                          
   -0.027128  6a 8b -> 22a 10b                                          
   -0.010521  6a 8b -> 22a 24b                                          
   -0.010002  4a 3b -> 21a 10b                                          
   -0.013004  4a 3b -> 22a 10b                                          
   -0.037862  8a 6b -> 22a 10b                                          
   -0.012544  8a 6b -> 22a 24b                                          
    0.010601  5a 8b -> 20a 22b                                          
   -0.010052  7a 6b -> 20a 22b                                          
   -0.012839  6a 4b -> 10a 12b                                          
   -0.019274  6a 4b -> 10a 15b                                          
   -0.011912  6a 4b -> 10a 29b                                          
    0.017822  6a 7b -> 10a 12b                                          
   -0.012067  8a 5b -> 10a 12b                                          
    0.030702  8a 9b -> 10a 12b                                          
    0.012591  8a 9b -> 17a 12b                                          
    0.022584  8a 9b -> 10a 15b                                          
    0.010811  8a 9b -> 17a 15b                                          
    0.013792  8a 9b -> 10a 25b                                          
   -0.012067  5a 8b -> 12a 10b                                          
    0.030702  9a 8b -> 12a 10b                                          
    0.022584  9a 8b -> 15a 10b                                          
    0.013792  9a 8b -> 25a 10b                                          
    0.012591  9a 8b -> 12a 17b                                          
    0.010811  9a 8b -> 15a 17b                                          
   -0.012839  4a 6b -> 12a 10b                                          
   -0.019274  4a 6b -> 15a 10b                                          
   -0.011912  4a 6b -> 29a 10b                                          
    0.017822  7a 6b -> 12a 10b                                          
   -0.010052  6a 7b -> 22a 20b                                          
    0.010601  8a 5b -> 22a 20b                                          
    0.010060  3a 6a -> 10a 14a                                          
   -0.015958  5a 6a -> 10a 11a                                          
    0.011518  5a 6a -> 10a 14a                                          
   -0.010677  5a 6a -> 17a 20a                                          
    0.014818  4a 8a -> 10a 16a                                          
   -0.010266  4a 8a -> 15a 22a                                          
    0.027084  7a 8a -> 10a 11a                                          
   -0.013511  7a 8a -> 10a 14a                                          
    0.025354  7a 8a -> 10a 20a                                          
    0.013903  6a 9a -> 10a 11a                                          
   -0.010199  6a 9a -> 10a 20a                                          
    0.013745  6a 9a -> 10a 26a                                          
    0.010197  6a 9a -> 10a 28a                                          
   -0.010734  6a 8a -> 10a 22a                                          
    0.016028  7a 9a -> 11a 12a                                          
    0.010072  7a 9a -> 11a 15a                                          
    0.015272  4a 6a -> 10a 15a                                          
    0.013882  6a 7a -> 10a 12a                                          
    0.031670  8a 9a -> 10a 12a                                          
    0.021667  8a 9a -> 10a 15a                                          
    0.010561  8a 9a -> 10a 25a                                          
    0.011488  8a 9a -> 10a 29a                                          

 ************************ 2019-08-23 18:33:08 *************************
 Executing goldstone...

 Generation of MRCC equations in terms of H and T...
 Generation of antisymmetrized Goldstone diagrams...
 Number of diagrams in T^1 equations:    15
 Number of diagrams in T^2 equations:    38
 Number of diagrams in T^3 equations:    53
 Number of diagrams in T^4 equations:    74
 Translation of diagrams to factorized equations...
 Number of restricted diagrams in T^1 equations:     30
 Number of restricted diagrams in T^2 equations:    129
 Number of restricted diagrams in T^3 equations:    302
 Number of restricted diagrams in T^4 equations:    633
 Optimizing intermediate calculation...
 Number of floating-point operations per iteration step:   6.2466E+14
 Probable CPU time per iteration step (hours):   6246.58
 Required memory (Mbytes):   85173.0
 Number of intermediates:                                 412
 Number of intermediates to be stored:                    154
 Length of intermediate file (Mbytes):  229177.4

 ************************ 2019-08-23 18:33:08 *************************
 Executing xmrcc...

 **********************************************************************
 MRCC(                     4 ) calculation 
 
 
 Allocation of****** Mbytes of memory...
 Number of spinorbitals:                   194
 Number of alpha electrons:                        9
 Number of beta electrons:                         9
 Number of active particles:                    64
 Number of active holes:                         0
 Spin multiplicity:                     1
 z-component of spin:  0.0
 Spatial symmetry:                      1
 Convergence criterion:  1.0E-05
 Construction of occupation graphs...
 Number of                     0 -fold excitations:                      1
 Number of                     1 -fold excitations:                    466
 Number of                     2 -fold excitations:                 231222
 Number of                     3 -fold excitations:               59334180
 Number of                     4 -fold excitations:             8546287900
 Total number of configurations:             8605853769
 Calculation of coupling coefficients...
 Length of intermediate file (Mbytes):  150970.3
 
 ======================================================================
 
 Memory requirements /Mbyte/: 
               Minimal        Optimal
 Real*8:      31781.1758     31781.1758
 Integer:       751.6129
 Total:       32532.7887     32532.7887
 

 ************************ 2019-08-23 18:33:42 *************************
 Executing mrcc...

 **********************************************************************
 CCSDTQ calculation                                                     
 
 
 OpenMP parallel version is running.
 Number of CPUs:   3
 Allocation of31781.2 Mbytes of memory...
 Number of spinorbitals: 194
 Number of alpha electrons:  9
 Number of beta  electrons:  9
 Number of active particles:                    64
 Number of active holes:                         0
 Spin multiplicity: 1
 z-component of spin:  0.0
 Spatial symmetry: 1
 Convergence criterion:  1.0E-05
 Construction of occupation graphs...
 Number of 0-fold excitations: 1
 Number of 1-fold excitations: 466
 Number of 2-fold excitations: 231222
 Number of 3-fold excitations: 59334180
 Number of 4-fold excitations: 8546287900
 Total number of determinants: 8605853769
 Calculation of coupling coefficients...
 Initial cluster amplitudes are read from unit 16.
 Length of intermediate file (Mbytes):  150970.3
 Reading integral list from unit 55...
 Sorting integrals...
 Energy of reference determinant [au]:    -547.303131265454
 Calculation of MP denominators...
 
 Starting CC iteration...
 ======================================================================
 Norm of residual vector:     0.14575373
 CPU time [min]:  9583.241                   Wall time [min]:  4197.644
 
 Iteration  1  CC energy:  -547.98412817  Energy decrease:   0.00000003
 ======================================================================
 Norm of residual vector:     0.04449420
 CPU time [min]: 20248.040                   Wall time [min]:  8785.153
 
 Iteration  2  CC energy:  -547.98386230  Energy decrease:   0.00026587
 ======================================================================
 Norm of residual vector:     0.02092520
 CPU time [min]: 30923.666                   Wall time [min]: 13366.974
 
 Iteration  3  CC energy:  -547.98554139  Energy decrease:   0.00167909
 ======================================================================
