Starting run at: Tue Mar 19 10:36:54 EDT 2024
 --invoking executable--
/cvmfs/restricted.computecanada.ca/easybuild/software/2020/avx2/Compiler/intel2020/cfour/2.1/bin/xjoda


   *************************************************************************
         <<<     CCCCCC     CCCCCC   |||     CCCCCC     CCCCCC   >>>
       <<<      CCC        CCC       |||    CCC        CCC         >>>
      <<<      CCC        CCC        |||   CCC        CCC            >>>
    <<<        CCC        CCC        |||   CCC        CCC              >>>
      <<<      CCC        CCC        |||   CCC        CCC            >>>
       <<<      CCC        CCC       |||    CCC        CCC         >>>
         <<<     CCCCCC     CCCCCC   |||     CCCCCC     CCCCCC   >>>
   *************************************************************************

     ****************************************************************
     * CFOUR Coupled-Cluster techniques for Computational Chemistry *
     ****************************************************************
 

   Department of Chemistry                Institut fuer Physikalische Chemie
   University of Florida                  Universitaet Mainz
   Gainesville, FL 32611, USA             D-55099 Mainz, Germany

   Department of Chemistry                Fakultaet fuer Chemie und Biowiss.
   Johns Hopkins University               Karlsruher Institut fuer Technologie
   Baltimore, MD 21218, USA               D-76131 Karlsruhe, Germany

   Department of Chemistry                Department of Physical Chemistry
   Southern Methodist University          Eotvos Lorand University
   Dallas, TX 75275, USA                  H-1053 Budapest, Hungary

 
                       Version 2.1
 
                     gra702                                            
                     Tue Mar 19 10:36:56 EDT 2024                      
                     integer*8 version is running
 
********************************************************************************
*                          Input from ZMAT file                                *
********************************************************************************
TITLE                                                                           
O                                                                               
                                                                                
*ACES2(CALC=CCSDT                                                               
FROZEN_CORE=ON                                                                  
#DROPMO=1                                                                       
#INPUT_MRCC=OFF                                                                 
#CC_PROG=MRCC                                                                   
XFORM_TOL=18                                                                    
SAVE_INTS=ON                                                                    
SCF_EXPORDER=6                                                                  
SCF_EXPSTART=5                                                                  
#SCF_DAMPING=1000                                                               
SCF_EXTRAPOLATION=ON                                                            
SCF_CONV=10                                                                     
SCF_MAXCYC=9999                                                                 
CC_CONV=10                                                                      
CC_MAXCYC=999                                                                   
T3_EXTRAPOL=ON                                                                  
REFERENCE=ROHF                                                                  
CHARGE=+1                                                                       
MULT=4                                                                          
ABCDTYPE=STANDARD                                                               
OCCUPATION=2-1-1-0-1-0-0-0/2-0-0-0-0-0-0-0                                      
MEM=20                                                                          
MEM_UNIT=GB                                                                     
BASIS=SPECIAL)                                                                  
                                                                                
O:aV6Z-EMSL                                                                     
                                                                                
********************************************************************************
  @GTFLGS-W, Keyword #DROPMO not known and is ignored.
  @GTFLGS-W, Keyword #INPUT_MRCC not known and is ignored.
  @GTFLGS-W, Keyword #CC_PROG not known and is ignored.
  @GTFLGS-W, Keyword #SCF_DAMPING not known and is ignored.
    -------------------------------------------------------------------
                    CFOUR Control Parameters 
    -------------------------------------------------------------------
        External           Internal           Value            Units
          Name               Name
    -------------------------------------------------------------------
       ABCDTYPE             IABCDT         STANDARD    [  0]    ***   
       ANHARMONIC           IANHAR         OFF         [  0]    ***   
       ANH_ALGORIT          IANALG         STANDARD    [  0]    ***   
       ANH_DERIVAT          IANDER         SECOND      [  1]    ***   
       ANH_MODE             ANHMOD         VIBRATION   [  0]    ***   
       ANH_STEPSIZ          ICUBST             50000          x 10-6  
       ANH_SYMMETR          IANHSM         ABELIAN     [  0]    ***   
       AO_LADDERS           IAOLAD         SINGLEPASS  [  1]    ***   
       AV_SCF               IAVSCF         OFF         [  0]    ***   
       BASIS                IBASIS         SPECIAL     [  0]    ***   
       BOTHVECTORS          BOTHVC         OFF         [  0]    ***   
       BOX_POTENT           IPIAB          OFF         [  0]    ***   
       BREIT                IBREIT         OFF         [  0]    ***   
       BRUCK_CONV           IBRTOL          10D-  4             ***   
       BRUECKNER            IBRKNR         OFF         [  0]    ***   
       BUFFERSIZE           IBUFFS              4096            ***   
       CACHE_RECS           ICHREC             10               ***   
       CALCLEVEL            ICLLVL         CCSDT       [ 18]    ***   
       CCORBOPT             ICCORB         OFF         [  0]  x 0.01  
       CC_CONV              ICCCNV          10D- 10             ***   
       CC_EXPORDER          ICCEOR              5               ***   
       CC_EXTRAPOL          ICCEXT         DIIS        [  1]    ***   
       CC_GUESS             ICCGES         MP2         [  0]    ***   
       CC_MAXCYC            ICCCYC            999              cycles 
       CC_PROGRAM           ICCPRO         VCC         [  0]    ***   
       CHARGE               ICHRGE              1               ***   
       CHOLESKY             ICHOLE         OFF         [  0]    ***   
       CIS_CONV             ICISTL              5               ***   
       COMM_SIZE            IPSIZE            ***               ***   
       CONSTANT             ICONST         OLD         [  1]    ***   
       CONTINUUM            ICONTU         NONE        [  0]    ***   
       CONTRACTION          ICNTYP         GENERAL     [  1]    ***   
       COORDINATES          ICOORD         INTERNAL    [  0]    ***   
       CPHF_CONVER          ICPHFT          10D- 16             ***   
       CPHF_MAXCYC          ICPHFC             64              cycles 
       CUBIC                ICUBIC         OFF         [  0]    ***   
       CURVILINEAR          ICURVY         OFF         [  0]    ***   
       DBOC                 IDBOC          OFF         [  0]    ***   
       DCT                  IDCT           OFF         [  0]    ***   
       DERIV_LEV            IDRLVL         ZERO        [  0]    ***   
       DEVMEM_SIZE          IDVMEM         *********           MByte  
       DIAG_MRCC            IEOMST          10D-  0             ***   
       DIFF_TYPE            IDIFTY         RELAXED     [  0]    ***   
       DIRECT               IDIRCT         OFF         [  0]    ***   
       DROPMO               IDRPMO      NONE         
       ECP                  IECP           OFF         [  0]    ***   
       EIGENVECTOR          IVEC                1               ***   
       EL_ANHARM            IELANH         OFF         [  0]    ***   
       EOMFOLLOW            IEOMSR         ENERGY      [  0]    ***   
       EOMIP                IEOMIP         OFF         [  0]    ***   
       EOMLEVEL             HBARFM         SAME        [  0]    ***   
       EOM_MRCC             IMRCCE         NEW         [  1]    ***   
       EOM_NONIT            EOMNON         OFF         [  0]    ***   
       EOM_NSING            IEOMSI          10D-  0             ***   
       EOM_NSTATES          IMRCCD         DAVIDSON    [  0]    ***   
       EOM_NTRIP            IEOMTR          10D-  0             ***   
       EOM_ORDER            IEXORD         ENERGY      [  0]    ***   
       EOM_PROPSTA          IEOMST              0               ***   
       ESTATE_CONV          IEXTOL          10D-  5             ***   
       ESTATE_DIAG          IEXDIG         ITERATIVE   [  0]    ***   
       ESTATE_LOCK          IESLOC         ON          [  1]    ***   
       ESTATE_MAXC          IEXMXC             40               ***   
       ESTATE_PROP          IEXPRP         OFF         [  0]    ***   
       EVAL_HESS            IRECAL              0            # of cyc.
       EXCITATION           IEXCIT              0               ***   
       EXCITE               IEXCIT         NONE        [  0]    ***   
       EXTERN_POT           IEXPOT         OFF         [  0]    ***   
       FCGRADNEW            IFCGNW         OFF         [  0]    ***   
       FC_FIELD             IFINFC              0             x 10-6  
       FD_CALTYPE           IFDCAL         GRADONLY    [  0]    ***   
       FD_PROJECT           IFDPRJ         OFF         [  1]    ***   
       FD_STEPSIZE          IDISFD              0            10-4 bohr
       FD_USEGROUP          IFDGRP         FULL        [  0]    ***   
       FILE_RECSIZ          IFLREC              4096           words  
       FINITE_PERT          IFIPER              0             x 10-6  
       FIXGEOM              IFIXGM         OFF         [  0]    ***   
       FOCK                 IFOCK          AO          [  1]    ***   
       FREQ_ALGORI          IVIALG         STANDARD    [  0]    ***   
       FROZEN_CORE          IFROCO         ON          [  1]    ***   
       GAMMA_ABCD           IGABCD         STORE       [  0]    ***   
       GAMMA_ABCI           IGABCI         STORE       [  0]    ***   
       GENBAS_1             IGNBS1              0               ***   
       GENBAS_2             IGNBS2              0               ***   
       GENBAS_3             IGNBS3              0               ***   
       GENBAS_4             IGNBS4              0               ***   
       GEO_CONV             ICONTL              5              H/bohr 
       GEO_MAXCYC           IOPTCY             50               ***   
       GEO_MAXSTEP          IMXSTP            300            millibohr
       GEO_METHOD           INR            SINGLE_POINT[  5]    ***   
       GIAO                 IGIAO          OFF         [  1]    ***   
       GIMIC                IGIMIC         OFF         [  0]    ***   
       GRID                 IGRID          OFF         [  0]    ***   
       GRID_ALGO            IGALGO         SERIAL      [  0]    ***   
       GUESS                IGUESS         MOREAD      [  0]    ***   
       HBAR                 IHBAR          OFF         [  0]    ***   
       HESS_TYPE            IHESTP         SCF         [  0]    ***   
       HF2_FILE             IHF2Fl         USE         [  1]    ***   
       HFSTABILITY          ISTABL         OFF         [  0]    ***   
       INCORE               INCORE         OFF         [  0]    ***   
       INPUT_MRCC           IMRCC          ON          [  1]    ***   
       INTEGRALS            INTTYP         VMOL        [  1]    ***   
       JODA_PRINT           IJPRNT              0               ***   
       KEYWORD_OUT          IDMPKW         NO          [  0]    ***   
       LINDEP_TOL           ILINDP              8               ***   
       LINEQ_CONV           IZTACN          10D-  7           cycles  
       LINEQ_EXPOR          ILMAXD              5               ***   
       LINEQ_MAXCY          ILMAXC            100               ***   
       LINEQ_TYPE           ILTYPE         DIIS        [  1]    ***   
       LOCK_ORBOCC          ILOCOC         OFF         [  0]    ***   
       MEMORY_SIZE          IMEMSZ         *********           words  
       MEM_UNIT             IMEMU          GB          [  3]    ***   
       MRCC                 IMRCCC         OFF         [  0]    ***   
       MULTIPLICTY          IMULTP              4               ***   
       NACOUPLING           IVCOUP         OFF         [  0]    ***   
       NEGEVAL              IDIE           ABORT       [  0]    ***   
       NEWNORM              INEWNO         OFF         [  0]    ***   
       NON-HF               INONHF         ON          [  1]    ***   
       NTOP_TAMP            ITOPT2             15               ***   
       NUC_MODEL            INUCMO         POINT       [  0]    ***   
       OCCUPATION           IOCCU  A   2,  1,  1,  0,  1,  0,  0,  0,
                                   B   2,  0,  0,  0,  0,  0,  0,  0,
       OPEN-SHELL           IOPEN          SPIN-ORBITAL[  0]    ***   
       OPTVIB               IOPTVB         OFF         [  0]    ***   
       ORBITALS             IORBTP         SEMICANONICA[  1]    ***   
       PARALLEL             IPARAL         ON          [  1]    ***   
       PARA_INT             IPINTS         ON          [  1]    ***   
       PARA_PRINT           IPPRIN              0               ***   
       PERT_ORB             IPTORB         STANDARD    [  0]    ***   
       POINTS               IGRDFD              0               ***   
       PRINT                IPRNT               0               ***   
       PROPS                IPROPS         OFF         [  0]    ***   
       PROP_INTEGR          IINTYP         INTERNAL    [  0]    ***   
       PSI                  IPSI           OFF         [  0]    ***   
       QC_ALG               IQCALG         FLM         [  0]    ***   
       QC_LINALG            IQCLIN         TRIDIAG     [  2]    ***   
       QC_MAXCYC            IQCMAX          10D-100           cycles  
       QC_MAXSCFCY          IQCMSC          10D- 15           cycles  
       QC_RTRUST            IQCRTR          10D-  0           x 10-3  
       QC_SKIPSCF           IQCSKI         OFF         [  0]    ***   
       QC_START             IQCSTA          10D-  1             ***   
       QRHFGUESS            IQGUES         OFF         [  0]    ***   
       QUARTIC              IQUART         OFF         [  0]    ***   
       RAMAN_INT            IRAMIN         OFF         [  0]    ***   
       RAMAN_ORB            IRAMRE         UNRELAXED   [  0]    ***   
       RDO                  IRDOFM         OFF         [  0]    ***   
       REDUCE_REPR          REDREP         Ir          [  0]    ***   
       REFERENCE            IREFNC         ROHF        [  2]    ***   
       RELATIVIST           IRELAT         OFF         [  0]    ***   
       RELAX_DENS           IRDENS         OFF         [  0]    ***   
       RESET_FLAGS          IRESET         OFF         [  0]    ***   
       RESTART_CC           ICCRES         OFF         [  0]    ***   
       ROT_EVEC             ROTVEC              0               ***   
       SAVE_INTS            ISVINT         ON          [  1]    ***   
       SCALE_ON             ISTCRT              0               ***   
       SCF_CONV             ISCFCV          10D- 10             ***   
       SCF_DAMPING          IDAMP               0             x 10-3  
       SCF_EXPORDE          IRPPOR              6               ***   
       SCF_EXPSTAR          IRPPLS              5               ***   
       SCF_EXTRAPO          IRPP           ON          [  1]    ***   
       SCF_MAXCYC           ISCFCY            ***              cycles 
       SCF_NOSTOP           ISCFST         OFF         [  0]    ***   
       SCF_PRINT            ISCFPR              0               ***   
       SCF_PROG             ISCFPR         SCF         [  0]    ***   
       SD_FIELD             IFINSD              0             x 10-6  
       SOPERT               IPERSO         OFF         [  0]    ***   
       SPHERICAL            IDFGHI         ON          [  1]    ***   
       SPINORBIT            ISOCAL         OFF         [  0]    ***   
       SPINROTATIO          ISRCON         OFF         [  0]    ***   
       SPIN_FLIP            ISPFLP         OFF         [  0]    ***   
       SPIN_ORBIT           ISPORB         OFF         [  0]    ***   
       SPIN_SCAL            ISCSMP         OFF         [  0]    ***   
       STEEPSCALE           ISTPSC              1000          x 10-3  
       SUBGROUP             ISUBGP         DEFAULT     [  0]    ***   
       SUBGRPAXIS           ISBXYZ         X           [  0]    ***   
       SYMMETRY             ISYM           ON          [  0]    ***   
       SYM_CHECK            ISYMCK         OVERRIDE    [  1]    ***   
       T3_EXTRAPOL          IT3EXT         ON          [  1]    ***   
       T4_EXTRAPOL          IT4EXP         OFF         [  0]    ***   
       TAMP_SUM             IEVERY              5               ***   
       TESTSUITE            ITESTS         OFF         [  0]    ***   
       THERMOCH             ITHERM         OFF         [  0]    ***   
       TOL_CHOLESK          ITOLCH          10D-  4             ***   
       TRANGRAD             IRESRM         OFF         [  0]    ***   
       TRANS_INV            ITRAIN         USE         [  0]    ***   
       TREAT_PERT           ITREAT         SIMULTANEOUS[  0]    ***   
       TRIP_ALGORI          ITRALG         NORMAL      [  0]    ***   
       UIJ_THRESHO          IUIJTH              1               ***   
       UNITS                IUNITS         ANGSTROM    [  0]    ***   
       UNOS                 IUNOS          OFF         [  0]    ***   
       UPDATE_HESS          IHUPDT         ON          [  1]    ***   
       VIBPHASE             ISETPH         STANDARD    [  0]    ***   
       VIBRATION            IVIB           NO          [  0]    ***   
       VIB_ALGORIT          IGEALG         STANDARD    [  0]    ***   
       VNATORB              IVNORB         OFF         [  0]    ***   
       VTRAN                IVTRAN         FULL/PARTIAL[  0]    ***   
       XFIELD               IXEFLD              0             x 10-6  
       XFORM_TOL            IXFTOL          10D- 18             ***   
       YFIELD               IYEFLD              0             x 10-6  
       ZFIELD               IZEFLD              0             x 10-6  
       ZSCALE_EXP           IZEXPS         OFF         [  0]    ***   
    -------------------------------------------------------------------
   1 entries found in Z-matrix 
   Job Title : TITLE                                                                           
   Rotational constants (in cm-1): 

   Rotational constants (in MHz): 

********************************************************************************
   The full molecular point group is I h .
   The largest Abelian subgroup of the full molecular point group is D2h .
   The computational point group is D2h .
********************************************************************************
  ECPDATA file not present.   Using default ECPDATA. 
  @GTFLGS-W, Keyword #DROPMO not known and is ignored.
  @GTFLGS-W, Keyword #INPUT_MRCC not known and is ignored.
  @GTFLGS-W, Keyword #CC_PROG not known and is ignored.
  @GTFLGS-W, Keyword #SCF_DAMPING not known and is ignored.
  There is   1 frozen-core orbital.
  There is   1 frozen-core orbital.
  There are  189 basis functions.
 @GEOPT-W, Archive file not created for single-point calculation.
 @CHECKOUT-I, Total execution time (CPU/WALL):        0.23/       3.76 seconds.
--executable xjoda finished with status     0 in        3.80 seconds (walltime).
 --invoking executable--
/cvmfs/restricted.computecanada.ca/easybuild/software/2020/avx2/Compiler/intel2020/cfour/2.1/bin/xvmol
 SERIAL VERSION OF MOLECULE STARTED
********************************************************************************
                    INPUT FROM MOL FILE
********************************************************************************
INTGRL        1    0    1    0    0    0    0    0    0                         
         *** CFOUR Program System (Release V0.1) ***                            
TITLE                                                                           
    1    3 X  Y   Z   0.10E-08              0    0                              
   9999.00      3.00                                                            
          8.00000000    1    7    1    1    1    1    1    1    1               
O #1   0.000000000000000   0.000000000000000   0.000000000000000                
   17    8                                                                      
   570800.000000000       5.500000000000000E-006 -1.200000000000000E-006        
  0.000000000000000E+000  0.000000000000000E+000  0.000000000000000E+000        
  0.000000000000000E+000  0.000000000000000E+000  0.000000000000000E+000        
   85480.0000000000       4.310000000000000E-005 -9.700000000000000E-006        
  0.000000000000000E+000  0.000000000000000E+000  0.000000000000000E+000        
  0.000000000000000E+000  0.000000000000000E+000  0.000000000000000E+000        
   19460.0000000000       2.266000000000000E-004 -5.140000000000000E-005        
  0.000000000000000E+000  0.000000000000000E+000  0.000000000000000E+000        
  0.000000000000000E+000  0.000000000000000E+000  0.000000000000000E+000        
   5512.00000000000       9.563000000000000E-004 -2.169000000000000E-004        
  0.000000000000000E+000  0.000000000000000E+000  0.000000000000000E+000        
  0.000000000000000E+000  0.000000000000000E+000  0.000000000000000E+000        
   1798.00000000000       3.473200000000000E-003 -7.916000000000001E-004        
  0.000000000000000E+000  0.000000000000000E+000  0.000000000000000E+000        
  0.000000000000000E+000  0.000000000000000E+000  0.000000000000000E+000        
   648.900000000000       1.119770000000000E-002 -2.559000000000000E-003        
  0.000000000000000E+000  0.000000000000000E+000  0.000000000000000E+000        
  0.000000000000000E+000  0.000000000000000E+000  0.000000000000000E+000        
   253.100000000000       3.238760000000000E-002 -7.533100000000000E-003        
  0.000000000000000E+000  0.000000000000000E+000  0.000000000000000E+000        
  0.000000000000000E+000  0.000000000000000E+000  0.000000000000000E+000        
   104.900000000000       8.285969999999999E-002 -1.978890000000000E-002        
  0.000000000000000E+000  0.000000000000000E+000  0.000000000000000E+000        
  0.000000000000000E+000  0.000000000000000E+000  0.000000000000000E+000        
   45.6500000000000       0.179583800000000      -4.606280000000000E-002        
  0.000000000000000E+000  0.000000000000000E+000  0.000000000000000E+000        
  0.000000000000000E+000  0.000000000000000E+000  0.000000000000000E+000        
   20.6200000000000       0.305221100000000      -8.919560000000000E-002        
  0.000000000000000E+000  0.000000000000000E+000  0.000000000000000E+000        
  0.000000000000000E+000  0.000000000000000E+000  0.000000000000000E+000        
   9.58700000000000       0.340893400000000      -0.137542100000000             
  0.000000000000000E+000  0.000000000000000E+000  0.000000000000000E+000        
  0.000000000000000E+000  0.000000000000000E+000  0.000000000000000E+000        
   4.49300000000000       0.177426100000000      -0.105119400000000             
   1.00000000000000       0.000000000000000E+000  0.000000000000000E+000        
  0.000000000000000E+000  0.000000000000000E+000  0.000000000000000E+000        
   1.83700000000000       2.049100000000000E-002  0.144771400000000             
  0.000000000000000E+000   1.00000000000000       0.000000000000000E+000        
  0.000000000000000E+000  0.000000000000000E+000  0.000000000000000E+000        
  0.834900000000000      -9.680000000000000E-004  0.441463300000000             
  0.000000000000000E+000  0.000000000000000E+000   1.00000000000000             
  0.000000000000000E+000  0.000000000000000E+000  0.000000000000000E+000        
  0.365800000000000       1.057100000000000E-003  0.444681400000000             
  0.000000000000000E+000  0.000000000000000E+000  0.000000000000000E+000        
   1.00000000000000       0.000000000000000E+000  0.000000000000000E+000        
  0.157000000000000      -9.720000000000000E-005  0.128242500000000             
  0.000000000000000E+000  0.000000000000000E+000  0.000000000000000E+000        
  0.000000000000000E+000   1.00000000000000       0.000000000000000E+000        
  5.935000000000000E-002  0.000000000000000E+000  0.000000000000000E+000        
  0.000000000000000E+000  0.000000000000000E+000  0.000000000000000E+000        
  0.000000000000000E+000  0.000000000000000E+000   1.00000000000000             
   11    7                                                                      
   525.600000000000       1.666000000000000E-004  0.000000000000000E+000        
  0.000000000000000E+000  0.000000000000000E+000  0.000000000000000E+000        
  0.000000000000000E+000  0.000000000000000E+000                                
   124.600000000000       1.433300000000000E-003  0.000000000000000E+000        
  0.000000000000000E+000  0.000000000000000E+000  0.000000000000000E+000        
  0.000000000000000E+000  0.000000000000000E+000                                
   40.3400000000000       7.547600000000000E-003  0.000000000000000E+000        
  0.000000000000000E+000  0.000000000000000E+000  0.000000000000000E+000        
  0.000000000000000E+000  0.000000000000000E+000                                
   15.1800000000000       2.859450000000000E-002  0.000000000000000E+000        
  0.000000000000000E+000  0.000000000000000E+000  0.000000000000000E+000        
  0.000000000000000E+000  0.000000000000000E+000                                
   6.24500000000000       8.438850000000001E-002  0.000000000000000E+000        
  0.000000000000000E+000  0.000000000000000E+000  0.000000000000000E+000        
  0.000000000000000E+000  0.000000000000000E+000                                
   2.73200000000000       0.187483400000000        1.00000000000000             
  0.000000000000000E+000  0.000000000000000E+000  0.000000000000000E+000        
  0.000000000000000E+000  0.000000000000000E+000                                
   1.22700000000000       0.297905700000000       0.000000000000000E+000        
   1.00000000000000       0.000000000000000E+000  0.000000000000000E+000        
  0.000000000000000E+000  0.000000000000000E+000                                
  0.549200000000000       0.338557500000000       0.000000000000000E+000        
  0.000000000000000E+000   1.00000000000000       0.000000000000000E+000        
  0.000000000000000E+000  0.000000000000000E+000                                
  0.241800000000000       0.247260900000000       0.000000000000000E+000        
  0.000000000000000E+000  0.000000000000000E+000   1.00000000000000             
  0.000000000000000E+000  0.000000000000000E+000                                
  0.102500000000000       7.003350000000000E-002  0.000000000000000E+000        
  0.000000000000000E+000  0.000000000000000E+000  0.000000000000000E+000        
   1.00000000000000       0.000000000000000E+000                                
  3.380000000000000E-002  0.000000000000000E+000  0.000000000000000E+000        
  0.000000000000000E+000  0.000000000000000E+000  0.000000000000000E+000        
  0.000000000000000E+000   1.00000000000000                                     
    6    6                                                                      
   8.25300000000000        1.00000000000000       0.000000000000000E+000        
  0.000000000000000E+000  0.000000000000000E+000  0.000000000000000E+000        
  0.000000000000000E+000                                                        
   3.59700000000000       0.000000000000000E+000   1.00000000000000             
  0.000000000000000E+000  0.000000000000000E+000  0.000000000000000E+000        
  0.000000000000000E+000                                                        
   1.56800000000000       0.000000000000000E+000  0.000000000000000E+000        
   1.00000000000000       0.000000000000000E+000  0.000000000000000E+000        
  0.000000000000000E+000                                                        
  0.684000000000000       0.000000000000000E+000  0.000000000000000E+000        
  0.000000000000000E+000   1.00000000000000       0.000000000000000E+000        
  0.000000000000000E+000                                                        
  0.298000000000000       0.000000000000000E+000  0.000000000000000E+000        
  0.000000000000000E+000  0.000000000000000E+000   1.00000000000000             
  0.000000000000000E+000                                                        
  0.115000000000000       0.000000000000000E+000  0.000000000000000E+000        
  0.000000000000000E+000  0.000000000000000E+000  0.000000000000000E+000        
   1.00000000000000                                                             
    5    5                                                                      
   5.43000000000000        1.00000000000000       0.000000000000000E+000        
  0.000000000000000E+000  0.000000000000000E+000  0.000000000000000E+000        
   2.41600000000000       0.000000000000000E+000   1.00000000000000             
  0.000000000000000E+000  0.000000000000000E+000  0.000000000000000E+000        
   1.07500000000000       0.000000000000000E+000  0.000000000000000E+000        
   1.00000000000000       0.000000000000000E+000  0.000000000000000E+000        
  0.478000000000000       0.000000000000000E+000  0.000000000000000E+000        
  0.000000000000000E+000   1.00000000000000       0.000000000000000E+000        
  0.195000000000000       0.000000000000000E+000  0.000000000000000E+000        
  0.000000000000000E+000  0.000000000000000E+000   1.00000000000000             
    4    4                                                                      
   5.21100000000000        1.00000000000000       0.000000000000000E+000        
  0.000000000000000E+000  0.000000000000000E+000                                
   2.19000000000000       0.000000000000000E+000   1.00000000000000             
  0.000000000000000E+000  0.000000000000000E+000                                
  0.920000000000000       0.000000000000000E+000  0.000000000000000E+000        
   1.00000000000000       0.000000000000000E+000                                
  0.406000000000000       0.000000000000000E+000  0.000000000000000E+000        
  0.000000000000000E+000   1.00000000000000                                     
    3    3                                                                      
   3.87200000000000        1.00000000000000       0.000000000000000E+000        
  0.000000000000000E+000                                                        
   1.50500000000000       0.000000000000000E+000   1.00000000000000             
  0.000000000000000E+000                                                        
  0.748000000000000       0.000000000000000E+000  0.000000000000000E+000        
   1.00000000000000                                                             
    2    2                                                                      
   2.77300000000000        1.00000000000000       0.000000000000000E+000        
   1.34500000000000       0.000000000000000E+000   1.00000000000000             
FINISH                                                                          
 
********************************************************************************
OMP: Info #274: omp_set_nested routine deprecated, please use omp_set_max_active_levels instead.
 ONE- AND TWO-ELECTRON INTEGRALS OVER SYMMETRY-ADAPTED AOS ARE CALCULATED.

  SPHERICAL HARMONICS ARE USED.
  
  INTEGRALS LESS THAN  0.10E-13 ARE NEGLECTED.

  NUCLEAR REPULSION ENERGY :    0.0000000000 A.U.
  @MOLECU-I, ONE ELECTRON INTEGRALS (CPU/WALL):        0.13/       0.13 SECONDS.
  @TWOEL-I,     482321 INTEGRALS OF SYMMETRY TYPE  I I I I
  @TWOEL-I,    4119775 INTEGRALS OF SYMMETRY TYPE  I J I J
  @TWOEL-I,    2366897 INTEGRALS OF SYMMETRY TYPE  I I J J
  @TWOEL-I,   10122549 INTEGRALS OF SYMMETRY TYPE  I J K L
  @TWOEL-I, TOTAL NUMBER OF 2-E INTEGRALS   17091542.
  @MOLECU-I, TWO ELECTRON INTEGRALS (CPU/WALL):       44.95/      45.14 SECONDS.
 @CHECKOUT-I, Total execution time (CPU/WALL):       45.11/      46.61 seconds.

OMP_NUM_THREADS not specified; defaulting to 1
Running with 1 threads/proc

--executable xvmol finished with status     0 in       46.66 seconds (walltime).
 --invoking executable--
/cvmfs/restricted.computecanada.ca/easybuild/software/2020/avx2/Compiler/intel2020/cfour/2.1/bin/xvmol2ja
 @GETMEM-I,  Allocated   19073 MB of main memory.
 @CHECKOUT-I, Total execution time (CPU/WALL):        0.22/       0.07 seconds.
--executable xvmol2ja finished with status     0 in        0.12 seconds (walltime).
 --invoking executable--
/cvmfs/restricted.computecanada.ca/easybuild/software/2020/avx2/Compiler/intel2020/cfour/2.1/bin/xvscf
  There are  189 functions in the AO basis.

  There are 8 irreducible representations.

       Irrep        # of functions
         1                 40
         2                 26
         3                 26
         4                 20
         5                 26
         6                 20
         7                 20
         8                 11


  Parameters for SCF calculation: 
        SCF reference function: ROHF  
  Maximum number of iterations: 9999
     Full symmetry point group: I h 
     Computational point group: D2h 
        Initial density matrix: MOREAD                 
     SCF convergence tolerance: 10**(-10)
  DIIS convergence acceleration:  ON
          Latest start for DIIS:   5
                     DIIS order:   6

     Alpha population by irrep:   2    1    1    0    1    0    0    0
      Beta population by irrep:   2    0    0    0    0    0    0    0


  Memory information:    2725225 words required.
  Fock matrices are constructed from AO integral file.
 @GETMEM-I,  Allocated      20 MB of main memory.
  Initialization and symmetry analysis required      0.003 seconds.

 total no. of electrons in initial guess :  0.000000000000000E+000
 total no. of electrons in initial guess :  0.000000000000000E+000
  --------------------------------------------------------------------
  Iteration         Total Energy            Largest Density Difference
  --------------------------------------------------------------------
       0             0.000000000000000              0.0000000000D+00
   current occupation vector 
     2  1  1  0  1  0  0  0
     2  0  0  0  0  0  0  0
       1           -69.177607626660006              0.9132525258D+01
   current occupation vector 
     2  1  1  0  1  0  0  0
     2  0  0  0  0  0  0  0
       2           -71.114735689156745              0.9055074033D+01
   current occupation vector 
     2  1  1  0  1  0  0  0
     2  0  0  0  0  0  0  0
       3           -74.119460410447047              0.1833342709D+01
   current occupation vector 
     2  1  1  0  1  0  0  0
     2  0  0  0  0  0  0  0
       4           -74.344040214110009              0.8522212927D+00
   current occupation vector 
     2  1  1  0  1  0  0  0
     2  0  0  0  0  0  0  0
       5           -74.370525503272788              0.2362563954D+00
   current occupation vector 
     2  1  1  0  1  0  0  0
     2  0  0  0  0  0  0  0
       6           -74.372529574530006              0.4180735826D-01
   current occupation vector 
     2  1  1  0  1  0  0  0
     2  0  0  0  0  0  0  0
       7           -74.372584100220138              0.5255548283D-02
   current occupation vector 
     2  1  1  0  1  0  0  0
     2  0  0  0  0  0  0  0
       8           -74.372585567518428              0.1289400800D-02
   current occupation vector 
     2  1  1  0  1  0  0  0
     2  0  0  0  0  0  0  0
       9           -74.372586001460292              0.4616184250D-03
   current occupation vector 
     2  1  1  0  1  0  0  0
     2  0  0  0  0  0  0  0
      10           -74.372586003291929              0.4979862266D-04
   current occupation vector 
     2  1  1  0  1  0  0  0
     2  0  0  0  0  0  0  0
      11           -74.372586003295609              0.1335391899D-05
   current occupation vector 
     2  1  1  0  1  0  0  0
     2  0  0  0  0  0  0  0
      12           -74.372586003295638              0.1792150655D-06
   current occupation vector 
     2  1  1  0  1  0  0  0
     2  0  0  0  0  0  0  0
      13           -74.372586003295723              0.1085027805D-07
   current occupation vector 
     2  1  1  0  1  0  0  0
     2  0  0  0  0  0  0  0
      14           -74.372586003295751              0.7320788975D-09
   current occupation vector 
     2  1  1  0  1  0  0  0
     2  0  0  0  0  0  0  0

  SCF has converged.

 Density matrix saved to file den.dat
 total alpha spin electron number:   5.00000000000000     
 total  beta spin electron number:   2.00000000000000     
     E(ROHF)=       -74.372586003295439              0.5445532913D-10

  Eigenvector printing suppressed.


       The average multiplicity is    4.0000000
  The expectation value of S**2 is    3.7500000

 @PUTMOS-I, Writing converged MOs to NEWMOS. 
 @PUTMOS-I, Symmetry   1 Full Blocks 10 Partial Blocksize   0
 @PUTMOS-I, Symmetry   2 Full Blocks  6 Partial Blocksize   2
 @PUTMOS-I, Symmetry   3 Full Blocks  6 Partial Blocksize   2
 @PUTMOS-I, Symmetry   4 Full Blocks  5 Partial Blocksize   0
 @PUTMOS-I, Symmetry   5 Full Blocks  6 Partial Blocksize   2
 @PUTMOS-I, Symmetry   6 Full Blocks  5 Partial Blocksize   0
 @PUTMOS-I, Symmetry   7 Full Blocks  5 Partial Blocksize   0
 @PUTMOS-I, Symmetry   8 Full Blocks  2 Partial Blocksize   3
 @PUTFOCK-I, Writing converged Fock matrix to NEWFOCK. 
 @PUTFOCK-I, Symmetry   1 Full Blocks 10 Partial Blocksize   0
 @PUTFOCK-I, Symmetry   2 Full Blocks  6 Partial Blocksize   2
 @PUTFOCK-I, Symmetry   3 Full Blocks  6 Partial Blocksize   2
 @PUTFOCK-I, Symmetry   4 Full Blocks  5 Partial Blocksize   0
 @PUTFOCK-I, Symmetry   5 Full Blocks  6 Partial Blocksize   2
 @PUTFOCK-I, Symmetry   6 Full Blocks  5 Partial Blocksize   0
 @PUTFOCK-I, Symmetry   7 Full Blocks  5 Partial Blocksize   0
 @PUTFOCK-I, Symmetry   8 Full Blocks  2 Partial Blocksize   3
  @DMPJOB-I, Rotating orbitals to semicanonical basis.
             *** Eigenvalues correspond to new basis. ***

  @PRJDEN-I, Basis set contains h and/or higher angular momentum functions.
             Analysis of density matrix symmetry not available.
             Check irreps of the molecular orbitals in the full point group
             for presence of an asymmetric solution.

 
  ORBITAL EIGENVALUES (ALPHA)  (1H = 27.2113834 eV)

       MO #        E(hartree)               E(eV)           FULLSYM    COMPSYM
       ----   --------------------   --------------------   -------   ---------
    1     1         -21.4115052434        -582.6366783505      Ag        Ag (1)
    2     2          -2.0585096760         -56.0148960252      Ag        Ag (1)
    3    41          -1.3269139836         -36.1071651475     T1u       B2u (2)
    4    67          -1.3269139836         -36.1071651475     T1u       B3u (3)
    5   113          -1.3269139836         -36.1071651475     T1u       B1u (5)
  +++++++++++++++++++++++++++++++++++++++++++++++++++++++++++++++++++++++++++++
    6     3          -0.1449285236          -3.9437056202      Ag        Ag (1)
    7    42          -0.0991680525          -2.6984998986     T1u       B2u (2)
    8   114          -0.0991680525          -2.6984998986     T1u       B1u (5)
    9    68          -0.0991680525          -2.6984998986     T1u       B3u (3)
   10    93           0.0869518062           2.3660789346      Hg       B1g (4)
   11     4           0.0869518062           2.3660789346      Hg        Ag (1)
   12   139           0.0869518062           2.3660789346      Hg       B3g (6)
   13   159           0.0869518062           2.3660789346      Hg       B2g (7)
   14     5           0.0869518062           2.3660789346      Hg        Ag (1)
   15   115           0.0877619641           2.3881244536     T1u       B1u (5)
   16    43           0.0877619641           2.3881244536     T1u       B2u (2)
   17    69           0.0877619641           2.3881244536     T1u       B3u (3)
   18     6           0.2485826193           6.7642769603      Ag        Ag (1)
   19   179           0.5010614806          13.6345760560       u        Au (8)
   20   116           0.5010614806          13.6345760560       u       B1u (5)
   21   117           0.5010614806          13.6345760560       u       B1u (5)
   22    44           0.5010614806          13.6345760560       u       B2u (2)
   23    70           0.5010614806          13.6345760560       u       B3u (3)
   24    71           0.5010614806          13.6345760560       u       B3u (3)
   25    45           0.5010614806          13.6345760560       u       B2u (2)
   26   140           0.6660345043          18.1237202531      Hg       B3g (6)
   27   160           0.6660345043          18.1237202531      Hg       B2g (7)
   28    94           0.6660345043          18.1237202531      Hg       B1g (4)
   29     7           0.6660345043          18.1237202531      Hg        Ag (1)
   30     8           0.6660345043          18.1237202531      Hg        Ag (1)
   31   118           0.7156386215          19.4735169046     T1u       B1u (5)
   32    46           0.7156386215          19.4735169046     T1u       B2u (2)
   33    72           0.7156386215          19.4735169046     T1u       B3u (3)
   34     9           1.5873940720          43.1951886999      Ag        Ag (1)
   35   141           1.6654765629          45.3199212955       g       B3g (6)
   36   161           1.6654765629          45.3199212955       g       B2g (7)
   37    10           1.6654765629          45.3199212955       g        Ag (1)
   38    95           1.6654765629          45.3199212955       g       B1g (4)
   39    11           1.6654765629          45.3199212955       g        Ag (1)
   40    96           1.6654765629          45.3199212955       g       B1g (4)
   41   142           1.6654765629          45.3199212955       g       B3g (6)
   42    12           1.6654765629          45.3199212955       g        Ag (1)
   43   162           1.6654765629          45.3199212955       g       B2g (7)
   44   180           1.8438676539          50.1741896704       u        Au (8)
   45    47           1.8438676539          50.1741896704       u       B2u (2)
   46    48           1.8438676539          50.1741896704       u       B2u (2)
   47   119           1.8438676539          50.1741896704       u       B1u (5)
   48    73           1.8438676539          50.1741896704       u       B3u (3)
   49   120           1.8438676539          50.1741896704       u       B1u (5)
   50    74           1.8438676539          50.1741896704       u       B3u (3)
   51    13           2.0587224655          56.0206863223      Hg        Ag (1)
   52   143           2.0587224655          56.0206863223      Hg       B3g (6)
   53   163           2.0587224655          56.0206863223      Hg       B2g (7)
   54    97           2.0587224655          56.0206863223      Hg       B1g (4)
   55    14           2.0587224655          56.0206863223      Hg        Ag (1)
   56   121           2.4776488011          67.4202514578     T1u       B1u (5)
   57    75           2.4776488011          67.4202514578     T1u       B3u (3)
   58    49           2.4776488011          67.4202514578     T1u       B2u (2)
   59   181           3.9713006233         108.0645838584                Au (8)
   60   122           3.9713006233         108.0645838584               B1u (5)
   61   123           3.9713006233         108.0645838584               B1u (5)
   62    50           3.9713006233         108.0645838584               B2u (2)
   63   182           3.9713006233         108.0645838584                Au (8)
   64   124           3.9713006233         108.0645838584               B1u (5)
   65    76           3.9713006233         108.0645838584               B3u (3)
   66    51           3.9713006233         108.0645838584               B2u (2)
   67    77           3.9713006233         108.0645838584               B3u (3)
   68    52           3.9713006233         108.0645838584               B2u (2)
   69    78           3.9713006233         108.0645838584               B3u (3)
   70    79           4.8196139449         131.1483628954       u       B3u (3)
   71   125           4.8196139449         131.1483628954       u       B1u (5)
   72   183           4.8196139449         131.1483628954       u        Au (8)
   73    53           4.8196139449         131.1483628954       u       B2u (2)
   74    54           4.8196139449         131.1483628954       u       B2u (2)
   75    80           4.8196139449         131.1483628954       u       B3u (3)
   76   126           4.8196139449         131.1483628954       u       B1u (5)
   77    15           4.8974025967         133.2650997234       g        Ag (1)
   78   164           4.8974025967         133.2650997234       g       B2g (7)
   79   144           4.8974025967         133.2650997234       g       B3g (6)
   80    98           4.8974025967         133.2650997234       g       B1g (4)
   81    16           4.8974025967         133.2650997234       g        Ag (1)
   82    17           4.8974025967         133.2650997234       g        Ag (1)
   83    99           4.8974025967         133.2650997234       g       B1g (4)
   84   165           4.8974025967         133.2650997234       g       B2g (7)
   85   145           4.8974025967         133.2650997234       g       B3g (6)
   86   100           5.3937496175         146.7713888044      Hg       B1g (4)
   87   146           5.3937496175         146.7713888044      Hg       B3g (6)
   88    18           5.3937496175         146.7713888044      Hg        Ag (1)
   89   166           5.3937496175         146.7713888044      Hg       B2g (7)
   90    19           5.3937496175         146.7713888044      Hg        Ag (1)
   91    20           5.6897149834         154.8250158498      Ag        Ag (1)
   92    81           7.0280646979         191.2433630558     T1u       B3u (3)
   93   127           7.0280646979         191.2433630558     T1u       B1u (5)
   94    55           7.0280646979         191.2433630558     T1u       B2u (2)
   95   101           8.8261628994         240.1721026073    XXXX      XXXX (4)
   96   102           8.8261628994         240.1721026073    XXXX      XXXX (4)
   97   147           8.8261628994         240.1721026073    XXXX      XXXX (6)
   98   167           8.8261628994         240.1721026073    XXXX      XXXX (7)
   99    21           8.8261628994         240.1721026073    XXXX      XXXX (1)
  100   168           8.8261628994         240.1721026073    XXXX      XXXX (7)
  101   148           8.8261628994         240.1721026073    XXXX      XXXX (6)
  102   103           8.8261628994         240.1721026073    XXXX      XXXX (4)
  103    22           8.8261628994         240.1721026073    XXXX      XXXX (1)
  104    23           8.8261628994         240.1721026073    XXXX      XXXX (1)
  105   169           8.8261628994         240.1721026073    XXXX      XXXX (7)
  106   149           8.8261628994         240.1721026073    XXXX      XXXX (6)
  107    24           8.8261628994         240.1721026073    XXXX      XXXX (1)
  108    56          10.2032582796         277.6447729747               B2u (2)
  109   128          10.2032582796         277.6447729747               B3u (5)
  110    82          10.2032582796         277.6447729747               B1u (3)
  111    57          10.2032582796         277.6447729747               B2u (2)
  112   129          10.2032582796         277.6447729747               B1u (5)
  113    83          10.2032582796         277.6447729747               B3u (3)
  114   184          10.2032582796         277.6447729747                Au (8)
  115   185          10.2032582796         277.6447729747                Au (8)
  116    58          10.2032582796         277.6447729747               B2u (2)
  117    84          10.2032582796         277.6447729747               B3u (3)
  118   130          10.2032582796         277.6447729747               B1u (5)
  119    85          11.5632312102         314.6515178034       u       B3u (3)
  120    59          11.5632312102         314.6515178034       u       B2u (2)
  121   186          11.5632312102         314.6515178034       u        Au (8)
  122   131          11.5632312102         314.6515178034       u       B1u (5)
  123    60          11.5632312102         314.6515178034       u       B2u (2)
  124    86          11.5632312102         314.6515178034       u       B3u (3)
  125   132          11.5632312102         314.6515178034       u       B1u (5)
  126    25          12.3166948786         335.1543065627       g        Ag (1)
  127   150          12.3166948786         335.1543065627       g       B3g (6)
  128   170          12.3166948786         335.1543065627       g       B2g (7)
  129   104          12.3166948786         335.1543065627       g       B1g (4)
  130   151          12.3166948786         335.1543065627       g       B3g (6)
  131   171          12.3166948786         335.1543065627       g       B2g (7)
  132   105          12.3166948786         335.1543065627       g       B1g (4)
  133    26          12.3166948786         335.1543065627       g        Ag (1)
  134    27          12.3166948786         335.1543065627       g        Ag (1)
  135   106          13.5227805978         367.9735674800      Hg       B1g (4)
  136   152          13.5227805978         367.9735674800      Hg       B3g (6)
  137    28          13.5227805978         367.9735674800      Hg        Ag (1)
  138   172          13.5227805978         367.9735674800      Hg       B2g (7)
  139    29          13.5227805978         367.9735674800      Hg        Ag (1)
  140    30          19.0116178160         517.3324214444      Ag        Ag (1)
  141    61          21.6889131259         590.1853305986     T1u       B2u (2)
  142   133          21.6889131259         590.1853305986     T1u       B1u (5)
  143    87          21.6889131259         590.1853305986     T1u       B3u (3)
  144   173          22.0613409875         600.3196079299    XXXX      XXXX (7)
  145   153          22.0613409875         600.3196079299    XXXX      XXXX (6)
  146   154          22.0613409875         600.3196079299    XXXX      XXXX (6)
  147   174          22.0613409875         600.3196079299    XXXX      XXXX (7)
  148   107          22.0613409875         600.3196079299    XXXX      XXXX (4)
  149   108          22.0613409875         600.3196079299    XXXX      XXXX (4)
  150   155          22.0613409875         600.3196079299    XXXX      XXXX (6)
  151   175          22.0613409875         600.3196079299    XXXX      XXXX (7)
  152    31          22.0613409875         600.3196079299    XXXX      XXXX (1)
  153   109          22.0613409875         600.3196079299    XXXX      XXXX (4)
  154    32          22.0613409875         600.3196079299    XXXX      XXXX (1)
  155    33          22.0613409875         600.3196079299    XXXX      XXXX (1)
  156    34          22.0613409875         600.3196079299    XXXX      XXXX (1)
  157    62          26.0923924893         710.0100958491               B2u (2)
  158    88          26.0923924893         710.0100958491               B3u (3)
  159   134          26.0923924893         710.0100958491               B1u (5)
  160   187          26.0923924893         710.0100958491                Au (8)
  161    63          26.0923924893         710.0100958491               B2u (2)
  162    89          26.0923924893         710.0100958491               B3u (3)
  163   135          26.0923924893         710.0100958491               B1u (5)
  164   188          26.0923924893         710.0100958491                Au (8)
  165    90          26.0923924893         710.0100958491               B3u (3)
  166    64          26.0923924893         710.0100958491               B2u (2)
  167   136          26.0923924893         710.0100958491               B1u (5)
  168    91          27.7006438065         753.7728390462       u       B3u (3)
  169   137          27.7006438065         753.7728390462       u       B1u (5)
  170    65          27.7006438065         753.7728390462       u       B2u (2)
  171   189          27.7006438065         753.7728390462       u        Au (8)
  172   138          27.7006438065         753.7728390462       u       B1u (5)
  173    92          27.7006438065         753.7728390462       u       B3u (3)
  174    66          27.7006438065         753.7728390462       u       B2u (2)
  175    35          30.7294077515         836.1896959819       g        Ag (1)
  176   176          30.7294077515         836.1896959819       g       B2g (7)
  177   156          30.7294077515         836.1896959819       g       B3g (6)
  178   110          30.7294077515         836.1896959819       g       B1g (4)
  179   177          30.7294077515         836.1896959819       g       B2g (7)
  180    36          30.7294077515         836.1896959819       g        Ag (1)
  181   157          30.7294077515         836.1896959819       g       B1g (6)
  182   111          30.7294077515         836.1896959819       g       B3g (4)
  183    37          30.7294077515         836.1896959819       g        Ag (1)
  184    38          33.7367377586         918.0233058152      Hg        Ag (1)
  185    39          33.7367377586         918.0233058152      Hg        Ag (1)
  186   112          33.7367377586         918.0233058152      Hg       B1g (4)
  187   178          33.7367377586         918.0233058152      Hg       B2g (7)
  188   158          33.7367377586         918.0233058152      Hg       B3g (6)
  189    40          98.7072280971        2685.9602281001      Ag        Ag (1)


 
  ORBITAL EIGENVALUES ( BETA)  (1H = 27.2113834 eV)

       MO #        E(hartree)               E(eV)           FULLSYM    COMPSYM
       ----   --------------------   --------------------   -------   ---------
    1     1         -21.2815201991        -579.0996054738      Ag        Ag (1)
    2     2          -1.5425811343         -41.9757666699      Ag        Ag (1)
  +++++++++++++++++++++++++++++++++++++++++++++++++++++++++++++++++++++++++++++
    3    67          -0.3831733724         -10.4266775463     T1u       B3u (3)
    4    41          -0.3831733724         -10.4266775463     T1u       B2u (2)
    5   113          -0.3831733724         -10.4266775463     T1u       B1u (5)
    6     3          -0.1319917319          -3.5916776213      Ag        Ag (1)
    7    42          -0.0836295572          -2.2756759448     T1u       B2u (2)
    8    68          -0.0836295572          -2.2756759448     T1u       B3u (3)
    9   114          -0.0836295572          -2.2756759448     T1u       B1u (5)
   10   159           0.0954061882           2.5961343648      Hg       B2g (7)
   11     4           0.0954061882           2.5961343648      Hg        Ag (1)
   12     5           0.0954061882           2.5961343648      Hg        Ag (1)
   13    93           0.0954061882           2.5961343648      Hg       B1g (4)
   14   139           0.0954061882           2.5961343648      Hg       B3g (6)
   15    69           0.1329761749           3.6184656796     T1u       B3u (3)
   16   115           0.1329761749           3.6184656796     T1u       B1u (5)
   17    43           0.1329761749           3.6184656796     T1u       B2u (2)
   18     6           0.2844199205           7.7394595034      Ag        Ag (1)
   19    44           0.5044732087          13.7274138979       u       B2u (2)
   20   179           0.5044732087          13.7274138979       u        Au (8)
   21   116           0.5044732087          13.7274138979       u       B1u (5)
   22    70           0.5044732087          13.7274138979       u       B3u (3)
   23   117           0.5044732087          13.7274138979       u       B1u (5)
   24    45           0.5044732087          13.7274138979       u       B2u (2)
   25    71           0.5044732087          13.7274138979       u       B3u (3)
   26   160           0.7258499519          19.7513813307      Hg       B2g (7)
   27     7           0.7258499519          19.7513813307      Hg        Ag (1)
   28    94           0.7258499519          19.7513813307      Hg       B1g (4)
   29     8           0.7258499519          19.7513813307      Hg        Ag (1)
   30   140           0.7258499519          19.7513813307      Hg       B3g (6)
   31   118           0.8151119832          22.1803246886     T1u       B1u (5)
   32    72           0.8151119832          22.1803246886     T1u       B3u (3)
   33    46           0.8151119832          22.1803246886     T1u       B2u (2)
   34     9           1.6714241237          45.4817626530      Ag        Ag (1)
   35   161           1.6719723346          45.4966802319       g       B2g (7)
   36    95           1.6719723346          45.4966802319       g       B1g (4)
   37    10           1.6719723346          45.4966802319       g        Ag (1)
   38   141           1.6719723346          45.4966802319       g       B3g (6)
   39    11           1.6719723346          45.4966802319       g        Ag (1)
   40   162           1.6719723346          45.4966802319       g       B2g (7)
   41    12           1.6719723346          45.4966802319       g        Ag (1)
   42    96           1.6719723346          45.4966802319       g       B1g (4)
   43   142           1.6719723346          45.4966802319       g       B3g (6)
   44    47           1.8736388057          50.9843038955       u       B2u (2)
   45    73           1.8736388057          50.9843038955       u       B3u (3)
   46   119           1.8736388057          50.9843038955       u       B1u (5)
   47   180           1.8736388057          50.9843038955       u        Au (8)
   48    48           1.8736388057          50.9843038955       u       B2u (2)
   49    74           1.8736388057          50.9843038955       u       B3u (3)
   50   120           1.8736388057          50.9843038955       u       B1u (5)
   51   163           2.1941563318          59.7060291842      Hg       B2g (7)
   52    97           2.1941563318          59.7060291842      Hg       B1g (4)
   53    13           2.1941563318          59.7060291842      Hg        Ag (1)
   54    14           2.1941563318          59.7060291842      Hg        Ag (1)
   55   143           2.1941563318          59.7060291842      Hg       B3g (6)
   56   121           2.6118207654          71.0712562183     T1u       B1u (5)
   57    75           2.6118207654          71.0712562183     T1u       B3u (3)
   58    49           2.6118207654          71.0712562183     T1u       B2u (2)
   59   181           3.9820354839         108.3566942647                Au (8)
   60   182           3.9820354839         108.3566942647                Au (8)
   61   122           3.9820354839         108.3566942647               B1u (5)
   62   123           3.9820354839         108.3566942647               B1u (5)
   63   124           3.9820354839         108.3566942647               B1u (5)
   64    76           3.9820354839         108.3566942647               B3u (3)
   65    50           3.9820354839         108.3566942647               B2u (2)
   66    77           3.9820354839         108.3566942647               B3u (3)
   67    51           3.9820354839         108.3566942647               B2u (2)
   68    78           3.9820354839         108.3566942647               B3u (3)
   69    52           3.9820354839         108.3566942647               B2u (2)
   70    79           4.8980092683         133.2816080959       u       B3u (3)
   71    80           4.8980092683         133.2816080959       u       B3u (3)
   72    53           4.8980092683         133.2816080959       u       B2u (2)
   73   183           4.8980092683         133.2816080959       u        Au (8)
   74   125           4.8980092683         133.2816080959       u       B1u (5)
   75    54           4.8980092683         133.2816080959       u       B2u (2)
   76   126           4.8980092683         133.2816080959       u       B1u (5)
   77    15           4.9323398691         134.2157912379       g        Ag (1)
   78    16           4.9323398691         134.2157912379       g        Ag (1)
   79    17           4.9323398691         134.2157912379       g        Ag (1)
   80   164           4.9323398691         134.2157912379       g       B2g (7)
   81    98           4.9323398691         134.2157912379       g       B1g (4)
   82    99           4.9323398691         134.2157912379       g       B1g (4)
   83   144           4.9323398691         134.2157912379       g       B3g (6)
   84   165           4.9323398691         134.2157912379       g       B2g (7)
   85   145           4.9323398691         134.2157912379       g       B3g (6)
   86   166           5.5539738334         151.1313113752      Hg       B2g (7)
   87    18           5.5539738334         151.1313113752      Hg        Ag (1)
   88   146           5.5539738334         151.1313113752      Hg       B3g (6)
   89   100           5.5539738334         151.1313113752      Hg       B1g (4)
   90    19           5.5539738334         151.1313113752      Hg        Ag (1)
   91    20           5.8037921522         157.9292134267      Ag        Ag (1)
   92    81           7.1614600771         194.8732358627     T1u       B3u (3)
   93   127           7.1614600771         194.8732358627     T1u       B1u (5)
   94    55           7.1614600771         194.8732358627     T1u       B2u (2)
   95   101           8.8438427845         240.6531967379    XXXX      XXXX (4)
   96   167           8.8438427845         240.6531967379    XXXX      XXXX (7)
   97   147           8.8438427845         240.6531967379    XXXX      XXXX (6)
   98    21           8.8438427845         240.6531967379    XXXX      XXXX (1)
   99   102           8.8438427845         240.6531967379    XXXX      XXXX (4)
  100   168           8.8438427845         240.6531967379    XXXX      XXXX (7)
  101   148           8.8438427845         240.6531967379    XXXX      XXXX (6)
  102   103           8.8438427845         240.6531967379    XXXX      XXXX (4)
  103    22           8.8438427845         240.6531967379    XXXX      XXXX (1)
  104   169           8.8438427845         240.6531967379    XXXX      XXXX (7)
  105    23           8.8438427845         240.6531967379    XXXX      XXXX (1)
  106   149           8.8438427845         240.6531967379    XXXX      XXXX (6)
  107    24           8.8438427845         240.6531967379    XXXX      XXXX (1)
  108    56          10.2392172277         278.6232657000               B2u (2)
  109   128          10.2392172277         278.6232657000               B1u (5)
  110   129          10.2392172277         278.6232657000               B3u (5)
  111    82          10.2392172277         278.6232657000               B1u (3)
  112    57          10.2392172277         278.6232657000               B2u (2)
  113    83          10.2392172277         278.6232657000               B3u (3)
  114   184          10.2392172277         278.6232657000                Au (8)
  115   185          10.2392172277         278.6232657000                Au (8)
  116    58          10.2392172277         278.6232657000               B2u (2)
  117   130          10.2392172277         278.6232657000               B1u (5)
  118    84          10.2392172277         278.6232657000               B3u (3)
  119    59          11.6683617750         317.5122659100       u       B2u (2)
  120    85          11.6683617750         317.5122659100       u       B3u (3)
  121   131          11.6683617750         317.5122659100       u       B1u (5)
  122    86          11.6683617750         317.5122659100       u       B3u (3)
  123   186          11.6683617750         317.5122659100       u        Au (8)
  124    60          11.6683617750         317.5122659100       u       B2u (2)
  125   132          11.6683617750         317.5122659100       u       B1u (5)
  126    25          12.3870148576         337.0678104718       g        Ag (1)
  127   104          12.3870148576         337.0678104718       g       B1g (4)
  128   170          12.3870148576         337.0678104718       g       B2g (7)
  129   150          12.3870148576         337.0678104718       g       B3g (6)
  130   171          12.3870148576         337.0678104718       g       B2g (7)
  131   105          12.3870148576         337.0678104718       g       B1g (4)
  132    26          12.3870148576         337.0678104718       g        Ag (1)
  133   151          12.3870148576         337.0678104718       g       B3g (6)
  134    27          12.3870148576         337.0678104718       g        Ag (1)
  135   106          13.6559247318         371.5966035596      Hg       B1g (4)
  136   172          13.6559247318         371.5966035596      Hg       B2g (7)
  137   152          13.6559247318         371.5966035596      Hg       B3g (6)
  138    28          13.6559247318         371.5966035596      Hg        Ag (1)
  139    29          13.6559247318         371.5966035596      Hg        Ag (1)
  140    30          19.1023401456         519.8011015405      Ag        Ag (1)
  141    61          21.7805622914         592.6792311776     T1u       B2u (2)
  142   133          21.7805622914         592.6792311776     T1u       B1u (5)
  143    87          21.7805622914         592.6792311776     T1u       B3u (3)
  144   153          22.1009204711         601.3966204325    XXXX      XXXX (6)
  145   173          22.1009204711         601.3966204325    XXXX      XXXX (7)
  146   174          22.1009204711         601.3966204325    XXXX      XXXX (7)
  147   154          22.1009204711         601.3966204325    XXXX      XXXX (6)
  148   107          22.1009204711         601.3966204325    XXXX      XXXX (4)
  149   108          22.1009204711         601.3966204325    XXXX      XXXX (4)
  150   155          22.1009204711         601.3966204325    XXXX      XXXX (6)
  151   175          22.1009204711         601.3966204325    XXXX      XXXX (7)
  152    31          22.1009204711         601.3966204325    XXXX      XXXX (1)
  153   109          22.1009204711         601.3966204325    XXXX      XXXX (4)
  154    32          22.1009204711         601.3966204325    XXXX      XXXX (1)
  155    33          22.1009204711         601.3966204325    XXXX      XXXX (1)
  156    34          22.1009204711         601.3966204325    XXXX      XXXX (1)
  157    62          26.1525016171         711.6457483732               B2u (2)
  158    88          26.1525016171         711.6457483732               B3u (3)
  159   134          26.1525016171         711.6457483732               B1u (5)
  160    89          26.1525016171         711.6457483732               B2u (3)
  161    63          26.1525016171         711.6457483732               B3u (2)
  162   135          26.1525016171         711.6457483732               B1u (5)
  163    90          26.1525016171         711.6457483732               B3u (3)
  164   187          26.1525016171         711.6457483732                Au (8)
  165   188          26.1525016171         711.6457483732                Au (8)
  166    64          26.1525016171         711.6457483732               B2u (2)
  167   136          26.1525016171         711.6457483732               B1u (5)
  168   137          27.7925447946         756.2735920662       u       B1u (5)
  169    65          27.7925447946         756.2735920662       u       B2u (2)
  170    91          27.7925447946         756.2735920662       u       B3u (3)
  171   138          27.7925447946         756.2735920662       u       B1u (5)
  172    66          27.7925447946         756.2735920662       u       B2u (2)
  173    92          27.7925447946         756.2735920662       u       B3u (3)
  174   189          27.7925447946         756.2735920662       u        Au (8)
  175   176          30.8056462252         838.2642503178       g       B2g (7)
  176   156          30.8056462252         838.2642503178       g       B3g (6)
  177    35          30.8056462252         838.2642503178       g        Ag (1)
  178   177          30.8056462252         838.2642503178       g       B2g (7)
  179    36          30.8056462252         838.2642503178       g        Ag (1)
  180   110          30.8056462252         838.2642503178       g       B1g (4)
  181   111          30.8056462252         838.2642503178       g       B1g (4)
  182   157          30.8056462252         838.2642503178       g       B3g (6)
  183    37          30.8056462252         838.2642503178       g        Ag (1)
  184    38          33.8210278309         920.3169552882      Hg        Ag (1)
  185    39          33.8210278309         920.3169552882      Hg        Ag (1)
  186   112          33.8210278309         920.3169552882      Hg       B1g (4)
  187   178          33.8210278309         920.3169552882      Hg       B2g (7)
  188   158          33.8210278309         920.3169552882      Hg       B3g (6)
  189    40          98.7387389790        2686.8176827905      Ag        Ag (1)


  VSCF finished.

 @CHECKOUT-I, Total execution time (CPU/WALL):        9.99/       3.55 seconds.
--executable xvscf finished with status     0 in        3.59 seconds (walltime).
 --invoking executable--
/cvmfs/restricted.computecanada.ca/easybuild/software/2020/avx2/Compiler/intel2020/cfour/2.1/bin/xvtran
 @GETMEM-I,  Allocated   19073 MB of main memory.
  Full UHF integral transformation
  The following   1 alpha MOs will be dropped.
    1
  There are 188 active alpha molecular orbitals.
  The following   1 beta MOs will be dropped.
    1
  There are 188 active beta molecular orbitals.
  Transformation of IIII integrals :
  2 passes through the AO integral file were required.
      482321 AO integrals were read.
      558594 MO integrals (Spin case AAAA) were written to HF2AA.
      558594 MO integrals (Spin case BBBB) were written to HF2BB.
     1114659 MO integrals (Spin case AABB) were written to HF2AB.
  Transformation of IIJJ integrals :
  2 passes through the AO integral file were required.
     2366897 AO integrals were read.
     2640591 MO integrals (Spin case AAAA) were written to HF2AA.
     2640591 MO integrals (Spin case BBBB) were written to HF2BB.
     5281182 MO integrals (Spin case AABB) were written to HF2AB.
  Transformation of IJIJ integrals :
  2 passes through the AO integral file were required.
     4119775 AO integrals were read.
     4892091 MO integrals (Spin case AAAA) were written to HF2AA.
     4892091 MO integrals (Spin case BBBB) were written to HF2BB.
     9768945 MO integrals (Spin case AABB) were written to HF2AB.
  Transformation of IJKL integrals :
  2 passes through the AO integral file were required.
    10122549 AO integrals were read.
    11732448 MO integrals (Spin case AAAA) were written to HF2AA.
    11732448 MO integrals (Spin case BBBB) were written to HF2BB.
    23464896 MO integrals (Spin case AABB) were written to HF2AB.
  Summary of active molecular orbitals: 
------------------------------------------------------------------------
                         * Spin case alpha *
 
  Index      Eigenvalue    Symmetry    Index      Eigenvalue    Symmetry
------------------------------------------------------------------------
     1        -2.0585097        1        95         1.6654766        4
     2        -1.3269140        2        96         1.6654766        4
     3        -1.3269140        3        97         2.0587225        4
     4        -1.3269140        5        98         4.8974026        4
     5        -0.1449285        1        99         4.8974026        4
     6         0.0869518        1       100         5.3937496        4
     7         0.0869518        1       101         8.8261629        4
     8         0.2485826        1       102         8.8261629        4
     9         0.6660345        1       103         8.8261629        4
    10         0.6660345        1       104        12.3166949        4
    11         1.5873941        1       105        12.3166949        4
    12         1.6654766        1       106        13.5227806        4
    13         1.6654766        1       107        22.0613410        4
    14         1.6654766        1       108        22.0613410        4
    15         2.0587225        1       109        22.0613410        4
    16         2.0587225        1       110        30.7294078        4
    17         4.8974026        1       111        30.7294078        4
    18         4.8974026        1       112        33.7367378        4
    19         4.8974026        1       113        -0.0991681        5
    20         5.3937496        1       114         0.0877620        5
    21         5.3937496        1       115         0.5010615        5
    22         5.6897150        1       116         0.5010615        5
    23         8.8261629        1       117         0.7156386        5
    24         8.8261629        1       118         1.8438677        5
    25         8.8261629        1       119         1.8438677        5
    26         8.8261629        1       120         2.4776488        5
    27        12.3166949        1       121         3.9713006        5
    28        12.3166949        1       122         3.9713006        5
    29        12.3166949        1       123         3.9713006        5
    30        13.5227806        1       124         4.8196139        5
    31        13.5227806        1       125         4.8196139        5
    32        19.0116178        1       126         7.0280647        5
    33        22.0613410        1       127        10.2032583        5
    34        22.0613410        1       128        10.2032583        5
    35        22.0613410        1       129        10.2032583        5
    36        22.0613410        1       130        11.5632312        5
    37        30.7294078        1       131        11.5632312        5
    38        30.7294078        1       132        21.6889131        5
    39        30.7294078        1       133        26.0923925        5
    40        33.7367378        1       134        26.0923925        5
    41        33.7367378        1       135        26.0923925        5
    42        98.7072281        1       136        27.7006438        5
    43        -0.0991681        2       137        27.7006438        5
    44         0.0877620        2       138         0.0869518        6
    45         0.5010615        2       139         0.6660345        6
    46         0.5010615        2       140         1.6654766        6
    47         0.7156386        2       141         1.6654766        6
    48         1.8438677        2       142         2.0587225        6
    49         1.8438677        2       143         4.8974026        6
    50         2.4776488        2       144         4.8974026        6
    51         3.9713006        2       145         5.3937496        6
    52         3.9713006        2       146         8.8261629        6
    53         3.9713006        2       147         8.8261629        6
    54         4.8196139        2       148         8.8261629        6
    55         4.8196139        2       149        12.3166949        6
    56         7.0280647        2       150        12.3166949        6
    57        10.2032583        2       151        13.5227806        6
    58        10.2032583        2       152        22.0613410        6
    59        10.2032583        2       153        22.0613410        6
    60        11.5632312        2       154        22.0613410        6
    61        11.5632312        2       155        30.7294078        6
    62        21.6889131        2       156        30.7294078        6
    63        26.0923925        2       157        33.7367378        6
    64        26.0923925        2       158         0.0869518        7
    65        26.0923925        2       159         0.6660345        7
    66        27.7006438        2       160         1.6654766        7
    67        27.7006438        2       161         1.6654766        7
    68        -0.0991681        3       162         2.0587225        7
    69         0.0877620        3       163         4.8974026        7
    70         0.5010615        3       164         4.8974026        7
    71         0.5010615        3       165         5.3937496        7
    72         0.7156386        3       166         8.8261629        7
    73         1.8438677        3       167         8.8261629        7
    74         1.8438677        3       168         8.8261629        7
    75         2.4776488        3       169        12.3166949        7
    76         3.9713006        3       170        12.3166949        7
    77         3.9713006        3       171        13.5227806        7
    78         3.9713006        3       172        22.0613410        7
    79         4.8196139        3       173        22.0613410        7
    80         4.8196139        3       174        22.0613410        7
    81         7.0280647        3       175        30.7294078        7
    82        10.2032583        3       176        30.7294078        7
    83        10.2032583        3       177        33.7367378        7
    84        10.2032583        3       178         0.5010615        8
    85        11.5632312        3       179         1.8438677        8
    86        11.5632312        3       180         3.9713006        8
    87        21.6889131        3       181         3.9713006        8
    88        26.0923925        3       182         4.8196139        8
    89        26.0923925        3       183        10.2032583        8
    90        26.0923925        3       184        10.2032583        8
    91        27.7006438        3       185        11.5632312        8
    92        27.7006438        3       186        26.0923925        8
    93         0.0869518        4       187        26.0923925        8
    94         0.6660345        4       188        27.7006438        8
------------------------------------------------------------------------
------------------------------------------------------------------------
                         * Spin case beta *
 
  Index      Eigenvalue    Symmetry    Index      Eigenvalue    Symmetry
------------------------------------------------------------------------
     1        -1.5425811        1        95         1.6719723        4
[...]
   22.0613409875328        22.0613409875328        22.0613409875329     
   30.7294077515316        30.7294077515316        33.7367377586244     
  0.501061480616573        1.84386765394590        3.97130062334097     
   3.97130062334099        4.81961394492738        10.2032582795740     
   10.2032582795740        11.5632312101943        26.0923924892822     
   26.0923924892823        27.7006438065267     
  -1.54258113425835      -0.131991731860730       9.540618816037695E-002
  9.540618816037943E-002  0.284419920501853       0.725849951852290     
  0.725849951852296        1.67142412366120        1.67197233463478     
   1.67197233463478        1.67197233463479        2.19415633180372     
   2.19415633180373        4.93233986912648        4.93233986912648     
   4.93233986912649        5.55397383343603        5.55397383343605     
   5.80379215217355        8.84384278448223        8.84384278448227     
   8.84384278448228        8.84384278448229        12.3870148576060     
   12.3870148576060        12.3870148576060        13.6559247318374     
   13.6559247318374        19.1023401456496        22.1009204711181     
   22.1009204711182        22.1009204711182        22.1009204711182     
   30.8056462251662        30.8056462251663        30.8056462251663     
   33.8210278308822        33.8210278308822        98.7387389790167     
 -0.383173372447822      -8.362955721057073E-002  0.132976174948943     
  0.504473208733925       0.504473208733940       0.815111983193617     
   1.87363880571742        1.87363880571743        2.61182076535912     
   3.98203548389683        3.98203548389683        3.98203548389684     
   4.89800926828051        4.89800926828053        7.16146007713493     
   10.2392172277415        10.2392172277415        10.2392172277417     
   11.6683617750210        11.6683617750210        21.7805622913522     
   26.1525016171414        26.1525016171414        26.1525016171415     
   27.7925447945504        27.7925447945505      -0.383173372447824     
 -8.362955721055594E-002  0.132976174948928       0.504473208733940     
  0.504473208733941       0.815111983193587        1.87363880571742     
   1.87363880571743        2.61182076535909        3.98203548389682     
   3.98203548389683        3.98203548389683        4.89800926828049     
   4.89800926828051        7.16146007713486        10.2392172277415     
   10.2392172277416        10.2392172277417        11.6683617750210     
   11.6683617750210        21.7805622913543        26.1525016171414     
   26.1525016171414        26.1525016171414        27.7925447945504     
   27.7925447945505       9.540618816038005E-002  0.725849951852295     
   1.67197233463478        1.67197233463479        2.19415633180372     
   4.93233986912650        4.93233986912651        5.55397383343604     
   8.84384278448221        8.84384278448223        8.84384278448226     
   12.3870148576060        12.3870148576060        13.6559247318373     
   22.1009204711180        22.1009204711181        22.1009204711181     
   30.8056462251663        30.8056462251663        33.8210278308823     
 -0.383173372447810      -8.362955721055185E-002  0.132976174948937     
  0.504473208733939       0.504473208733940       0.815111983193533     
   1.87363880571742        1.87363880571744        2.61182076535899     
   3.98203548389681        3.98203548389682        3.98203548389682     
   4.89800926828052        4.89800926828054        7.16146007713489     
   10.2392172277415        10.2392172277415        10.2392172277417     
   11.6683617750210        11.6683617750211        21.7805622913537     
   26.1525016171414        26.1525016171414        26.1525016171415     
   27.7925447945504        27.7925447945504       9.540618816038016E-002
  0.725849951852302        1.67197233463478        1.67197233463479     
   2.19415633180374        4.93233986912651        4.93233986912653     
   5.55397383343604        8.84384278448222        8.84384278448224     
   8.84384278448228        12.3870148576060        12.3870148576060     
   13.6559247318373        22.1009204711180        22.1009204711180     
   22.1009204711181        30.8056462251662        30.8056462251663     
   33.8210278308824       9.540618816036739E-002  0.725849951852274     
   1.67197233463477        1.67197233463479        2.19415633180371     
   4.93233986912649        4.93233986912652        5.55397383343601     
   8.84384278448221        8.84384278448223        8.84384278448227     
   12.3870148576060        12.3870148576060        13.6559247318373     
   22.1009204711180        22.1009204711180        22.1009204711181     
   30.8056462251662        30.8056462251662        33.8210278308824     
  0.504473208733934        1.87363880571742        3.98203548389681     
   3.98203548389681        4.89800926828052        10.2392172277416     
   10.2392172277416        11.6683617750210        26.1525016171414     
   26.1525016171415        27.7925447945505     
 @CHECKOUT-I, Total execution time (CPU/WALL):       41.17/     178.10 seconds.
--executable xvtran finished with status     0 in      178.15 seconds (walltime).
 --invoking executable--
/cvmfs/restricted.computecanada.ca/easybuild/software/2020/avx2/Compiler/intel2020/cfour/2.1/bin/xintprc
 @GETMEM-I,  Allocated   19073 MB of main memory.
  @GMOIAA-I, Processing MO integrals for spin case AA.
  @GMOIAA-I, Generation of integral list completed.
                      TYPE                NUMBER
                      ----               --------
                      PPPP              18185494
                      PPPH               1579844
                      PPHH                 35028
                      PHPH                 22338
                      PHHH                  1004
                      HHHH                    16

                     TOTAL              19823724
  @GMOIAA-I, Processing MO integrals for spin case BB.
  @GMOIAA-I, Generation of integral list completed.
                      TYPE                NUMBER
                      ----               --------
                      PPPP              19399663
                      PPPH                419042
                      PPHH                  2490
                      PHPH                  2490
                      PHHH                    38
                      HHHH                     1

                     TOTAL              19823724
  @GMOIAB-I, Processing MO integrals for spin case AB.
                      TYPE                NUMBER
                      ----               --------
                      PPPP              37548124
                      PPPH1H             1632086
                      PPPH2H              405614
                      PPHH                 17969
                      PHPH1P                2412
                      PHPH2P               23070
                      PHHH1P                 113
                      PHHH2P                 290
                      HHHH                     4

                     TOTAL              39629682

  @FORMT2-I, Second-order MP correlation energies:
  @FORMT2-I, Singles contribution will be calculated.
            ------------------------------------------------
            E(SCF)                  =    -74.372586003295 a.u.
            E2(AA)                  =     -0.032409016581 a.u.
            E2(BB)                  =      0.000000000000 a.u.
            E2(AB)                  =     -0.081305431950 a.u.
            E2(SINGLE)              =     -0.002989275633 a.u.
            E2(TOT)                 =     -0.113714448531 a.u.
            Total MP2 energy        =    -74.489289727459 a.u.
            ------------------------------------------------
            ----------------------------------------------
                     Projected spin multiplicities: 
            ----------------------------------------------
             <0|S^2|0>                  =    3.7500000000.
             <0|S^2 T2|0>               =    0.0000000000.
             Projected <0|S^2 exp(T)|0> =    3.7500000000.
             Approximate spin mult.     =    4.0000000000.
            ----------------------------------------------
   Largest T2 amplitudes for spin case AA:
   i   j   a   b             i   j   a   b             i   j   a   b
-----------------------------------------------------------------------------
[  3   2  97  15]-0.01007 [  4   2 117  47]-0.00976 [  3   2  72  47]-0.00976
[  4   3 117  72]-0.00976 [  4   2 142  16] 0.00936 [  3   2  94   9] 0.00861
[  3   2  94  15] 0.00832 [  3   2  97   9]-0.00827 [  4   3 159  10] 0.00819
[  4   3 162  16] 0.00808 [  4   3 162  10]-0.00787 [  4   2 139  16]-0.00774
[  4   2 120  47]-0.00760 [  4   3 120  72]-0.00760 [  3   2  75  47]-0.00760
-----------------------------------------------------------------------------
   Norm of T2AA vector (    12690 symmetry allowed elements):  0.0681256996.
-----------------------------------------------------------------------------
   Largest T2 amplitudes for spin case AB:
       _       _                 _       _                 _       _
   i   j   a   b             i   j   a   b             i   j   a   b
-----------------------------------------------------------------------------
[  4   1  16 112] 0.01998 [  4   1  10 112]-0.01881 [  3   1  15  66]-0.01858
[  2   1   9  40] 0.01790 [  3   1 162 112] 0.01744 [  4   1 162  66] 0.01744
[  2   1  97  66] 0.01744 [  2   1 142 112] 0.01744 [  3   1  97  40] 0.01744
[  4   1 142  40] 0.01744 [  2   1 139 112]-0.01653 [  4   1 139  40]-0.01653
[  2   1  94  66]-0.01653 [  3   1  94  40]-0.01653 [  4   1 159  66]-0.01653
-----------------------------------------------------------------------------
   Norm of T2AB vector (    17969 symmetry allowed elements):  0.1173751356.
-----------------------------------------------------------------------------
 @CHECKOUT-I, Total execution time (CPU/WALL):       14.03/      13.97 seconds.
--executable xintprc finished with status     0 in       14.08 seconds (walltime).
  calling xvcc 
 --invoking executable--
/cvmfs/restricted.computecanada.ca/easybuild/software/2020/avx2/Compiler/intel2020/cfour/2.1/bin/xvcc
 @GETMEM-I,  Allocated   19073 MB of main memory.
   CCSDT   energy will be calculated.
   The reference state is a ROHF wave function.
   The total correlation energy is -0.116759581846 a.u.
  transposing abij 
   The total correlation energy is -0.127877860990 a.u.
  Convergence information after     1 iterations: 
  Largest element of residual vector : -0.43491177E-02.
  Largest element of DIIS residual   : -0.43491177E-02.
  transposing abij 
   The total correlation energy is -0.130334599002 a.u.
  Convergence information after     2 iterations: 
  Largest element of residual vector : -0.14054201E-02.
  Largest element of DIIS residual   :  0.66491807E-03.
  transposing abij 
   The total correlation energy is -0.131170351139 a.u.
  Convergence information after     3 iterations: 
  Largest element of residual vector : -0.33000347E-03.
  Largest element of DIIS residual   : -0.37504537E-03.
  transposing abij 
   The total correlation energy is -0.131264554193 a.u.
  Convergence information after     4 iterations: 
  Largest element of residual vector : -0.12728802E-03.
  Largest element of DIIS residual   : -0.76101791E-04.
  transposing abij 
   The total correlation energy is -0.131278305825 a.u.
  Convergence information after     5 iterations: 
  Largest element of residual vector : -0.37797091E-04.
  Largest element of DIIS residual   :  0.13095476E-04.
  transposing abij 
   The total correlation energy is -0.131278830131 a.u.
  Convergence information after     6 iterations: 
  Largest element of residual vector : -0.81971600E-05.
  Largest element of DIIS residual   : -0.60449515E-05.
  transposing abij 
   The total correlation energy is -0.131279393675 a.u.
  Convergence information after     7 iterations: 
  Largest element of residual vector : -0.17174646E-05.
  Largest element of DIIS residual   : -0.30882830E-06.
  transposing abij 
   The total correlation energy is -0.131279561227 a.u.
  Convergence information after     8 iterations: 
  Largest element of residual vector : -0.20594479E-06.
  Largest element of DIIS residual   : -0.92252516E-07.
  transposing abij 
   The total correlation energy is -0.131279567157 a.u.
  Convergence information after     9 iterations: 
  Largest element of residual vector : -0.79421263E-07.
  Largest element of DIIS residual   : -0.47289367E-07.
  transposing abij 
   The total correlation energy is -0.131279570287 a.u.
  Convergence information after    10 iterations: 
  Largest element of residual vector : -0.13352781E-07.
  Largest element of DIIS residual   : -0.99352498E-08.
  transposing abij 
   The total correlation energy is -0.131279572505 a.u.
  Convergence information after    11 iterations: 
  Largest element of residual vector : -0.65032976E-08.
  Largest element of DIIS residual   :  0.41455780E-08.
  transposing abij 
   The total correlation energy is -0.131279573860 a.u.
  Convergence information after    12 iterations: 
  Largest element of residual vector : -0.73709691E-09.
  Largest element of DIIS residual   : -0.63397173E-09.
  transposing abij 
   The total correlation energy is -0.131279574235 a.u.
  Convergence information after    13 iterations: 
  Largest element of residual vector : -0.71530046E-09.
  Largest element of DIIS residual   : -0.25429045E-09.
  transposing abij 
   The total correlation energy is -0.131279574399 a.u.
  Convergence information after    14 iterations: 
  Largest element of residual vector :  0.17903827E-09.
  Largest element of DIIS residual   :  0.12363394E-09.
  transposing abij 
   The total correlation energy is -0.131279574449 a.u.
  Convergence information after    15 iterations: 
  Largest element of residual vector : -0.61253877E-10.
  Largest element of DIIS residual   : -0.18773229E-10.
  Amplitude equations converged in    15iterations.
   The total correlation energy is -0.131279574458 a.u.
   The CC iterations have converged.

            ----------------------------------------------
                     Projected spin multiplicities: 
            ----------------------------------------------
             <0|S^2|0>                  =    3.7500000000.
             <0|S^2 (T2+T1**2) |0>      =    0.0000000000.
             <0|S^2 T1|0>               =   -0.0000000000.
             Projected <0|S^2 exp(T)|0> =    3.7500000000.
             Approximate spin mult.     =    4.0000000000.
            ----------------------------------------------
   Largest T1 amplitudes for spin case AA:
   i       a                 i       a                 i       a    
-----------------------------------------------------------------------------
[  1       8    ]-0.01818 [  1       5    ] 0.01419 [  1      11    ] 0.01396
[  1      22    ]-0.00314 [  4     120    ] 0.00159 [  3      75    ] 0.00159
[  2      50    ] 0.00159 [  2      47    ] 0.00090 [  4     117    ] 0.00090
[  3      72    ] 0.00090 [  4     113    ]-0.00067 [  2      43    ]-0.00067
[  3      68    ]-0.00067 [  2      56    ] 0.00053 [  3      81    ] 0.00053
-----------------------------------------------------------------------------
   Norm of T1AA vector (      113 symmetry allowed elements):  0.0273775027.
-----------------------------------------------------------------------------
   Largest T2 amplitudes for spin case AA:
   i   j   a   b             i   j   a   b             i   j   a   b
-----------------------------------------------------------------------------
[  4   2 117  47]-0.01152 [  3   2  72  47]-0.01152 [  4   3 117  72]-0.01152
[  3   2  97  15]-0.01051 [  4   2 142  16] 0.00977 [  3   2  94   9] 0.00895
[  4   3 120  72]-0.00883 [  4   2 120  47]-0.00883 [  3   2  75  47]-0.00883
[  4   2 117  50]-0.00883 [  3   2  72  50]-0.00883 [  4   3 117  75]-0.00883
[  3   2  94  15] 0.00869 [  3   2  97   9]-0.00863 [  4   3 159  10] 0.00851
-----------------------------------------------------------------------------
   Norm of T2AA vector (    12690 symmetry allowed elements):  0.0751756740.
-----------------------------------------------------------------------------
   Largest T1 amplitudes for spin case BB:
   i       a                 i       a                 i       a    
-----------------------------------------------------------------------------
[  1       5    ] 0.02129 [  1       2    ]-0.01782 [  1       8    ]-0.01232
[  1      19    ] 0.00114 [  1      29    ] 0.00058 [  1      39    ]-0.00004
[  1      11    ] 0.00000 [  1       9    ] 0.00000 [  1      10    ]-0.00000
[  1      28    ] 0.00000 [  1      38    ] 0.00000 [  1      18    ] 0.00000
[  1      37    ] 0.00000 [  1      26    ]-0.00000 [  1      17    ] 0.00000
-----------------------------------------------------------------------------
   Norm of T1BB vector (       38 symmetry allowed elements):  0.0304015748.
-----------------------------------------------------------------------------
   Largest T2 amplitudes for spin case AB:
       _       _                 _       _                 _       _
   i   j   a   b             i   j   a   b             i   j   a   b
-----------------------------------------------------------------------------
[  4   1  10 112]-0.02538 [  4   1  16 112] 0.02474 [  2   1   9  40] 0.02415
[  3   1  15  66]-0.02301 [  2   1 139 112]-0.02230 [  4   1 139  40]-0.02230
[  2   1  94  66]-0.02230 [  3   1  94  40]-0.02230 [  4   1 159  66]-0.02230
[  3   1 159 112]-0.02230 [  3   1 162 112] 0.02160 [  4   1 162  66] 0.02160
[  2   1  97  66] 0.02160 [  2   1 142 112] 0.02160 [  3   1  97  40] 0.02160
-----------------------------------------------------------------------------
   Norm of T2AB vector (    17969 symmetry allowed elements):  0.1453593445.
-----------------------------------------------------------------------------
       Summary of iterative solution of CC equations 
      -----------------------------------------------------------
                       Correlation           Total
       Iteration         Energy              Energy
      -----------------------------------------------------------
            0        -0.116759581846     -74.489345585142  DIIS 
            1        -0.127877860990     -74.500463864285  DIIS 
            2        -0.130334599002     -74.502920602298  DIIS 
            3        -0.131170351139     -74.503756354434  DIIS 
            4        -0.131264554193     -74.503850557488  DIIS 
            5        -0.131278305825     -74.503864309120  DIIS 
            6        -0.131278830131     -74.503864833426  DIIS 
            7        -0.131279393675     -74.503865396970  DIIS 
            8        -0.131279561227     -74.503865564522  DIIS 
            9        -0.131279567157     -74.503865570453  DIIS 
           10        -0.131279570287     -74.503865573583  DIIS 
           11        -0.131279572505     -74.503865575800  DIIS 
           12        -0.131279573860     -74.503865577155  DIIS 
           13        -0.131279574235     -74.503865577531  DIIS 
           14        -0.131279574399     -74.503865577694  DIIS 
           15        -0.131279574458     -74.503865577754  DIIS 
      -----------------------------------------------------------
      A miracle has come to pass. The CC iterations have converged.
      The reference energy is       -74.37258600329544 a.u.
      The correlation energy is      -0.13127957445811 a.u.
      The total energy is           -74.50386557775356 a.u.
 @CHECKOUT-I, Total execution time (CPU/WALL):     1521.87/     493.49 seconds.
--executable xvcc finished with status     0 in      493.54 seconds (walltime).
  The final electronic energy is       -74.503865577753558 a.u. 
  This computation required                          740.02 seconds (walltime).
Program finished with exit code 0 at: Tue Mar 19 10:49:14 EDT 2024

