Starting run at: Mon Mar 25 10:41:36 EDT 2024
 --invoking executable--
/cvmfs/restricted.computecanada.ca/easybuild/software/2020/avx2/Compiler/intel2020/cfour/2.1/bin/xjoda


   *************************************************************************
         <<<     CCCCCC     CCCCCC   |||     CCCCCC     CCCCCC   >>>
       <<<      CCC        CCC       |||    CCC        CCC         >>>
      <<<      CCC        CCC        |||   CCC        CCC            >>>
    <<<        CCC        CCC        |||   CCC        CCC              >>>
      <<<      CCC        CCC        |||   CCC        CCC            >>>
       <<<      CCC        CCC       |||    CCC        CCC         >>>
         <<<     CCCCCC     CCCCCC   |||     CCCCCC     CCCCCC   >>>
   *************************************************************************

     ****************************************************************
     * CFOUR Coupled-Cluster techniques for Computational Chemistry *
     ****************************************************************
 

   Department of Chemistry                Institut fuer Physikalische Chemie
   University of Florida                  Universitaet Mainz
   Gainesville, FL 32611, USA             D-55099 Mainz, Germany

   Department of Chemistry                Fakultaet fuer Chemie und Biowiss.
   Johns Hopkins University               Karlsruher Institut fuer Technologie
   Baltimore, MD 21218, USA               D-76131 Karlsruhe, Germany

   Department of Chemistry                Department of Physical Chemistry
   Southern Methodist University          Eotvos Lorand University
   Dallas, TX 75275, USA                  H-1053 Budapest, Hungary

 
                       Version 2.1
 
                     gra283                                            
                     Mon Mar 25 10:41:37 EDT 2024                      
                     integer*8 version is running
 
********************************************************************************
*                          Input from ZMAT file                                *
********************************************************************************
TITLE                                                                           
O                                                                               
                                                                                
*ACES2(CALC=CCSDT                                                               
FROZEN_CORE=ON                                                                  
#DROPMO=1                                                                       
#INPUT_MRCC=OFF                                                                 
#CC_PROG=MRCC                                                                   
XFORM_TOL=18                                                                    
SAVE_INTS=ON                                                                    
SCF_EXPORDER=6                                                                  
SCF_EXPSTART=5                                                                  
#SCF_DAMPING=1000                                                               
SCF_EXTRAPOLATION=ON                                                            
SCF_CONV=10                                                                     
SCF_MAXCYC=9999                                                                 
CC_CONV=10                                                                      
CC_MAXCYC=999                                                                   
T3_EXTRAPOL=ON                                                                  
REFERENCE=ROHF                                                                  
CHARGE=+1                                                                       
MULT=4                                                                          
ABCDTYPE=STANDARD                                                               
OCCUPATION=2-1-1-0-1-0-0-0/2-0-0-0-0-0-0-0                                      
MEM=20                                                                          
MEM_UNIT=GB                                                                     
BASIS=SPECIAL)                                                                  
                                                                                
O:aV6Z-MOLP                                                                     
                                                                                
********************************************************************************
  @GTFLGS-W, Keyword #DROPMO not known and is ignored.
  @GTFLGS-W, Keyword #INPUT_MRCC not known and is ignored.
  @GTFLGS-W, Keyword #CC_PROG not known and is ignored.
  @GTFLGS-W, Keyword #SCF_DAMPING not known and is ignored.
    -------------------------------------------------------------------
                    CFOUR Control Parameters 
    -------------------------------------------------------------------
        External           Internal           Value            Units
          Name               Name
    -------------------------------------------------------------------
       ABCDTYPE             IABCDT         STANDARD    [  0]    ***   
       ANHARMONIC           IANHAR         OFF         [  0]    ***   
       ANH_ALGORIT          IANALG         STANDARD    [  0]    ***   
       ANH_DERIVAT          IANDER         SECOND      [  1]    ***   
       ANH_MODE             ANHMOD         VIBRATION   [  0]    ***   
       ANH_STEPSIZ          ICUBST             50000          x 10-6  
       ANH_SYMMETR          IANHSM         ABELIAN     [  0]    ***   
       AO_LADDERS           IAOLAD         SINGLEPASS  [  1]    ***   
       AV_SCF               IAVSCF         OFF         [  0]    ***   
       BASIS                IBASIS         SPECIAL     [  0]    ***   
       BOTHVECTORS          BOTHVC         OFF         [  0]    ***   
       BOX_POTENT           IPIAB          OFF         [  0]    ***   
       BREIT                IBREIT         OFF         [  0]    ***   
       BRUCK_CONV           IBRTOL          10D-  4             ***   
       BRUECKNER            IBRKNR         OFF         [  0]    ***   
       BUFFERSIZE           IBUFFS              4096            ***   
       CACHE_RECS           ICHREC             10               ***   
       CALCLEVEL            ICLLVL         CCSDT       [ 18]    ***   
       CCORBOPT             ICCORB         OFF         [  0]  x 0.01  
       CC_CONV              ICCCNV          10D- 10             ***   
       CC_EXPORDER          ICCEOR              5               ***   
       CC_EXTRAPOL          ICCEXT         DIIS        [  1]    ***   
       CC_GUESS             ICCGES         MP2         [  0]    ***   
       CC_MAXCYC            ICCCYC            999              cycles 
       CC_PROGRAM           ICCPRO         VCC         [  0]    ***   
       CHARGE               ICHRGE              1               ***   
       CHOLESKY             ICHOLE         OFF         [  0]    ***   
       CIS_CONV             ICISTL              5               ***   
       COMM_SIZE            IPSIZE            ***               ***   
       CONSTANT             ICONST         OLD         [  1]    ***   
       CONTINUUM            ICONTU         NONE        [  0]    ***   
       CONTRACTION          ICNTYP         GENERAL     [  1]    ***   
       COORDINATES          ICOORD         INTERNAL    [  0]    ***   
       CPHF_CONVER          ICPHFT          10D- 16             ***   
       CPHF_MAXCYC          ICPHFC             64              cycles 
       CUBIC                ICUBIC         OFF         [  0]    ***   
       CURVILINEAR          ICURVY         OFF         [  0]    ***   
       DBOC                 IDBOC          OFF         [  0]    ***   
       DCT                  IDCT           OFF         [  0]    ***   
       DERIV_LEV            IDRLVL         ZERO        [  0]    ***   
       DEVMEM_SIZE          IDVMEM         *********           MByte  
       DIAG_MRCC            IEOMST          10D-  0             ***   
       DIFF_TYPE            IDIFTY         RELAXED     [  0]    ***   
       DIRECT               IDIRCT         OFF         [  0]    ***   
       DROPMO               IDRPMO      NONE         
       ECP                  IECP           OFF         [  0]    ***   
       EIGENVECTOR          IVEC                1               ***   
       EL_ANHARM            IELANH         OFF         [  0]    ***   
       EOMFOLLOW            IEOMSR         ENERGY      [  0]    ***   
       EOMIP                IEOMIP         OFF         [  0]    ***   
       EOMLEVEL             HBARFM         SAME        [  0]    ***   
       EOM_MRCC             IMRCCE         NEW         [  1]    ***   
       EOM_NONIT            EOMNON         OFF         [  0]    ***   
       EOM_NSING            IEOMSI          10D-  0             ***   
       EOM_NSTATES          IMRCCD         DAVIDSON    [  0]    ***   
       EOM_NTRIP            IEOMTR          10D-  0             ***   
       EOM_ORDER            IEXORD         ENERGY      [  0]    ***   
       EOM_PROPSTA          IEOMST              0               ***   
       ESTATE_CONV          IEXTOL          10D-  5             ***   
       ESTATE_DIAG          IEXDIG         ITERATIVE   [  0]    ***   
       ESTATE_LOCK          IESLOC         ON          [  1]    ***   
       ESTATE_MAXC          IEXMXC             40               ***   
       ESTATE_PROP          IEXPRP         OFF         [  0]    ***   
       EVAL_HESS            IRECAL              0            # of cyc.
       EXCITATION           IEXCIT              0               ***   
       EXCITE               IEXCIT         NONE        [  0]    ***   
       EXTERN_POT           IEXPOT         OFF         [  0]    ***   
       FCGRADNEW            IFCGNW         OFF         [  0]    ***   
       FC_FIELD             IFINFC              0             x 10-6  
       FD_CALTYPE           IFDCAL         GRADONLY    [  0]    ***   
       FD_PROJECT           IFDPRJ         OFF         [  1]    ***   
       FD_STEPSIZE          IDISFD              0            10-4 bohr
       FD_USEGROUP          IFDGRP         FULL        [  0]    ***   
       FILE_RECSIZ          IFLREC              4096           words  
       FINITE_PERT          IFIPER              0             x 10-6  
       FIXGEOM              IFIXGM         OFF         [  0]    ***   
       FOCK                 IFOCK          AO          [  1]    ***   
       FREQ_ALGORI          IVIALG         STANDARD    [  0]    ***   
       FROZEN_CORE          IFROCO         ON          [  1]    ***   
       GAMMA_ABCD           IGABCD         STORE       [  0]    ***   
       GAMMA_ABCI           IGABCI         STORE       [  0]    ***   
       GENBAS_1             IGNBS1              0               ***   
       GENBAS_2             IGNBS2              0               ***   
       GENBAS_3             IGNBS3              0               ***   
       GENBAS_4             IGNBS4              0               ***   
       GEO_CONV             ICONTL              5              H/bohr 
       GEO_MAXCYC           IOPTCY             50               ***   
       GEO_MAXSTEP          IMXSTP            300            millibohr
       GEO_METHOD           INR            SINGLE_POINT[  5]    ***   
       GIAO                 IGIAO          OFF         [  1]    ***   
       GIMIC                IGIMIC         OFF         [  0]    ***   
       GRID                 IGRID          OFF         [  0]    ***   
       GRID_ALGO            IGALGO         SERIAL      [  0]    ***   
       GUESS                IGUESS         MOREAD      [  0]    ***   
       HBAR                 IHBAR          OFF         [  0]    ***   
       HESS_TYPE            IHESTP         SCF         [  0]    ***   
       HF2_FILE             IHF2Fl         USE         [  1]    ***   
       HFSTABILITY          ISTABL         OFF         [  0]    ***   
       INCORE               INCORE         OFF         [  0]    ***   
       INPUT_MRCC           IMRCC          ON          [  1]    ***   
       INTEGRALS            INTTYP         VMOL        [  1]    ***   
       JODA_PRINT           IJPRNT              0               ***   
       KEYWORD_OUT          IDMPKW         NO          [  0]    ***   
       LINDEP_TOL           ILINDP              8               ***   
       LINEQ_CONV           IZTACN          10D-  7           cycles  
       LINEQ_EXPOR          ILMAXD              5               ***   
       LINEQ_MAXCY          ILMAXC            100               ***   
       LINEQ_TYPE           ILTYPE         DIIS        [  1]    ***   
       LOCK_ORBOCC          ILOCOC         OFF         [  0]    ***   
       MEMORY_SIZE          IMEMSZ         *********           words  
       MEM_UNIT             IMEMU          GB          [  3]    ***   
       MRCC                 IMRCCC         OFF         [  0]    ***   
       MULTIPLICTY          IMULTP              4               ***   
       NACOUPLING           IVCOUP         OFF         [  0]    ***   
       NEGEVAL              IDIE           ABORT       [  0]    ***   
       NEWNORM              INEWNO         OFF         [  0]    ***   
       NON-HF               INONHF         ON          [  1]    ***   
       NTOP_TAMP            ITOPT2             15               ***   
       NUC_MODEL            INUCMO         POINT       [  0]    ***   
       OCCUPATION           IOCCU  A   2,  1,  1,  0,  1,  0,  0,  0,
                                   B   2,  0,  0,  0,  0,  0,  0,  0,
       OPEN-SHELL           IOPEN          SPIN-ORBITAL[  0]    ***   
       OPTVIB               IOPTVB         OFF         [  0]    ***   
       ORBITALS             IORBTP         SEMICANONICA[  1]    ***   
       PARALLEL             IPARAL         ON          [  1]    ***   
       PARA_INT             IPINTS         ON          [  1]    ***   
       PARA_PRINT           IPPRIN              0               ***   
       PERT_ORB             IPTORB         STANDARD    [  0]    ***   
       POINTS               IGRDFD              0               ***   
       PRINT                IPRNT               0               ***   
       PROPS                IPROPS         OFF         [  0]    ***   
       PROP_INTEGR          IINTYP         INTERNAL    [  0]    ***   
       PSI                  IPSI           OFF         [  0]    ***   
       QC_ALG               IQCALG         FLM         [  0]    ***   
       QC_LINALG            IQCLIN         TRIDIAG     [  2]    ***   
       QC_MAXCYC            IQCMAX          10D-100           cycles  
       QC_MAXSCFCY          IQCMSC          10D- 15           cycles  
       QC_RTRUST            IQCRTR          10D-  0           x 10-3  
       QC_SKIPSCF           IQCSKI         OFF         [  0]    ***   
       QC_START             IQCSTA          10D-  1             ***   
       QRHFGUESS            IQGUES         OFF         [  0]    ***   
       QUARTIC              IQUART         OFF         [  0]    ***   
       RAMAN_INT            IRAMIN         OFF         [  0]    ***   
       RAMAN_ORB            IRAMRE         UNRELAXED   [  0]    ***   
       RDO                  IRDOFM         OFF         [  0]    ***   
       REDUCE_REPR          REDREP         Ir          [  0]    ***   
       REFERENCE            IREFNC         ROHF        [  2]    ***   
       RELATIVIST           IRELAT         OFF         [  0]    ***   
       RELAX_DENS           IRDENS         OFF         [  0]    ***   
       RESET_FLAGS          IRESET         OFF         [  0]    ***   
       RESTART_CC           ICCRES         OFF         [  0]    ***   
       ROT_EVEC             ROTVEC              0               ***   
       SAVE_INTS            ISVINT         ON          [  1]    ***   
       SCALE_ON             ISTCRT              0               ***   
       SCF_CONV             ISCFCV          10D- 10             ***   
       SCF_DAMPING          IDAMP               0             x 10-3  
       SCF_EXPORDE          IRPPOR              6               ***   
       SCF_EXPSTAR          IRPPLS              5               ***   
       SCF_EXTRAPO          IRPP           ON          [  1]    ***   
       SCF_MAXCYC           ISCFCY            ***              cycles 
       SCF_NOSTOP           ISCFST         OFF         [  0]    ***   
       SCF_PRINT            ISCFPR              0               ***   
       SCF_PROG             ISCFPR         SCF         [  0]    ***   
       SD_FIELD             IFINSD              0             x 10-6  
       SOPERT               IPERSO         OFF         [  0]    ***   
       SPHERICAL            IDFGHI         ON          [  1]    ***   
       SPINORBIT            ISOCAL         OFF         [  0]    ***   
       SPINROTATIO          ISRCON         OFF         [  0]    ***   
       SPIN_FLIP            ISPFLP         OFF         [  0]    ***   
       SPIN_ORBIT           ISPORB         OFF         [  0]    ***   
       SPIN_SCAL            ISCSMP         OFF         [  0]    ***   
       STEEPSCALE           ISTPSC              1000          x 10-3  
       SUBGROUP             ISUBGP         DEFAULT     [  0]    ***   
       SUBGRPAXIS           ISBXYZ         X           [  0]    ***   
       SYMMETRY             ISYM           ON          [  0]    ***   
       SYM_CHECK            ISYMCK         OVERRIDE    [  1]    ***   
       T3_EXTRAPOL          IT3EXT         ON          [  1]    ***   
       T4_EXTRAPOL          IT4EXP         OFF         [  0]    ***   
       TAMP_SUM             IEVERY              5               ***   
       TESTSUITE            ITESTS         OFF         [  0]    ***   
       THERMOCH             ITHERM         OFF         [  0]    ***   
       TOL_CHOLESK          ITOLCH          10D-  4             ***   
       TRANGRAD             IRESRM         OFF         [  0]    ***   
       TRANS_INV            ITRAIN         USE         [  0]    ***   
       TREAT_PERT           ITREAT         SIMULTANEOUS[  0]    ***   
       TRIP_ALGORI          ITRALG         NORMAL      [  0]    ***   
       UIJ_THRESHO          IUIJTH              1               ***   
       UNITS                IUNITS         ANGSTROM    [  0]    ***   
       UNOS                 IUNOS          OFF         [  0]    ***   
       UPDATE_HESS          IHUPDT         ON          [  1]    ***   
       VIBPHASE             ISETPH         STANDARD    [  0]    ***   
       VIBRATION            IVIB           NO          [  0]    ***   
       VIB_ALGORIT          IGEALG         STANDARD    [  0]    ***   
       VNATORB              IVNORB         OFF         [  0]    ***   
       VTRAN                IVTRAN         FULL/PARTIAL[  0]    ***   
       XFIELD               IXEFLD              0             x 10-6  
       XFORM_TOL            IXFTOL          10D- 18             ***   
       YFIELD               IYEFLD              0             x 10-6  
       ZFIELD               IZEFLD              0             x 10-6  
       ZSCALE_EXP           IZEXPS         OFF         [  0]    ***   
    -------------------------------------------------------------------
   1 entries found in Z-matrix 
   Job Title : TITLE                                                                           
   Rotational constants (in cm-1): 

   Rotational constants (in MHz): 

********************************************************************************
   The full molecular point group is I h .
   The largest Abelian subgroup of the full molecular point group is D2h .
   The computational point group is D2h .
********************************************************************************
  ECPDATA file not present.   Using default ECPDATA. 
  @GTFLGS-W, Keyword #DROPMO not known and is ignored.
  @GTFLGS-W, Keyword #INPUT_MRCC not known and is ignored.
  @GTFLGS-W, Keyword #CC_PROG not known and is ignored.
  @GTFLGS-W, Keyword #SCF_DAMPING not known and is ignored.
  There is   1 frozen-core orbital.
  There is   1 frozen-core orbital.
  There are  189 basis functions.
 @GEOPT-W, Archive file not created for single-point calculation.
 @CHECKOUT-I, Total execution time (CPU/WALL):        0.17/       0.39 seconds.
--executable xjoda finished with status     0 in        0.46 seconds (walltime).
 --invoking executable--
/cvmfs/restricted.computecanada.ca/easybuild/software/2020/avx2/Compiler/intel2020/cfour/2.1/bin/xvmol
 SERIAL VERSION OF MOLECULE STARTED
********************************************************************************
                    INPUT FROM MOL FILE
********************************************************************************
INTGRL        1    0    1    0    0    0    0    0    0                         
         *** CFOUR Program System (Release V0.1) ***                            
TITLE                                                                           
    1    3 X  Y   Z   0.10E-08              0    0                              
   9999.00      3.00                                                            
          8.00000000    1    7    1    1    1    1    1    1    1               
O #1   0.000000000000000   0.000000000000000   0.000000000000000                
   17    8                                                                      
   570800.000000000       5.550000000000000E-006 -1.260000000000000E-006        
  0.000000000000000E+000  0.000000000000000E+000  0.000000000000000E+000        
  0.000000000000000E+000  0.000000000000000E+000  0.000000000000000E+000        
   85480.0000000000       4.311000000000000E-005 -9.770000000000000E-006        
  0.000000000000000E+000  0.000000000000000E+000  0.000000000000000E+000        
  0.000000000000000E+000  0.000000000000000E+000  0.000000000000000E+000        
   19460.0000000000       2.266700000000000E-004 -5.148000000000000E-005        
  0.000000000000000E+000  0.000000000000000E+000  0.000000000000000E+000        
  0.000000000000000E+000  0.000000000000000E+000  0.000000000000000E+000        
   5512.00000000000       9.563700000000000E-004 -2.169600000000000E-004        
  0.000000000000000E+000  0.000000000000000E+000  0.000000000000000E+000        
  0.000000000000000E+000  0.000000000000000E+000  0.000000000000000E+000        
   1798.00000000000       3.473200000000000E-003 -7.916200000000000E-004        
  0.000000000000000E+000  0.000000000000000E+000  0.000000000000000E+000        
  0.000000000000000E+000  0.000000000000000E+000  0.000000000000000E+000        
   648.900000000000       1.119778000000000E-002 -2.559000000000000E-003        
  0.000000000000000E+000  0.000000000000000E+000  0.000000000000000E+000        
  0.000000000000000E+000  0.000000000000000E+000  0.000000000000000E+000        
   253.100000000000       3.238766000000000E-002 -7.533130000000000E-003        
  0.000000000000000E+000  0.000000000000000E+000  0.000000000000000E+000        
  0.000000000000000E+000  0.000000000000000E+000  0.000000000000000E+000        
   104.900000000000       8.285977000000000E-002 -1.978897000000000E-002        
  0.000000000000000E+000  0.000000000000000E+000  0.000000000000000E+000        
  0.000000000000000E+000  0.000000000000000E+000  0.000000000000000E+000        
   45.6500000000000       0.179583810000000      -4.606288000000000E-002        
  0.000000000000000E+000  0.000000000000000E+000  0.000000000000000E+000        
  0.000000000000000E+000  0.000000000000000E+000  0.000000000000000E+000        
   20.6200000000000       0.305221100000000      -8.919560000000000E-002        
  0.000000000000000E+000  0.000000000000000E+000  0.000000000000000E+000        
  0.000000000000000E+000  0.000000000000000E+000  0.000000000000000E+000        
   9.58700000000000       0.340893490000000      -0.137542160000000             
  0.000000000000000E+000  0.000000000000000E+000  0.000000000000000E+000        
  0.000000000000000E+000  0.000000000000000E+000  0.000000000000000E+000        
   4.49300000000000       0.177426110000000      -0.105119480000000             
   1.00000000000000       0.000000000000000E+000  0.000000000000000E+000        
  0.000000000000000E+000  0.000000000000000E+000  0.000000000000000E+000        
   1.83700000000000       2.049107000000000E-002  0.144771430000000             
  0.000000000000000E+000   1.00000000000000       0.000000000000000E+000        
  0.000000000000000E+000  0.000000000000000E+000  0.000000000000000E+000        
  0.834900000000000      -9.680700000000000E-004  0.441463360000000             
  0.000000000000000E+000  0.000000000000000E+000   1.00000000000000             
  0.000000000000000E+000  0.000000000000000E+000  0.000000000000000E+000        
  0.365800000000000       1.057150000000000E-003  0.444681450000000             
  0.000000000000000E+000  0.000000000000000E+000  0.000000000000000E+000        
   1.00000000000000       0.000000000000000E+000  0.000000000000000E+000        
  0.157000000000000      -9.721000000000000E-005  0.128242590000000             
  0.000000000000000E+000  0.000000000000000E+000  0.000000000000000E+000        
  0.000000000000000E+000   1.00000000000000       0.000000000000000E+000        
  5.935000000000000E-002  0.000000000000000E+000  0.000000000000000E+000        
  0.000000000000000E+000  0.000000000000000E+000  0.000000000000000E+000        
  0.000000000000000E+000  0.000000000000000E+000   1.00000000000000             
   11    7                                                                      
   525.600000000000       1.666400000000000E-004  0.000000000000000E+000        
  0.000000000000000E+000  0.000000000000000E+000  0.000000000000000E+000        
  0.000000000000000E+000  0.000000000000000E+000                                
   124.600000000000       1.433360000000000E-003  0.000000000000000E+000        
  0.000000000000000E+000  0.000000000000000E+000  0.000000000000000E+000        
  0.000000000000000E+000  0.000000000000000E+000                                
   40.3400000000000       7.547620000000000E-003  0.000000000000000E+000        
  0.000000000000000E+000  0.000000000000000E+000  0.000000000000000E+000        
  0.000000000000000E+000  0.000000000000000E+000                                
   15.1800000000000       2.859456000000000E-002  0.000000000000000E+000        
  0.000000000000000E+000  0.000000000000000E+000  0.000000000000000E+000        
  0.000000000000000E+000  0.000000000000000E+000                                
   6.24500000000000       8.438858000000000E-002  0.000000000000000E+000        
  0.000000000000000E+000  0.000000000000000E+000  0.000000000000000E+000        
  0.000000000000000E+000  0.000000000000000E+000                                
   2.73200000000000       0.187483420000000        1.00000000000000             
  0.000000000000000E+000  0.000000000000000E+000  0.000000000000000E+000        
  0.000000000000000E+000  0.000000000000000E+000                                
   1.22700000000000       0.297905790000000       0.000000000000000E+000        
   1.00000000000000       0.000000000000000E+000  0.000000000000000E+000        
  0.000000000000000E+000  0.000000000000000E+000                                
  0.549200000000000       0.338557550000000       0.000000000000000E+000        
  0.000000000000000E+000   1.00000000000000       0.000000000000000E+000        
  0.000000000000000E+000  0.000000000000000E+000                                
  0.241800000000000       0.247260930000000       0.000000000000000E+000        
  0.000000000000000E+000  0.000000000000000E+000   1.00000000000000             
  0.000000000000000E+000  0.000000000000000E+000                                
  0.102500000000000       7.003350000000000E-002  0.000000000000000E+000        
  0.000000000000000E+000  0.000000000000000E+000  0.000000000000000E+000        
   1.00000000000000       0.000000000000000E+000                                
  3.380000000000000E-002  0.000000000000000E+000  0.000000000000000E+000        
  0.000000000000000E+000  0.000000000000000E+000  0.000000000000000E+000        
  0.000000000000000E+000   1.00000000000000                                     
    6    6                                                                      
   8.25300000000000        1.00000000000000       0.000000000000000E+000        
  0.000000000000000E+000  0.000000000000000E+000  0.000000000000000E+000        
  0.000000000000000E+000                                                        
   3.59700000000000       0.000000000000000E+000   1.00000000000000             
  0.000000000000000E+000  0.000000000000000E+000  0.000000000000000E+000        
  0.000000000000000E+000                                                        
   1.56800000000000       0.000000000000000E+000  0.000000000000000E+000        
   1.00000000000000       0.000000000000000E+000  0.000000000000000E+000        
  0.000000000000000E+000                                                        
  0.684000000000000       0.000000000000000E+000  0.000000000000000E+000        
  0.000000000000000E+000   1.00000000000000       0.000000000000000E+000        
  0.000000000000000E+000                                                        
  0.298000000000000       0.000000000000000E+000  0.000000000000000E+000        
  0.000000000000000E+000  0.000000000000000E+000   1.00000000000000             
  0.000000000000000E+000                                                        
  0.115000000000000       0.000000000000000E+000  0.000000000000000E+000        
  0.000000000000000E+000  0.000000000000000E+000  0.000000000000000E+000        
   1.00000000000000                                                             
    5    5                                                                      
   5.43000000000000        1.00000000000000       0.000000000000000E+000        
  0.000000000000000E+000  0.000000000000000E+000  0.000000000000000E+000        
   2.41600000000000       0.000000000000000E+000   1.00000000000000             
  0.000000000000000E+000  0.000000000000000E+000  0.000000000000000E+000        
   1.07500000000000       0.000000000000000E+000  0.000000000000000E+000        
   1.00000000000000       0.000000000000000E+000  0.000000000000000E+000        
  0.478000000000000       0.000000000000000E+000  0.000000000000000E+000        
  0.000000000000000E+000   1.00000000000000       0.000000000000000E+000        
  0.195000000000000       0.000000000000000E+000  0.000000000000000E+000        
  0.000000000000000E+000  0.000000000000000E+000   1.00000000000000             
    4    4                                                                      
   5.21100000000000        1.00000000000000       0.000000000000000E+000        
  0.000000000000000E+000  0.000000000000000E+000                                
   2.19000000000000       0.000000000000000E+000   1.00000000000000             
  0.000000000000000E+000  0.000000000000000E+000                                
  0.920000000000000       0.000000000000000E+000  0.000000000000000E+000        
   1.00000000000000       0.000000000000000E+000                                
  0.406000000000000       0.000000000000000E+000  0.000000000000000E+000        
  0.000000000000000E+000   1.00000000000000                                     
    3    3                                                                      
   3.87200000000000        1.00000000000000       0.000000000000000E+000        
  0.000000000000000E+000                                                        
   1.50500000000000       0.000000000000000E+000   1.00000000000000             
  0.000000000000000E+000                                                        
  0.748000000000000       0.000000000000000E+000  0.000000000000000E+000        
   1.00000000000000                                                             
    2    2                                                                      
   2.77300000000000        1.00000000000000       0.000000000000000E+000        
   1.34500000000000       0.000000000000000E+000   1.00000000000000             
FINISH                                                                          
 
********************************************************************************
OMP: Info #274: omp_set_nested routine deprecated, please use omp_set_max_active_levels instead.
 ONE- AND TWO-ELECTRON INTEGRALS OVER SYMMETRY-ADAPTED AOS ARE CALCULATED.

  SPHERICAL HARMONICS ARE USED.
  
  INTEGRALS LESS THAN  0.10E-13 ARE NEGLECTED.

  NUCLEAR REPULSION ENERGY :    0.0000000000 A.U.
  @MOLECU-I, ONE ELECTRON INTEGRALS (CPU/WALL):        0.09/       0.10 SECONDS.
  @TWOEL-I,     482406 INTEGRALS OF SYMMETRY TYPE  I I I I
  @TWOEL-I,    4119751 INTEGRALS OF SYMMETRY TYPE  I J I J
  @TWOEL-I,    2366886 INTEGRALS OF SYMMETRY TYPE  I I J J
  @TWOEL-I,   10122387 INTEGRALS OF SYMMETRY TYPE  I J K L
  @TWOEL-I, TOTAL NUMBER OF 2-E INTEGRALS   17091430.
  @MOLECU-I, TWO ELECTRON INTEGRALS (CPU/WALL):       50.17/      50.21 SECONDS.
 @CHECKOUT-I, Total execution time (CPU/WALL):       50.28/      50.47 seconds.

OMP_NUM_THREADS not specified; defaulting to 1
Running with 1 threads/proc

--executable xvmol finished with status     0 in       50.53 seconds (walltime).
 --invoking executable--
/cvmfs/restricted.computecanada.ca/easybuild/software/2020/avx2/Compiler/intel2020/cfour/2.1/bin/xvmol2ja
 @GETMEM-I,  Allocated   19073 MB of main memory.
 @CHECKOUT-I, Total execution time (CPU/WALL):        0.04/       0.04 seconds.
--executable xvmol2ja finished with status     0 in        0.09 seconds (walltime).
 --invoking executable--
/cvmfs/restricted.computecanada.ca/easybuild/software/2020/avx2/Compiler/intel2020/cfour/2.1/bin/xvscf
  There are  189 functions in the AO basis.

  There are 8 irreducible representations.

       Irrep        # of functions
         1                 40
         2                 26
         3                 26
         4                 20
         5                 26
         6                 20
         7                 20
         8                 11


  Parameters for SCF calculation: 
        SCF reference function: ROHF  
  Maximum number of iterations: 9999
     Full symmetry point group: I h 
     Computational point group: D2h 
        Initial density matrix: MOREAD                 
     SCF convergence tolerance: 10**(-10)
  DIIS convergence acceleration:  ON
          Latest start for DIIS:   5
                     DIIS order:   6

     Alpha population by irrep:   2    1    1    0    1    0    0    0
      Beta population by irrep:   2    0    0    0    0    0    0    0


  Memory information:    2725225 words required.
  Fock matrices are constructed from AO integral file.
 @GETMEM-I,  Allocated      20 MB of main memory.
  Initialization and symmetry analysis required      0.003 seconds.

 total no. of electrons in initial guess :  0.000000000000000E+000
 total no. of electrons in initial guess :  0.000000000000000E+000
  --------------------------------------------------------------------
  Iteration         Total Energy            Largest Density Difference
  --------------------------------------------------------------------
       0             0.000000000000000              0.0000000000D+00
   current occupation vector 
     2  1  1  0  1  0  0  0
     2  0  0  0  0  0  0  0
       1           -69.177609008322975              0.9132481824D+01
   current occupation vector 
     2  1  1  0  1  0  0  0
     2  0  0  0  0  0  0  0
       2           -71.114736404763704              0.9055030891D+01
   current occupation vector 
     2  1  1  0  1  0  0  0
     2  0  0  0  0  0  0  0
       3           -74.119460527598690              0.1833334003D+01
   current occupation vector 
     2  1  1  0  1  0  0  0
     2  0  0  0  0  0  0  0
       4           -74.344040254968746              0.8522170903D+00
   current occupation vector 
     2  1  1  0  1  0  0  0
     2  0  0  0  0  0  0  0
       5           -74.370525525438822              0.2362552363D+00
   current occupation vector 
     2  1  1  0  1  0  0  0
     2  0  0  0  0  0  0  0
       6           -74.372529595294480              0.4180714751D-01
   current occupation vector 
     2  1  1  0  1  0  0  0
     2  0  0  0  0  0  0  0
       7           -74.372584120952823              0.5255980338D-02
   current occupation vector 
     2  1  1  0  1  0  0  0
     2  0  0  0  0  0  0  0
       8           -74.372585588248512              0.1289510157D-02
   current occupation vector 
     2  1  1  0  1  0  0  0
     2  0  0  0  0  0  0  0
       9           -74.372586022190319              0.4616564784D-03
   current occupation vector 
     2  1  1  0  1  0  0  0
     2  0  0  0  0  0  0  0
      10           -74.372586024021913              0.4979847082D-04
   current occupation vector 
     2  1  1  0  1  0  0  0
     2  0  0  0  0  0  0  0
      11           -74.372586024025594              0.1335453798D-05
   current occupation vector 
     2  1  1  0  1  0  0  0
     2  0  0  0  0  0  0  0
      12           -74.372586024025622              0.1792297375D-06
   current occupation vector 
     2  1  1  0  1  0  0  0
     2  0  0  0  0  0  0  0
      13           -74.372586024025608              0.1084923366D-07
   current occupation vector 
     2  1  1  0  1  0  0  0
     2  0  0  0  0  0  0  0
      14           -74.372586024025566              0.7318428918D-09
   current occupation vector 
     2  1  1  0  1  0  0  0
     2  0  0  0  0  0  0  0

  SCF has converged.

 Density matrix saved to file den.dat
 total alpha spin electron number:   5.00000000000000     
 total  beta spin electron number:   2.00000000000000     
     E(ROHF)=       -74.372586024025381              0.5606515252D-10

  Eigenvector printing suppressed.


       The average multiplicity is    4.0000000
  The expectation value of S**2 is    3.7500000

 @PUTMOS-I, Writing converged MOs to NEWMOS. 
 @PUTMOS-I, Symmetry   1 Full Blocks 10 Partial Blocksize   0
 @PUTMOS-I, Symmetry   2 Full Blocks  6 Partial Blocksize   2
 @PUTMOS-I, Symmetry   3 Full Blocks  6 Partial Blocksize   2
 @PUTMOS-I, Symmetry   4 Full Blocks  5 Partial Blocksize   0
 @PUTMOS-I, Symmetry   5 Full Blocks  6 Partial Blocksize   2
 @PUTMOS-I, Symmetry   6 Full Blocks  5 Partial Blocksize   0
 @PUTMOS-I, Symmetry   7 Full Blocks  5 Partial Blocksize   0
 @PUTMOS-I, Symmetry   8 Full Blocks  2 Partial Blocksize   3
 @PUTFOCK-I, Writing converged Fock matrix to NEWFOCK. 
 @PUTFOCK-I, Symmetry   1 Full Blocks 10 Partial Blocksize   0
 @PUTFOCK-I, Symmetry   2 Full Blocks  6 Partial Blocksize   2
 @PUTFOCK-I, Symmetry   3 Full Blocks  6 Partial Blocksize   2
 @PUTFOCK-I, Symmetry   4 Full Blocks  5 Partial Blocksize   0
 @PUTFOCK-I, Symmetry   5 Full Blocks  6 Partial Blocksize   2
 @PUTFOCK-I, Symmetry   6 Full Blocks  5 Partial Blocksize   0
 @PUTFOCK-I, Symmetry   7 Full Blocks  5 Partial Blocksize   0
 @PUTFOCK-I, Symmetry   8 Full Blocks  2 Partial Blocksize   3
  @DMPJOB-I, Rotating orbitals to semicanonical basis.
             *** Eigenvalues correspond to new basis. ***

  @PRJDEN-I, Basis set contains h and/or higher angular momentum functions.
             Analysis of density matrix symmetry not available.
             Check irreps of the molecular orbitals in the full point group
             for presence of an asymmetric solution.

 
  ORBITAL EIGENVALUES (ALPHA)  (1H = 27.2113834 eV)

       MO #        E(hartree)               E(eV)           FULLSYM    COMPSYM
       ----   --------------------   --------------------   -------   ---------
    1     1         -21.4115055953        -582.6366879257      Ag        Ag (1)
    2     2          -2.0585097062         -56.0148968474      Ag        Ag (1)
    3    41          -1.3269139749         -36.1071649100     T1u       B2u (2)
    4   113          -1.3269139749         -36.1071649100     T1u       B1u (5)
    5    67          -1.3269139749         -36.1071649100     T1u       B3u (3)
  +++++++++++++++++++++++++++++++++++++++++++++++++++++++++++++++++++++++++++++
    6     3          -0.1449285304          -3.9437058050      Ag        Ag (1)
    7    68          -0.0991680524          -2.6984998953     T1u       B3u (3)
    8   114          -0.0991680524          -2.6984998953     T1u       B1u (5)
    9    42          -0.0991680524          -2.6984998953     T1u       B2u (2)
   10     4           0.0869518060           2.3660789292      Hg        Ag (1)
   11    93           0.0869518060           2.3660789292      Hg       B1g (4)
   12   139           0.0869518060           2.3660789292      Hg       B3g (6)
   13     5           0.0869518060           2.3660789292      Hg        Ag (1)
   14   159           0.0869518060           2.3660789292      Hg       B2g (7)
   15    43           0.0877619677           2.3881245524     T1u       B2u (2)
   16    69           0.0877619677           2.3881245524     T1u       B3u (3)
   17   115           0.0877619677           2.3881245524     T1u       B1u (5)
   18     6           0.2485826430           6.7642776049      Ag        Ag (1)
   19    44           0.5010614804          13.6345760501       u       B2u (2)
   20    70           0.5010614804          13.6345760501       u       B3u (3)
   21   179           0.5010614804          13.6345760501       u        Au (8)
   22    71           0.5010614804          13.6345760501       u       B3u (3)
   23   116           0.5010614804          13.6345760501       u       B1u (5)
   24    45           0.5010614804          13.6345760501       u       B2u (2)
   25   117           0.5010614804          13.6345760501       u       B1u (5)
   26     7           0.6660345064          18.1237203111      Hg        Ag (1)
   27   140           0.6660345064          18.1237203111      Hg       B3g (6)
   28    94           0.6660345064          18.1237203111      Hg       B1g (4)
   29   160           0.6660345064          18.1237203111      Hg       B2g (7)
   30     8           0.6660345064          18.1237203111      Hg        Ag (1)
   31   118           0.7156386105          19.4735166053     T1u       B1u (5)
   32    46           0.7156386105          19.4735166053     T1u       B2u (2)
   33    72           0.7156386105          19.4735166053     T1u       B3u (3)
   34     9           1.5873932645          43.1951667270      Ag        Ag (1)
   35   141           1.6654765631          45.3199213024       g       B3g (6)
   36   161           1.6654765631          45.3199213024       g       B2g (7)
   37    10           1.6654765631          45.3199213024       g        Ag (1)
   38    95           1.6654765631          45.3199213024       g       B1g (4)
   39    11           1.6654765631          45.3199213024       g        Ag (1)
   40    12           1.6654765631          45.3199213024       g        Ag (1)
   41   142           1.6654765631          45.3199213024       g       B3g (6)
   42    96           1.6654765631          45.3199213024       g       B1g (4)
   43   162           1.6654765631          45.3199213024       g       B2g (7)
   44    47           1.8438676561          50.1741897300       u       B2u (2)
   45   180           1.8438676561          50.1741897300       u        Au (8)
   46    73           1.8438676561          50.1741897300       u       B3u (3)
   47   119           1.8438676561          50.1741897300       u       B1u (5)
   48    74           1.8438676561          50.1741897300       u       B3u (3)
   49   120           1.8438676561          50.1741897300       u       B1u (5)
   50    48           1.8438676561          50.1741897300       u       B2u (2)
   51    13           2.0587224648          56.0206863039      Hg        Ag (1)
   52   143           2.0587224648          56.0206863039      Hg       B3g (6)
   53    97           2.0587224648          56.0206863039      Hg       B1g (4)
   54   163           2.0587224648          56.0206863039      Hg       B2g (7)
   55    14           2.0587224648          56.0206863039      Hg        Ag (1)
   56   121           2.4776490023          67.4202569334     T1u       B1u (5)
   57    49           2.4776490023          67.4202569334     T1u       B2u (2)
   58    75           2.4776490023          67.4202569334     T1u       B3u (3)
   59   181           3.9713006252         108.0645839099                Au (8)
   60    50           3.9713006252         108.0645839099               B2u (2)
   61   122           3.9713006252         108.0645839099               B1u (5)
   62   182           3.9713006252         108.0645839099                Au (8)
   63    76           3.9713006252         108.0645839099               B3u (3)
   64   123           3.9713006252         108.0645839099               B1u (5)
   65   124           3.9713006252         108.0645839099               B1u (5)
   66    77           3.9713006252         108.0645839099               B3u (3)
   67    51           3.9713006252         108.0645839099               B2u (2)
   68    52           3.9713006252         108.0645839099               B2u (2)
   69    78           3.9713006252         108.0645839099               B3u (3)
   70    53           4.8196139465         131.1483629379       u       B2u (2)
   71    54           4.8196139465         131.1483629379       u       B2u (2)
   72   125           4.8196139465         131.1483629379       u       B1u (5)
   73    79           4.8196139465         131.1483629379       u       B3u (3)
   74   183           4.8196139465         131.1483629379       u        Au (8)
   75   126           4.8196139465         131.1483629379       u       B1u (5)
   76    80           4.8196139465         131.1483629379       u       B3u (3)
   77    15           4.8974026005         133.2650998275       g        Ag (1)
   78   164           4.8974026005         133.2650998275       g       B2g (7)
   79    16           4.8974026005         133.2650998275       g        Ag (1)
   80    98           4.8974026005         133.2650998275       g       B1g (4)
   81   144           4.8974026005         133.2650998275       g       B3g (6)
   82    17           4.8974026005         133.2650998275       g        Ag (1)
   83   145           4.8974026005         133.2650998275       g       B3g (6)
   84    99           4.8974026005         133.2650998275       g       B1g (4)
   85   165           4.8974026005         133.2650998275       g       B2g (7)
   86   146           5.3937496219         146.7713889259      Hg       B3g (6)
   87   100           5.3937496219         146.7713889259      Hg       B1g (4)
   88    18           5.3937496219         146.7713889259      Hg        Ag (1)
   89   166           5.3937496219         146.7713889259      Hg       B2g (7)
   90    19           5.3937496219         146.7713889259      Hg        Ag (1)
   91    20           5.6897138371         154.8249846584      Ag        Ag (1)
   92   127           7.0280644048         191.2433550793     T1u       B1u (5)
   93    55           7.0280644048         191.2433550793     T1u       B2u (2)
   94    81           7.0280644048         191.2433550793     T1u       B3u (3)
   95   101           8.8261629051         240.1721027623    XXXX      XXXX (4)
   96   167           8.8261629051         240.1721027623    XXXX      XXXX (7)
   97   147           8.8261629051         240.1721027623    XXXX      XXXX (6)
   98   168           8.8261629051         240.1721027623    XXXX      XXXX (7)
   99   102           8.8261629051         240.1721027623    XXXX      XXXX (4)
  100    21           8.8261629051         240.1721027623    XXXX      XXXX (1)
  101   148           8.8261629051         240.1721027623    XXXX      XXXX (6)
  102   103           8.8261629051         240.1721027623    XXXX      XXXX (4)
  103   169           8.8261629051         240.1721027623    XXXX      XXXX (7)
  104   149           8.8261629051         240.1721027623    XXXX      XXXX (6)
  105    22           8.8261629051         240.1721027623    XXXX      XXXX (1)
  106    23           8.8261629051         240.1721027623    XXXX      XXXX (1)
  107    24           8.8261629051         240.1721027623    XXXX      XXXX (1)
  108    56          10.2032582834         277.6447730800               B2u (2)
  109    82          10.2032582834         277.6447730800               B3u (3)
  110    57          10.2032582834         277.6447730800               B2u (2)
  111   128          10.2032582834         277.6447730800               B1u (5)
  112   129          10.2032582834         277.6447730800               B1u (5)
  113    83          10.2032582834         277.6447730800               B3u (3)
  114   184          10.2032582834         277.6447730800                Au (8)
  115   185          10.2032582834         277.6447730800                Au (8)
  116    58          10.2032582834         277.6447730800               B2u (2)
  117    84          10.2032582834         277.6447730800               B3u (3)
  118   130          10.2032582834         277.6447730800               B1u (5)
  119   131          11.5632312094         314.6515177810       u       B1u (5)
  120    85          11.5632312094         314.6515177810       u       B3u (3)
  121    59          11.5632312094         314.6515177810       u       B2u (2)
  122   186          11.5632312094         314.6515177810       u        Au (8)
  123    60          11.5632312094         314.6515177810       u       B2u (2)
  124   132          11.5632312094         314.6515177810       u       B1u (5)
  125    86          11.5632312094         314.6515177810       u       B3u (3)
  126   104          12.3166948769         335.1543065162       g       B1g (4)
  127    25          12.3166948769         335.1543065162       g        Ag (1)
  128   170          12.3166948769         335.1543065162       g       B2g (7)
  129   150          12.3166948769         335.1543065162       g       B3g (6)
  130   105          12.3166948769         335.1543065162       g       B1g (4)
  131    26          12.3166948769         335.1543065162       g        Ag (1)
  132   171          12.3166948769         335.1543065162       g       B2g (7)
  133   151          12.3166948769         335.1543065162       g       B3g (6)
  134    27          12.3166948769         335.1543065162       g        Ag (1)
  135   152          13.5227806144         367.9735679312      Hg       B3g (6)
  136   106          13.5227806144         367.9735679312      Hg       B1g (4)
  137   172          13.5227806144         367.9735679312      Hg       B2g (7)
  138    28          13.5227806144         367.9735679312      Hg        Ag (1)
  139    29          13.5227806144         367.9735679312      Hg        Ag (1)
  140    30          19.0114983758         517.3291713119      Ag        Ag (1)
  141    61          21.6889413072         590.1860974511     T1u       B2u (2)
  142    87          21.6889413072         590.1860974511     T1u       B3u (3)
  143   133          21.6889413072         590.1860974511     T1u       B1u (5)
  144   173          22.0613409842         600.3196078381    XXXX      XXXX (7)
  145   153          22.0613409842         600.3196078381    XXXX      XXXX (6)
  146   174          22.0613409842         600.3196078381    XXXX      XXXX (7)
  147   154          22.0613409842         600.3196078381    XXXX      XXXX (6)
  148   107          22.0613409842         600.3196078381    XXXX      XXXX (4)
  149   108          22.0613409842         600.3196078381    XXXX      XXXX (4)
  150   155          22.0613409842         600.3196078381    XXXX      XXXX (6)
  151   175          22.0613409842         600.3196078381    XXXX      XXXX (7)
  152    31          22.0613409842         600.3196078381    XXXX      XXXX (1)
  153   109          22.0613409842         600.3196078381    XXXX      XXXX (4)
  154    32          22.0613409842         600.3196078381    XXXX      XXXX (1)
  155    33          22.0613409842         600.3196078381    XXXX      XXXX (1)
  156    34          22.0613409842         600.3196078381    XXXX      XXXX (1)
  157    88          26.0923924856         710.0100957491               B2u (3)
  158    62          26.0923924856         710.0100957491               B3u (2)
  159   134          26.0923924856         710.0100957491               B1u (5)
  160    89          26.0923924856         710.0100957491               B3u (3)
  161   135          26.0923924856         710.0100957491               B1u (5)
  162    63          26.0923924856         710.0100957491               B2u (2)
  163   187          26.0923924856         710.0100957491                Au (8)
  164    90          26.0923924856         710.0100957491               B3u (3)
  165    64          26.0923924856         710.0100957491               B2u (2)
  166   136          26.0923924856         710.0100957491               B1u (5)
  167   188          26.0923924856         710.0100957491                Au (8)
  168   137          27.7006438369         753.7728398731       u       B1u (5)
  169   138          27.7006438369         753.7728398731       u       B1u (5)
  170    65          27.7006438369         753.7728398731       u       B2u (2)
  171    91          27.7006438369         753.7728398731       u       B3u (3)
  172   189          27.7006438369         753.7728398731       u        Au (8)
  173    92          27.7006438369         753.7728398731       u       B3u (3)
  174    66          27.7006438369         753.7728398731       u       B2u (2)
  175   176          30.7294077644         836.1896963315       g       B2g (7)
  176   156          30.7294077644         836.1896963315       g       B3g (6)
  177   110          30.7294077644         836.1896963315       g       B1g (4)
  178    35          30.7294077644         836.1896963315       g        Ag (1)
  179   111          30.7294077644         836.1896963315       g       B1g (4)
  180   157          30.7294077644         836.1896963315       g       B3g (6)
  181   177          30.7294077644         836.1896963315       g       B2g (7)
  182    36          30.7294077644         836.1896963315       g        Ag (1)
  183    37          30.7294077644         836.1896963315       g        Ag (1)
  184    38          33.7367378029         918.0233070190      Hg        Ag (1)
  185   112          33.7367378029         918.0233070190      Hg       B1g (4)
  186    39          33.7367378029         918.0233070190      Hg        Ag (1)
  187   158          33.7367378029         918.0233070190      Hg       B3g (6)
  188   178          33.7367378029         918.0233070190      Hg       B2g (7)
  189    40          98.7035239862        2685.8594341197      Ag        Ag (1)


 
  ORBITAL EIGENVALUES ( BETA)  (1H = 27.2113834 eV)

       MO #        E(hartree)               E(eV)           FULLSYM    COMPSYM
       ----   --------------------   --------------------   -------   ---------
    1     1         -21.2815205441        -579.0996148595      Ag        Ag (1)
    2     2          -1.5425811521         -41.9757671545      Ag        Ag (1)
  +++++++++++++++++++++++++++++++++++++++++++++++++++++++++++++++++++++++++++++
    3    67          -0.3831733684         -10.4266774360     T1u       B3u (3)
    4   113          -0.3831733684         -10.4266774360     T1u       B1u (5)
    5    41          -0.3831733684         -10.4266774360     T1u       B2u (2)
    6     3          -0.1319917388          -3.5916778102      Ag        Ag (1)
    7    68          -0.0836295573          -2.2756759477     T1u       B3u (3)
    8   114          -0.0836295573          -2.2756759477     T1u       B1u (5)
    9    42          -0.0836295573          -2.2756759477     T1u       B2u (2)
   10   139           0.0954061880           2.5961343598      Hg       B3g (6)
   11     4           0.0954061880           2.5961343598      Hg        Ag (1)
   12   159           0.0954061880           2.5961343598      Hg       B2g (7)
   13     5           0.0954061880           2.5961343598      Hg        Ag (1)
   14    93           0.0954061880           2.5961343598      Hg       B1g (4)
   15   115           0.1329761807           3.6184658369     T1u       B1u (5)
   16    69           0.1329761807           3.6184658369     T1u       B3u (3)
   17    43           0.1329761807           3.6184658369     T1u       B2u (2)
   18     6           0.2844199451           7.7394601725      Ag        Ag (1)
   19   116           0.5044732083          13.7274138870       u       B1u (5)
   20   117           0.5044732083          13.7274138870       u       B1u (5)
   21    44           0.5044732083          13.7274138870       u       B2u (2)
   22   179           0.5044732083          13.7274138870       u        Au (8)
   23    70           0.5044732083          13.7274138870       u       B3u (3)
   24    45           0.5044732083          13.7274138870       u       B2u (2)
   25    71           0.5044732083          13.7274138870       u       B3u (3)
   26   140           0.7258499549          19.7513814139      Hg       B3g (6)
   27   160           0.7258499549          19.7513814139      Hg       B2g (7)
   28     7           0.7258499549          19.7513814139      Hg        Ag (1)
   29    94           0.7258499549          19.7513814139      Hg       B1g (4)
   30     8           0.7258499549          19.7513814139      Hg        Ag (1)
   31   118           0.8151119657          22.1803242117     T1u       B1u (5)
   32    72           0.8151119657          22.1803242117     T1u       B3u (3)
   33    46           0.8151119657          22.1803242117     T1u       B2u (2)
   34     9           1.6714232735          45.4817395177      Ag        Ag (1)
   35    95           1.6719723349          45.4966802386       g       B1g (4)
   36   141           1.6719723349          45.4966802386       g       B3g (6)
   37    96           1.6719723349          45.4966802386       g       B1g (4)
   38    10           1.6719723349          45.4966802386       g        Ag (1)
   39    11           1.6719723349          45.4966802386       g        Ag (1)
   40   161           1.6719723349          45.4966802386       g       B2g (7)
   41   142           1.6719723349          45.4966802386       g       B3g (6)
   42    12           1.6719723349          45.4966802386       g        Ag (1)
   43   162           1.6719723349          45.4966802386       g       B2g (7)
   44    47           1.8736388095          50.9843039991       u       B2u (2)
   45   119           1.8736388095          50.9843039991       u       B1u (5)
   46    48           1.8736388095          50.9843039991       u       B2u (2)
   47   180           1.8736388095          50.9843039991       u        Au (8)
   48   120           1.8736388095          50.9843039991       u       B1u (5)
   49    73           1.8736388095          50.9843039991       u       B3u (3)
   50    74           1.8736388095          50.9843039991       u       B3u (3)
   51   143           2.1941563308          59.7060291572      Hg       B3g (6)
   52    97           2.1941563308          59.7060291572      Hg       B1g (4)
   53    13           2.1941563308          59.7060291572      Hg        Ag (1)
   54   163           2.1941563308          59.7060291572      Hg       B2g (7)
   55    14           2.1941563308          59.7060291572      Hg        Ag (1)
   56   121           2.6118209784          71.0712620165     T1u       B1u (5)
   57    49           2.6118209784          71.0712620165     T1u       B2u (2)
   58    75           2.6118209784          71.0712620165     T1u       B3u (3)
   59   181           3.9820354867         108.3566943415                Au (8)
   60   122           3.9820354867         108.3566943415               B1u (5)
   61   182           3.9820354867         108.3566943415                Au (8)
   62    50           3.9820354867         108.3566943415               B2u (2)
   63   123           3.9820354867         108.3566943415               B1u (5)
   64    76           3.9820354867         108.3566943415               B3u (3)
   65    77           3.9820354867         108.3566943415               B3u (3)
   66   124           3.9820354867         108.3566943415               B2u (5)
   67    51           3.9820354867         108.3566943415               B1u (2)
   68    52           3.9820354867         108.3566943415               B2u (2)
   69    78           3.9820354867         108.3566943415               B3u (3)
   70    53           4.8980092671         133.2816080626       u       B2u (2)
   71    79           4.8980092671         133.2816080626       u       B3u (3)
   72   125           4.8980092671         133.2816080626       u       B1u (5)
   73   126           4.8980092671         133.2816080626       u       B1u (5)
   74    54           4.8980092671         133.2816080626       u       B2u (2)
   75    80           4.8980092671         133.2816080626       u       B3u (3)
   76   183           4.8980092671         133.2816080626       u        Au (8)
   77    98           4.9323398736         134.2157913602       g       B1g (4)
   78   164           4.9323398736         134.2157913602       g       B2g (7)
   79    15           4.9323398736         134.2157913602       g        Ag (1)
   80   144           4.9323398736         134.2157913602       g       B3g (6)
   81   145           4.9323398736         134.2157913602       g        Ag (6)
   82    16           4.9323398736         134.2157913602       g       B3g (1)
   83    99           4.9323398736         134.2157913602       g       B1g (4)
   84    17           4.9323398736         134.2157913602       g        Ag (1)
   85   165           4.9323398736         134.2157913602       g       B2g (7)
   86   100           5.5539738417         151.1313115996      Hg       B1g (4)
   87   146           5.5539738417         151.1313115996      Hg       B3g (6)
   88    18           5.5539738417         151.1313115996      Hg        Ag (1)
   89   166           5.5539738417         151.1313115996      Hg       B2g (7)
   90    19           5.5539738417         151.1313115996      Hg        Ag (1)
   91    20           5.8037909363         157.9291803415      Ag        Ag (1)
   92   127           7.1614597612         194.8732272664     T1u       B1u (5)
   93    55           7.1614597612         194.8732272664     T1u       B2u (2)
   94    81           7.1614597612         194.8732272664     T1u       B3u (3)
   95   101           8.8438427909         240.6531969125    XXXX      XXXX (4)
   96   167           8.8438427909         240.6531969125    XXXX      XXXX (7)
   97   147           8.8438427909         240.6531969125    XXXX      XXXX (6)
   98   168           8.8438427909         240.6531969125    XXXX      XXXX (7)
   99   102           8.8438427909         240.6531969125    XXXX      XXXX (4)
  100    21           8.8438427909         240.6531969125    XXXX      XXXX (1)
  101   148           8.8438427909         240.6531969125    XXXX      XXXX (6)
  102   103           8.8438427909         240.6531969125    XXXX      XXXX (4)
  103   149           8.8438427909         240.6531969125    XXXX      XXXX (6)
  104   169           8.8438427909         240.6531969125    XXXX      XXXX (7)
  105    22           8.8438427909         240.6531969125    XXXX      XXXX (1)
  106    23           8.8438427909         240.6531969125    XXXX      XXXX (1)
  107    24           8.8438427909         240.6531969125    XXXX      XXXX (1)
  108    56          10.2392172298         278.6232657560               B2u (2)
  109    82          10.2392172298         278.6232657560               B3u (3)
  110   128          10.2392172298         278.6232657560               B1u (5)
  111   129          10.2392172298         278.6232657560               B1u (5)
  112    57          10.2392172298         278.6232657560               B2u (2)
  113    83          10.2392172298         278.6232657560               B3u (3)
  114   184          10.2392172298         278.6232657560                Au (8)
  115   185          10.2392172298         278.6232657560                Au (8)
  116    58          10.2392172298         278.6232657560               B2u (2)
  117    84          10.2392172298         278.6232657560               B3u (3)
  118   130          10.2392172298         278.6232657560               B1u (5)
  119   131          11.6683617801         317.5122660487       u       B1u (5)
  120    59          11.6683617801         317.5122660487       u       B2u (2)
  121    85          11.6683617801         317.5122660487       u       B3u (3)
  122   186          11.6683617801         317.5122660487       u        Au (8)
  123   132          11.6683617801         317.5122660487       u       B1u (5)
  124    60          11.6683617801         317.5122660487       u       B2u (2)
  125    86          11.6683617801         317.5122660487       u       B3u (3)
  126    25          12.3870148549         337.0678103981       g        Ag (1)
  127   150          12.3870148549         337.0678103981       g       B3g (6)
  128   170          12.3870148549         337.0678103981       g       B2g (7)
  129   104          12.3870148549         337.0678103981       g       B1g (4)
  130   105          12.3870148549         337.0678103981       g       B1g (4)
  131   171          12.3870148549         337.0678103981       g       B2g (7)
  132    26          12.3870148549         337.0678103981       g        Ag (1)
  133    27          12.3870148549         337.0678103981       g        Ag (1)
  134   151          12.3870148549         337.0678103981       g       B3g (6)
  135   152          13.6559247492         371.5966040322      Hg       B3g (6)
  136   106          13.6559247492         371.5966040322      Hg       B1g (4)
  137   172          13.6559247492         371.5966040322      Hg       B2g (7)
  138    28          13.6559247492         371.5966040322      Hg        Ag (1)
  139    29          13.6559247492         371.5966040322      Hg        Ag (1)
  140    30          19.1022208698         519.7978558793      Ag        Ag (1)
  141    61          21.7805904380         592.6799970864     T1u       B2u (2)
  142   133          21.7805904380         592.6799970865     T1u       B1u (5)
  143    87          21.7805904380         592.6799970865     T1u       B3u (3)
  144   173          22.1009204667         601.3966203127    XXXX      XXXX (7)
  145   153          22.1009204667         601.3966203127    XXXX      XXXX (6)
  146   174          22.1009204667         601.3966203127    XXXX      XXXX (7)
  147   154          22.1009204667         601.3966203127    XXXX      XXXX (6)
  148   107          22.1009204667         601.3966203127    XXXX      XXXX (4)
  149   108          22.1009204667         601.3966203127    XXXX      XXXX (4)
  150   155          22.1009204667         601.3966203127    XXXX      XXXX (6)
  151   175          22.1009204667         601.3966203127    XXXX      XXXX (7)
  152   109          22.1009204667         601.3966203127    XXXX      XXXX (4)
  153    31          22.1009204667         601.3966203128    XXXX      XXXX (1)
  154    32          22.1009204667         601.3966203128    XXXX      XXXX (1)
  155    33          22.1009204667         601.3966203128    XXXX      XXXX (1)
  156    34          22.1009204667         601.3966203128    XXXX      XXXX (1)
  157    62          26.1525016172         711.6457483755               B2u (2)
  158   134          26.1525016172         711.6457483755               B1u (5)
  159   135          26.1525016172         711.6457483755               B1u (5)
  160    88          26.1525016172         711.6457483755               B3u (3)
  161    63          26.1525016172         711.6457483755               B2u (2)
  162    89          26.1525016172         711.6457483755               B3u (3)
  163   187          26.1525016172         711.6457483755                Au (8)
  164    90          26.1525016172         711.6457483755               B3u (3)
  165   136          26.1525016172         711.6457483755               B1u (5)
  166    64          26.1525016172         711.6457483755               B2u (2)
  167   188          26.1525016172         711.6457483755                Au (8)
  168   137          27.7925448235         756.2735928533       u       B1u (5)
  169    65          27.7925448235         756.2735928533       u       B2u (2)
  170    91          27.7925448235         756.2735928533       u       B3u (3)
  171   138          27.7925448235         756.2735928533       u       B1u (5)
  172   189          27.7925448235         756.2735928533       u        Au (8)
  173    92          27.7925448235         756.2735928533       u       B3u (3)
  174    66          27.7925448235         756.2735928533       u       B2u (2)
  175   176          30.8056462430         838.2642508024       g       B2g (7)
  176   156          30.8056462430         838.2642508024       g       B3g (6)
  177   110          30.8056462430         838.2642508024       g       B1g (4)
  178   177          30.8056462430         838.2642508024       g       B2g (7)
  179    35          30.8056462430         838.2642508024       g        Ag (1)
  180   111          30.8056462430         838.2642508024       g       B1g (4)
  181   157          30.8056462430         838.2642508024       g       B3g (6)
  182    36          30.8056462430         838.2642508024       g        Ag (1)
  183    37          30.8056462430         838.2642508024       g        Ag (1)
  184    38          33.8210278584         920.3169560362      Hg        Ag (1)
  185   112          33.8210278584         920.3169560362      Hg        Ag (4)
  186    39          33.8210278584         920.3169560362      Hg       B1g (1)
  187   178          33.8210278584         920.3169560362      Hg       B2g (7)
  188   158          33.8210278584         920.3169560362      Hg       B3g (6)
  189    40          98.7350348566        2686.7168884953      Ag        Ag (1)


  VSCF finished.

 @CHECKOUT-I, Total execution time (CPU/WALL):        3.49/       3.56 seconds.
--executable xvscf finished with status     0 in        3.61 seconds (walltime).
 --invoking executable--
/cvmfs/restricted.computecanada.ca/easybuild/software/2020/avx2/Compiler/intel2020/cfour/2.1/bin/xvtran
 @GETMEM-I,  Allocated   19073 MB of main memory.
  Full UHF integral transformation
  The following   1 alpha MOs will be dropped.
    1
  There are 188 active alpha molecular orbitals.
  The following   1 beta MOs will be dropped.
    1
  There are 188 active beta molecular orbitals.
  Transformation of IIII integrals :
  2 passes through the AO integral file were required.
      482406 AO integrals were read.
      558594 MO integrals (Spin case AAAA) were written to HF2AA.
      558594 MO integrals (Spin case BBBB) were written to HF2BB.
     1114659 MO integrals (Spin case AABB) were written to HF2AB.
  Transformation of IIJJ integrals :
  2 passes through the AO integral file were required.
     2366886 AO integrals were read.
     2640591 MO integrals (Spin case AAAA) were written to HF2AA.
     2640591 MO integrals (Spin case BBBB) were written to HF2BB.
     5281181 MO integrals (Spin case AABB) were written to HF2AB.
  Transformation of IJIJ integrals :
  2 passes through the AO integral file were required.
     4119751 AO integrals were read.
     4892091 MO integrals (Spin case AAAA) were written to HF2AA.
     4892091 MO integrals (Spin case BBBB) were written to HF2BB.
     9768945 MO integrals (Spin case AABB) were written to HF2AB.
  Transformation of IJKL integrals :
  2 passes through the AO integral file were required.
    10122387 AO integrals were read.
    11732448 MO integrals (Spin case AAAA) were written to HF2AA.
    11732448 MO integrals (Spin case BBBB) were written to HF2BB.
    23464896 MO integrals (Spin case AABB) were written to HF2AB.
  Summary of active molecular orbitals: 
------------------------------------------------------------------------
                         * Spin case alpha *
 
  Index      Eigenvalue    Symmetry    Index      Eigenvalue    Symmetry
------------------------------------------------------------------------
     1        -2.0585097        1        95         1.6654766        4
     2        -1.3269140        2        96         1.6654766        4
     3        -1.3269140        3        97         2.0587225        4
     4        -1.3269140        5        98         4.8974026        4
     5        -0.1449285        1        99         4.8974026        4
     6         0.0869518        1       100         5.3937496        4
     7         0.0869518        1       101         8.8261629        4
     8         0.2485826        1       102         8.8261629        4
     9         0.6660345        1       103         8.8261629        4
    10         0.6660345        1       104        12.3166949        4
    11         1.5873933        1       105        12.3166949        4
    12         1.6654766        1       106        13.5227806        4
    13         1.6654766        1       107        22.0613410        4
    14         1.6654766        1       108        22.0613410        4
    15         2.0587225        1       109        22.0613410        4
    16         2.0587225        1       110        30.7294078        4
    17         4.8974026        1       111        30.7294078        4
    18         4.8974026        1       112        33.7367378        4
    19         4.8974026        1       113        -0.0991681        5
    20         5.3937496        1       114         0.0877620        5
    21         5.3937496        1       115         0.5010615        5
    22         5.6897138        1       116         0.5010615        5
    23         8.8261629        1       117         0.7156386        5
    24         8.8261629        1       118         1.8438677        5
    25         8.8261629        1       119         1.8438677        5
    26         8.8261629        1       120         2.4776490        5
    27        12.3166949        1       121         3.9713006        5
    28        12.3166949        1       122         3.9713006        5
    29        12.3166949        1       123         3.9713006        5
    30        13.5227806        1       124         4.8196139        5
    31        13.5227806        1       125         4.8196139        5
    32        19.0114984        1       126         7.0280644        5
    33        22.0613410        1       127        10.2032583        5
    34        22.0613410        1       128        10.2032583        5
    35        22.0613410        1       129        10.2032583        5
    36        22.0613410        1       130        11.5632312        5
    37        30.7294078        1       131        11.5632312        5
    38        30.7294078        1       132        21.6889413        5
    39        30.7294078        1       133        26.0923925        5
    40        33.7367378        1       134        26.0923925        5
    41        33.7367378        1       135        26.0923925        5
    42        98.7035240        1       136        27.7006438        5
    43        -0.0991681        2       137        27.7006438        5
    44         0.0877620        2       138         0.0869518        6
    45         0.5010615        2       139         0.6660345        6
    46         0.5010615        2       140         1.6654766        6
    47         0.7156386        2       141         1.6654766        6
    48         1.8438677        2       142         2.0587225        6
    49         1.8438677        2       143         4.8974026        6
    50         2.4776490        2       144         4.8974026        6
    51         3.9713006        2       145         5.3937496        6
    52         3.9713006        2       146         8.8261629        6
    53         3.9713006        2       147         8.8261629        6
    54         4.8196139        2       148         8.8261629        6
    55         4.8196139        2       149        12.3166949        6
    56         7.0280644        2       150        12.3166949        6
    57        10.2032583        2       151        13.5227806        6
    58        10.2032583        2       152        22.0613410        6
    59        10.2032583        2       153        22.0613410        6
    60        11.5632312        2       154        22.0613410        6
    61        11.5632312        2       155        30.7294078        6
    62        21.6889413        2       156        30.7294078        6
    63        26.0923925        2       157        33.7367378        6
    64        26.0923925        2       158         0.0869518        7
    65        26.0923925        2       159         0.6660345        7
    66        27.7006438        2       160         1.6654766        7
    67        27.7006438        2       161         1.6654766        7
    68        -0.0991681        3       162         2.0587225        7
    69         0.0877620        3       163         4.8974026        7
    70         0.5010615        3       164         4.8974026        7
    71         0.5010615        3       165         5.3937496        7
    72         0.7156386        3       166         8.8261629        7
    73         1.8438677        3       167         8.8261629        7
    74         1.8438677        3       168         8.8261629        7
    75         2.4776490        3       169        12.3166949        7
    76         3.9713006        3       170        12.3166949        7
    77         3.9713006        3       171        13.5227806        7
    78         3.9713006        3       172        22.0613410        7
    79         4.8196139        3       173        22.0613410        7
    80         4.8196139        3       174        22.0613410        7
    81         7.0280644        3       175        30.7294078        7
    82        10.2032583        3       176        30.7294078        7
    83        10.2032583        3       177        33.7367378        7
    84        10.2032583        3       178         0.5010615        8
    85        11.5632312        3       179         1.8438677        8
    86        11.5632312        3       180         3.9713006        8
    87        21.6889413        3       181         3.9713006        8
    88        26.0923925        3       182         4.8196139        8
    89        26.0923925        3       183        10.2032583        8
    90        26.0923925        3       184        10.2032583        8
    91        27.7006438        3       185        11.5632312        8
    92        27.7006438        3       186        26.0923925        8
    93         0.0869518        4       187        26.0923925        8
    94         0.6660345        4       188        27.7006438        8
------------------------------------------------------------------------
------------------------------------------------------------------------
                         * Spin case beta *
 
  Index      Eigenvalue    Symmetry    Index      Eigenvalue    Symmetry
------------------------------------------------------------------------
     1        -1.5425812        1        95         1.6719723        4
[...]
   22.0613409841588        22.0613409841588        22.0613409841589     
   30.7294077643790        30.7294077643792        33.7367378028638     
  0.501061480399952        1.84386765613724        3.97130062523482     
   3.97130062523483        4.81961394648893        10.2032582834429     
   10.2032582834429        11.5632312093711        26.0923924856053     
   26.0923924856054        27.7006438369149     
  -1.54258115206805      -0.131991738802947       9.540618797798171E-002
  9.540618797798592E-002  0.284419945092134       0.725849954908500     
  0.725849954908511        1.67142327345734        1.67197233488097     
   1.67197233488098        1.67197233488098        2.19415633081037     
   2.19415633081042        4.93233987362227        4.93233987362228     
   4.93233987362229        5.55397384168420        5.55397384168425     
   5.80379093631466        8.84384279089853        8.84384279089857     
   8.84384279089858        8.84384279089859        12.3870148548984     
   12.3870148548985        12.3870148548985        13.6559247492047     
   13.6559247492047        19.1022208697899        22.1009204667173     
   22.1009204667173        22.1009204667173        22.1009204667174     
   30.8056462429770        30.8056462429771        30.8056462429771     
   33.8210278583722        33.8210278583723        98.7350348566006     
 -0.383173368390923      -8.362955731561258E-002  0.132976180730562     
  0.504473208335388       0.504473208335408       0.815111965665888     
   1.87363880952384        1.87363880952385        2.61182097843885     
   3.98203548671995        3.98203548671997        3.98203548671997     
   4.89800926705518        4.89800926705520        7.16145976122550     
   10.2392172298020        10.2392172298020        10.2392172298021     
   11.6683617801165        11.6683617801165        21.7805904379871     
   26.1525016172291        26.1525016172292        26.1525016172292     
   27.7925448234762        27.7925448234763      -0.383173368390931     
 -8.362955731561943E-002  0.132976180730543       0.504473208335393     
  0.504473208335412       0.815111965665845        1.87363880952386     
   1.87363880952387        2.61182097843895        3.98203548671996     
   3.98203548671996        3.98203548671998        4.89800926705519     
   4.89800926705521        7.16145976122562        10.2392172298020     
   10.2392172298020        10.2392172298021        11.6683617801165     
   11.6683617801166        21.7805904379888        26.1525016172292     
   26.1525016172292        26.1525016172292        27.7925448234762     
   27.7925448234763       9.540618797798781E-002  0.725849954908508     
   1.67197233488096        1.67197233488097        2.19415633081037     
   4.93233987362226        4.93233987362228        5.55397384168417     
   8.84384279089850        8.84384279089852        8.84384279089855     
   12.3870148548984        12.3870148548984        13.6559247492046     
   22.1009204667171        22.1009204667172        22.1009204667172     
   30.8056462429770        30.8056462429770        33.8210278583723     
 -0.383173368390926      -8.362955731561475E-002  0.132976180730537     
  0.504473208335386       0.504473208335388       0.815111965665807     
   1.87363880952385        1.87363880952386        2.61182097843873     
   3.98203548671995        3.98203548671996        3.98203548671997     
   4.89800926705519        4.89800926705519        7.16145976122545     
   10.2392172298020        10.2392172298020        10.2392172298021     
   11.6683617801164        11.6683617801165        21.7805904379880     
   26.1525016172291        26.1525016172291        26.1525016172292     
   27.7925448234761        27.7925448234762       9.540618797796394E-002
  0.725849954908496        1.67197233488096        1.67197233488098     
   2.19415633081035        4.93233987362227        4.93233987362228     
   5.55397384168418        8.84384279089851        8.84384279089854     
   8.84384279089857        12.3870148548984        12.3870148548985     
   13.6559247492046        22.1009204667171        22.1009204667171     
   22.1009204667172        30.8056462429770        30.8056462429771     
   33.8210278583723       9.540618797798328E-002  0.725849954908497     
   1.67197233488098        1.67197233488098        2.19415633081040     
   4.93233987362227        4.93233987362229        5.55397384168424     
   8.84384279089851        8.84384279089852        8.84384279089857     
   12.3870148548984        12.3870148548984        13.6559247492046     
   22.1009204667171        22.1009204667171        22.1009204667172     
   30.8056462429770        30.8056462429770        33.8210278583723     
  0.504473208335390        1.87363880952386        3.98203548671995     
   3.98203548671995        4.89800926705521        10.2392172298021     
   10.2392172298021        11.6683617801165        26.1525016172292     
   26.1525016172292        27.7925448234762     
 @CHECKOUT-I, Total execution time (CPU/WALL):        8.77/     139.95 seconds.
--executable xvtran finished with status     0 in      140.00 seconds (walltime).
 --invoking executable--
/cvmfs/restricted.computecanada.ca/easybuild/software/2020/avx2/Compiler/intel2020/cfour/2.1/bin/xintprc
 @GETMEM-I,  Allocated   19073 MB of main memory.
  @GMOIAA-I, Processing MO integrals for spin case AA.
  @GMOIAA-I, Generation of integral list completed.
                      TYPE                NUMBER
                      ----               --------
                      PPPP              18185494
                      PPPH               1579844
                      PPHH                 35028
                      PHPH                 22338
                      PHHH                  1004
                      HHHH                    16

                     TOTAL              19823724
  @GMOIAA-I, Processing MO integrals for spin case BB.
  @GMOIAA-I, Generation of integral list completed.
                      TYPE                NUMBER
                      ----               --------
                      PPPP              19399663
                      PPPH                419042
                      PPHH                  2490
                      PHPH                  2490
                      PHHH                    38
                      HHHH                     1

                     TOTAL              19823724
  @GMOIAB-I, Processing MO integrals for spin case AB.
                      TYPE                NUMBER
                      ----               --------
                      PPPP              37548124
                      PPPH1H             1632085
                      PPPH2H              405614
                      PPHH                 17969
                      PHPH1P                2412
                      PHPH2P               23070
                      PHHH1P                 113
                      PHHH2P                 290
                      HHHH                     4

                     TOTAL              39629681

  @FORMT2-I, Second-order MP correlation energies:
  @FORMT2-I, Singles contribution will be calculated.
            ------------------------------------------------
            E(SCF)                  =    -74.372586024025 a.u.
            E2(AA)                  =     -0.032409015102 a.u.
            E2(BB)                  =      0.000000000000 a.u.
            E2(AB)                  =     -0.081305433724 a.u.
            E2(SINGLE)              =     -0.002989275574 a.u.
            E2(TOT)                 =     -0.113714448826 a.u.
            Total MP2 energy        =    -74.489289748425 a.u.
            ------------------------------------------------
            ----------------------------------------------
                     Projected spin multiplicities: 
            ----------------------------------------------
             <0|S^2|0>                  =    3.7500000000.
             <0|S^2 T2|0>               =    0.0000000000.
             Projected <0|S^2 exp(T)|0> =    3.7500000000.
             Approximate spin mult.     =    4.0000000000.
            ----------------------------------------------
   Largest T2 amplitudes for spin case AA:
   i   j   a   b             i   j   a   b             i   j   a   b
-----------------------------------------------------------------------------
[  3   2  97  16]-0.01015 [  4   3 117  72]-0.00976 [  3   2  72  47]-0.00976
[  4   2 117  47]-0.00976 [  4   2 142  15] 0.00885 [  3   2  94  10] 0.00873
[  4   3 162  15] 0.00872 [  3   2  97  10]-0.00839 [  3   2  94  16] 0.00839
[  4   2 120  47]-0.00760 [  4   3 120  72]-0.00760 [  3   2  72  50]-0.00760
[  4   2 117  50]-0.00760 [  3   2  75  47]-0.00760 [  4   3 117  75]-0.00760
-----------------------------------------------------------------------------
   Norm of T2AA vector (    12690 symmetry allowed elements):  0.0681256983.
-----------------------------------------------------------------------------
   Largest T2 amplitudes for spin case AB:
       _       _                 _       _                 _       _
   i   j   a   b             i   j   a   b             i   j   a   b
-----------------------------------------------------------------------------
[  4   1  15 112] 0.02014 [  4   1   9 112]-0.01908 [  3   1  16  66]-0.01757
[  3   1  97  40] 0.01744 [  2   1  97  66] 0.01744 [  4   1 162  66] 0.01744
[  4   1 142  40] 0.01744 [  3   1 162 112] 0.01744 [  2   1 142 112] 0.01744
[  2   1  16  40] 0.01731 [  2   1  10  40] 0.01653 [  4   1 139  40]-0.01653
[  2   1 139 112]-0.01653 [  4   1 159  66]-0.01653 [  3   1  94  40]-0.01653
-----------------------------------------------------------------------------
   Norm of T2AB vector (    17969 symmetry allowed elements):  0.1173751363.
-----------------------------------------------------------------------------
 @CHECKOUT-I, Total execution time (CPU/WALL):       14.18/      15.02 seconds.
--executable xintprc finished with status     0 in       15.16 seconds (walltime).
  calling xvcc 
 --invoking executable--
/cvmfs/restricted.computecanada.ca/easybuild/software/2020/avx2/Compiler/intel2020/cfour/2.1/bin/xvcc
 @GETMEM-I,  Allocated   19073 MB of main memory.
   CCSDT   energy will be calculated.
   The reference state is a ROHF wave function.
   The total correlation energy is -0.116759582078 a.u.
  transposing abij 
   The total correlation energy is -0.127877861079 a.u.
  Convergence information after     1 iterations: 
  Largest element of residual vector : -0.44124164E-02.
  Largest element of DIIS residual   : -0.44124164E-02.
  transposing abij 
   The total correlation energy is -0.130334599123 a.u.
  Convergence information after     2 iterations: 
  Largest element of residual vector : -0.14258750E-02.
  Largest element of DIIS residual   :  0.66491805E-03.
  transposing abij 
   The total correlation energy is -0.131170351254 a.u.
  Convergence information after     3 iterations: 
  Largest element of residual vector : -0.33000345E-03.
  Largest element of DIIS residual   : -0.37504543E-03.
  transposing abij 
   The total correlation energy is -0.131264554306 a.u.
  Convergence information after     4 iterations: 
  Largest element of residual vector : -0.12728802E-03.
  Largest element of DIIS residual   : -0.76101791E-04.
  transposing abij 
   The total correlation energy is -0.131278305939 a.u.
  Convergence information after     5 iterations: 
  Largest element of residual vector : -0.37797091E-04.
  Largest element of DIIS residual   :  0.13095472E-04.
  transposing abij 
   The total correlation energy is -0.131278830245 a.u.
  Convergence information after     6 iterations: 
  Largest element of residual vector : -0.81971598E-05.
  Largest element of DIIS residual   : -0.60449508E-05.
  transposing abij 
   The total correlation energy is -0.131279393789 a.u.
  Convergence information after     7 iterations: 
  Largest element of residual vector : -0.17174646E-05.
  Largest element of DIIS residual   : -0.30882830E-06.
  transposing abij 
   The total correlation energy is -0.131279561341 a.u.
  Convergence information after     8 iterations: 
  Largest element of residual vector : -0.20594476E-06.
  Largest element of DIIS residual   : -0.92252507E-07.
  transposing abij 
   The total correlation energy is -0.131279567271 a.u.
  Convergence information after     9 iterations: 
  Largest element of residual vector : -0.79421265E-07.
  Largest element of DIIS residual   : -0.47289370E-07.
  transposing abij 
   The total correlation energy is -0.131279570401 a.u.
  Convergence information after    10 iterations: 
  Largest element of residual vector : -0.13352781E-07.
  Largest element of DIIS residual   : -0.99352479E-08.
  transposing abij 
   The total correlation energy is -0.131279572619 a.u.
  Convergence information after    11 iterations: 
  Largest element of residual vector : -0.65032973E-08.
  Largest element of DIIS residual   :  0.41455771E-08.
  transposing abij 
   The total correlation energy is -0.131279573974 a.u.
  Convergence information after    12 iterations: 
  Largest element of residual vector :  0.74039406E-09.
  Largest element of DIIS residual   : -0.63397111E-09.
  transposing abij 
   The total correlation energy is -0.131279574349 a.u.
  Convergence information after    13 iterations: 
  Largest element of residual vector : -0.71530032E-09.
  Largest element of DIIS residual   : -0.25429038E-09.
  transposing abij 
   The total correlation energy is -0.131279574513 a.u.
  Convergence information after    14 iterations: 
  Largest element of residual vector :  0.17903829E-09.
  Largest element of DIIS residual   :  0.12363390E-09.
  transposing abij 
   The total correlation energy is -0.131279574563 a.u.
  Convergence information after    15 iterations: 
  Largest element of residual vector : -0.61253834E-10.
  Largest element of DIIS residual   : -0.18773222E-10.
  Amplitude equations converged in    15iterations.
   The total correlation energy is -0.131279574572 a.u.
   The CC iterations have converged.

            ----------------------------------------------
                     Projected spin multiplicities: 
            ----------------------------------------------
             <0|S^2|0>                  =    3.7500000000.
             <0|S^2 (T2+T1**2) |0>      =    0.0000000000.
             <0|S^2 T1|0>               =    0.0000000000.
             Projected <0|S^2 exp(T)|0> =    3.7500000000.
             Approximate spin mult.     =    4.0000000000.
            ----------------------------------------------
   Largest T1 amplitudes for spin case AA:
   i       a                 i       a                 i       a    
-----------------------------------------------------------------------------
[  1       8    ]-0.01818 [  1       5    ] 0.01419 [  1      11    ] 0.01396
[  1      22    ]-0.00314 [  2      50    ] 0.00159 [  4     120    ] 0.00159
[  3      75    ] 0.00159 [  4     117    ] 0.00090 [  3      72    ] 0.00090
[  2      47    ] 0.00090 [  2      43    ]-0.00067 [  3      68    ]-0.00067
[  4     113    ]-0.00067 [  3      81    ] 0.00053 [  4     126    ] 0.00053
-----------------------------------------------------------------------------
   Norm of T1AA vector (      113 symmetry allowed elements):  0.0273775024.
-----------------------------------------------------------------------------
   Largest T2 amplitudes for spin case AA:
   i   j   a   b             i   j   a   b             i   j   a   b
-----------------------------------------------------------------------------
[  3   2  72  47]-0.01152 [  4   3 117  72]-0.01152 [  4   2 117  47]-0.01152
[  3   2  97  16]-0.01059 [  4   2 142  15] 0.00924 [  4   3 162  15] 0.00911
[  3   2  94  10] 0.00908 [  4   2 120  47]-0.00883 [  4   3 120  72]-0.00883
[  3   2  72  50]-0.00883 [  3   2  75  47]-0.00883 [  4   2 117  50]-0.00883
[  4   3 117  75]-0.00883 [  3   2  97  10]-0.00876 [  3   2  94  16] 0.00876
-----------------------------------------------------------------------------
   Norm of T2AA vector (    12690 symmetry allowed elements):  0.0751756726.
-----------------------------------------------------------------------------
   Largest T1 amplitudes for spin case BB:
   i       a                 i       a                 i       a    
-----------------------------------------------------------------------------
[  1       5    ] 0.02129 [  1       2    ]-0.01782 [  1       8    ]-0.01232
[  1      19    ] 0.00114 [  1      29    ] 0.00058 [  1      39    ]-0.00004
[  1       9    ]-0.00000 [  1      11    ] 0.00000 [  1      10    ] 0.00000
[  1      27    ] 0.00000 [  1      17    ] 0.00000 [  1      37    ] 0.00000
[  1      26    ] 0.00000 [  1       6    ] 0.00000 [  1      36    ] 0.00000
-----------------------------------------------------------------------------
   Norm of T1BB vector (       38 symmetry allowed elements):  0.0304015748.
-----------------------------------------------------------------------------
   Largest T2 amplitudes for spin case AB:
       _       _                 _       _                 _       _
   i   j   a   b             i   j   a   b             i   j   a   b
-----------------------------------------------------------------------------
[  4   1   9 112]-0.02575 [  4   1  15 112] 0.02494 [  2   1  10  40] 0.02231
[  4   1 139  40]-0.02230 [  3   1  94  40]-0.02230 [  4   1 159  66]-0.02230
[  3   1 159 112]-0.02230 [  2   1 139 112]-0.02230 [  2   1  94  66]-0.02230
[  3   1  10  66]-0.02229 [  3   1  16  66]-0.02176 [  3   1  97  40] 0.02160
[  4   1 162  66] 0.02160 [  3   1 162 112] 0.02160 [  2   1  97  66] 0.02160
-----------------------------------------------------------------------------
   Norm of T2AB vector (    17969 symmetry allowed elements):  0.1453593451.
-----------------------------------------------------------------------------
       Summary of iterative solution of CC equations 
      -----------------------------------------------------------
                       Correlation           Total
       Iteration         Energy              Energy
      -----------------------------------------------------------
            0        -0.116759582078     -74.489345606103  DIIS 
            1        -0.127877861079     -74.500463885105  DIIS 
            2        -0.130334599123     -74.502920623149  DIIS 
            3        -0.131170351254     -74.503756375279  DIIS 
            4        -0.131264554306     -74.503850578332  DIIS 
            5        -0.131278305939     -74.503864329964  DIIS 
            6        -0.131278830245     -74.503864854270  DIIS 
            7        -0.131279393789     -74.503865417814  DIIS 
            8        -0.131279561341     -74.503865585366  DIIS 
            9        -0.131279567271     -74.503865591297  DIIS 
           10        -0.131279570401     -74.503865594427  DIIS 
           11        -0.131279572619     -74.503865596644  DIIS 
           12        -0.131279573974     -74.503865597999  DIIS 
           13        -0.131279574349     -74.503865598375  DIIS 
           14        -0.131279574513     -74.503865598538  DIIS 
           15        -0.131279574572     -74.503865598598  DIIS 
      -----------------------------------------------------------
      A miracle has come to pass. The CC iterations have converged.
      The reference energy is       -74.37258602402538 a.u.
      The correlation energy is      -0.13127957457215 a.u.
      The total energy is           -74.50386559859753 a.u.
 @CHECKOUT-I, Total execution time (CPU/WALL):      563.39/     575.71 seconds.
--executable xvcc finished with status     0 in      575.78 seconds (walltime).
  The final electronic energy is       -74.503865598597528 a.u. 
  This computation required                          785.69 seconds (walltime).
Program finished with exit code 0 at: Mon Mar 25 10:54:42 EDT 2024

