Starting run at: Tue Mar 19 09:41:03 EDT 2024
 --invoking executable--
/cvmfs/restricted.computecanada.ca/easybuild/software/2020/avx2/Compiler/intel2020/cfour/2.1/bin/xjoda


   *************************************************************************
         <<<     CCCCCC     CCCCCC   |||     CCCCCC     CCCCCC   >>>
       <<<      CCC        CCC       |||    CCC        CCC         >>>
      <<<      CCC        CCC        |||   CCC        CCC            >>>
    <<<        CCC        CCC        |||   CCC        CCC              >>>
      <<<      CCC        CCC        |||   CCC        CCC            >>>
       <<<      CCC        CCC       |||    CCC        CCC         >>>
         <<<     CCCCCC     CCCCCC   |||     CCCCCC     CCCCCC   >>>
   *************************************************************************

     ****************************************************************
     * CFOUR Coupled-Cluster techniques for Computational Chemistry *
     ****************************************************************
 

   Department of Chemistry                Institut fuer Physikalische Chemie
   University of Florida                  Universitaet Mainz
   Gainesville, FL 32611, USA             D-55099 Mainz, Germany

   Department of Chemistry                Fakultaet fuer Chemie und Biowiss.
   Johns Hopkins University               Karlsruher Institut fuer Technologie
   Baltimore, MD 21218, USA               D-76131 Karlsruhe, Germany

   Department of Chemistry                Department of Physical Chemistry
   Southern Methodist University          Eotvos Lorand University
   Dallas, TX 75275, USA                  H-1053 Budapest, Hungary

 
                       Version 2.1
 
                     gra316                                            
                     Tue Mar 19 09:41:04 EDT 2024                      
                     integer*8 version is running
 
********************************************************************************
*                          Input from ZMAT file                                *
********************************************************************************
TITLE                                                                           
O                                                                               
                                                                                
*ACES2(CALC=CCSD(T)                                                             
FROZEN_CORE=ON                                                                  
#DROPMO=1                                                                       
#INPUT_MRCC=OFF                                                                 
#CC_PROG=MRCC                                                                   
XFORM_TOL=18                                                                    
SAVE_INTS=ON                                                                    
SCF_EXPORDER=6                                                                  
SCF_EXPSTART=5                                                                  
#SCF_DAMPING=1000                                                               
SCF_EXTRAPOLATION=ON                                                            
SCF_CONV=10                                                                     
SCF_MAXCYC=9999                                                                 
CC_CONV=10                                                                      
CC_MAXCYC=999                                                                   
T3_EXTRAPOL=ON                                                                  
REFERENCE=ROHF                                                                  
CHARGE=+1                                                                       
MULT=4                                                                          
ABCDTYPE=STANDARD                                                               
OCCUPATION=2-1-1-0-1-0-0-0/2-0-0-0-0-0-0-0                                      
MEM=20                                                                          
MEM_UNIT=GB                                                                     
BASIS=SPECIAL)                                                                  
                                                                                
O:aVQZ-EMSL                                                                     
                                                                                
********************************************************************************
  @GTFLGS-W, Keyword #DROPMO not known and is ignored.
  @GTFLGS-W, Keyword #INPUT_MRCC not known and is ignored.
  @GTFLGS-W, Keyword #CC_PROG not known and is ignored.
  @GTFLGS-W, Keyword #SCF_DAMPING not known and is ignored.
    -------------------------------------------------------------------
                    CFOUR Control Parameters 
    -------------------------------------------------------------------
        External           Internal           Value            Units
          Name               Name
    -------------------------------------------------------------------
       ABCDTYPE             IABCDT         STANDARD    [  0]    ***   
       ANHARMONIC           IANHAR         OFF         [  0]    ***   
       ANH_ALGORIT          IANALG         STANDARD    [  0]    ***   
       ANH_DERIVAT          IANDER         SECOND      [  1]    ***   
       ANH_MODE             ANHMOD         VIBRATION   [  0]    ***   
       ANH_STEPSIZ          ICUBST             50000          x 10-6  
       ANH_SYMMETR          IANHSM         ABELIAN     [  0]    ***   
       AO_LADDERS           IAOLAD         SINGLEPASS  [  1]    ***   
       AV_SCF               IAVSCF         OFF         [  0]    ***   
       BASIS                IBASIS         SPECIAL     [  0]    ***   
       BOTHVECTORS          BOTHVC         OFF         [  0]    ***   
       BOX_POTENT           IPIAB          OFF         [  0]    ***   
       BREIT                IBREIT         OFF         [  0]    ***   
       BRUCK_CONV           IBRTOL          10D-  4             ***   
       BRUECKNER            IBRKNR         OFF         [  0]    ***   
       BUFFERSIZE           IBUFFS              4096            ***   
       CACHE_RECS           ICHREC             10               ***   
       CALCLEVEL            ICLLVL         CCSD(T)     [ 22]    ***   
       CCORBOPT             ICCORB         OFF         [  0]  x 0.01  
       CC_CONV              ICCCNV          10D- 10             ***   
       CC_EXPORDER          ICCEOR              5               ***   
       CC_EXTRAPOL          ICCEXT         DIIS        [  1]    ***   
       CC_GUESS             ICCGES         MP2         [  0]    ***   
       CC_MAXCYC            ICCCYC            999              cycles 
       CC_PROGRAM           ICCPRO         VCC         [  0]    ***   
       CHARGE               ICHRGE              1               ***   
       CHOLESKY             ICHOLE         OFF         [  0]    ***   
       CIS_CONV             ICISTL              5               ***   
       COMM_SIZE            IPSIZE            ***               ***   
       CONSTANT             ICONST         OLD         [  1]    ***   
       CONTINUUM            ICONTU         NONE        [  0]    ***   
       CONTRACTION          ICNTYP         GENERAL     [  1]    ***   
       COORDINATES          ICOORD         INTERNAL    [  0]    ***   
       CPHF_CONVER          ICPHFT          10D- 16             ***   
       CPHF_MAXCYC          ICPHFC             64              cycles 
       CUBIC                ICUBIC         OFF         [  0]    ***   
       CURVILINEAR          ICURVY         OFF         [  0]    ***   
       DBOC                 IDBOC          OFF         [  0]    ***   
       DCT                  IDCT           OFF         [  0]    ***   
       DERIV_LEV            IDRLVL         ZERO        [  0]    ***   
       DEVMEM_SIZE          IDVMEM         *********           MByte  
       DIAG_MRCC            IEOMST          10D-  0             ***   
       DIFF_TYPE            IDIFTY         RELAXED     [  0]    ***   
       DIRECT               IDIRCT         OFF         [  0]    ***   
       DROPMO               IDRPMO      NONE         
       ECP                  IECP           OFF         [  0]    ***   
       EIGENVECTOR          IVEC                1               ***   
       EL_ANHARM            IELANH         OFF         [  0]    ***   
       EOMFOLLOW            IEOMSR         ENERGY      [  0]    ***   
       EOMIP                IEOMIP         OFF         [  0]    ***   
       EOMLEVEL             HBARFM         SAME        [  0]    ***   
       EOM_MRCC             IMRCCE         NEW         [  1]    ***   
       EOM_NONIT            EOMNON         OFF         [  0]    ***   
       EOM_NSING            IEOMSI          10D-  0             ***   
       EOM_NSTATES          IMRCCD         DAVIDSON    [  0]    ***   
       EOM_NTRIP            IEOMTR          10D-  0             ***   
       EOM_ORDER            IEXORD         ENERGY      [  0]    ***   
       EOM_PROPSTA          IEOMST              0               ***   
       ESTATE_CONV          IEXTOL          10D-  5             ***   
       ESTATE_DIAG          IEXDIG         ITERATIVE   [  0]    ***   
       ESTATE_LOCK          IESLOC         ON          [  1]    ***   
       ESTATE_MAXC          IEXMXC             40               ***   
       ESTATE_PROP          IEXPRP         OFF         [  0]    ***   
       EVAL_HESS            IRECAL              0            # of cyc.
       EXCITATION           IEXCIT              0               ***   
       EXCITE               IEXCIT         NONE        [  0]    ***   
       EXTERN_POT           IEXPOT         OFF         [  0]    ***   
       FCGRADNEW            IFCGNW         OFF         [  0]    ***   
       FC_FIELD             IFINFC              0             x 10-6  
       FD_CALTYPE           IFDCAL         GRADONLY    [  0]    ***   
       FD_PROJECT           IFDPRJ         OFF         [  1]    ***   
       FD_STEPSIZE          IDISFD              0            10-4 bohr
       FD_USEGROUP          IFDGRP         FULL        [  0]    ***   
       FILE_RECSIZ          IFLREC              4096           words  
       FINITE_PERT          IFIPER              0             x 10-6  
       FIXGEOM              IFIXGM         OFF         [  0]    ***   
       FOCK                 IFOCK          AO          [  1]    ***   
       FREQ_ALGORI          IVIALG         STANDARD    [  0]    ***   
       FROZEN_CORE          IFROCO         ON          [  1]    ***   
       GAMMA_ABCD           IGABCD         STORE       [  0]    ***   
       GAMMA_ABCI           IGABCI         STORE       [  0]    ***   
       GENBAS_1             IGNBS1              0               ***   
       GENBAS_2             IGNBS2              0               ***   
       GENBAS_3             IGNBS3              0               ***   
       GENBAS_4             IGNBS4              0               ***   
       GEO_CONV             ICONTL              5              H/bohr 
       GEO_MAXCYC           IOPTCY             50               ***   
       GEO_MAXSTEP          IMXSTP            300            millibohr
       GEO_METHOD           INR            SINGLE_POINT[  5]    ***   
       GIAO                 IGIAO          OFF         [  1]    ***   
       GIMIC                IGIMIC         OFF         [  0]    ***   
       GRID                 IGRID          OFF         [  0]    ***   
       GRID_ALGO            IGALGO         SERIAL      [  0]    ***   
       GUESS                IGUESS         MOREAD      [  0]    ***   
       HBAR                 IHBAR          OFF         [  0]    ***   
       HESS_TYPE            IHESTP         SCF         [  0]    ***   
       HF2_FILE             IHF2Fl         USE         [  1]    ***   
       HFSTABILITY          ISTABL         OFF         [  0]    ***   
       INCORE               INCORE         OFF         [  0]    ***   
       INPUT_MRCC           IMRCC          ON          [  1]    ***   
       INTEGRALS            INTTYP         VMOL        [  1]    ***   
       JODA_PRINT           IJPRNT              0               ***   
       KEYWORD_OUT          IDMPKW         NO          [  0]    ***   
       LINDEP_TOL           ILINDP              8               ***   
       LINEQ_CONV           IZTACN          10D-  7           cycles  
       LINEQ_EXPOR          ILMAXD              5               ***   
       LINEQ_MAXCY          ILMAXC            100               ***   
       LINEQ_TYPE           ILTYPE         DIIS        [  1]    ***   
       LOCK_ORBOCC          ILOCOC         OFF         [  0]    ***   
       MEMORY_SIZE          IMEMSZ         *********           words  
       MEM_UNIT             IMEMU          GB          [  3]    ***   
       MRCC                 IMRCCC         OFF         [  0]    ***   
       MULTIPLICTY          IMULTP              4               ***   
       NACOUPLING           IVCOUP         OFF         [  0]    ***   
       NEGEVAL              IDIE           ABORT       [  0]    ***   
       NEWNORM              INEWNO         OFF         [  0]    ***   
       NON-HF               INONHF         ON          [  1]    ***   
       NTOP_TAMP            ITOPT2             15               ***   
       NUC_MODEL            INUCMO         POINT       [  0]    ***   
       OCCUPATION           IOCCU  A   2,  1,  1,  0,  1,  0,  0,  0,
                                   B   2,  0,  0,  0,  0,  0,  0,  0,
       OPEN-SHELL           IOPEN          SPIN-ORBITAL[  0]    ***   
       OPTVIB               IOPTVB         OFF         [  0]    ***   
       ORBITALS             IORBTP         SEMICANONICA[  1]    ***   
       PARALLEL             IPARAL         ON          [  1]    ***   
       PARA_INT             IPINTS         ON          [  1]    ***   
       PARA_PRINT           IPPRIN              0               ***   
       PERT_ORB             IPTORB         STANDARD    [  0]    ***   
       POINTS               IGRDFD              0               ***   
       PRINT                IPRNT               0               ***   
       PROPS                IPROPS         OFF         [  0]    ***   
       PROP_INTEGR          IINTYP         INTERNAL    [  0]    ***   
       PSI                  IPSI           OFF         [  0]    ***   
       QC_ALG               IQCALG         FLM         [  0]    ***   
       QC_LINALG            IQCLIN         TRIDIAG     [  2]    ***   
       QC_MAXCYC            IQCMAX          10D-100           cycles  
       QC_MAXSCFCY          IQCMSC          10D- 15           cycles  
       QC_RTRUST            IQCRTR          10D-  0           x 10-3  
       QC_SKIPSCF           IQCSKI         OFF         [  0]    ***   
       QC_START             IQCSTA          10D-  1             ***   
       QRHFGUESS            IQGUES         OFF         [  0]    ***   
       QUARTIC              IQUART         OFF         [  0]    ***   
       RAMAN_INT            IRAMIN         OFF         [  0]    ***   
       RAMAN_ORB            IRAMRE         UNRELAXED   [  0]    ***   
       RDO                  IRDOFM         OFF         [  0]    ***   
       REDUCE_REPR          REDREP         Ir          [  0]    ***   
       REFERENCE            IREFNC         ROHF        [  2]    ***   
       RELATIVIST           IRELAT         OFF         [  0]    ***   
       RELAX_DENS           IRDENS         OFF         [  0]    ***   
       RESET_FLAGS          IRESET         OFF         [  0]    ***   
       RESTART_CC           ICCRES         OFF         [  0]    ***   
       ROT_EVEC             ROTVEC              0               ***   
       SAVE_INTS            ISVINT         ON          [  1]    ***   
       SCALE_ON             ISTCRT              0               ***   
       SCF_CONV             ISCFCV          10D- 10             ***   
       SCF_DAMPING          IDAMP               0             x 10-3  
       SCF_EXPORDE          IRPPOR              6               ***   
       SCF_EXPSTAR          IRPPLS              5               ***   
       SCF_EXTRAPO          IRPP           ON          [  1]    ***   
       SCF_MAXCYC           ISCFCY            ***              cycles 
       SCF_NOSTOP           ISCFST         OFF         [  0]    ***   
       SCF_PRINT            ISCFPR              0               ***   
       SCF_PROG             ISCFPR         SCF         [  0]    ***   
       SD_FIELD             IFINSD              0             x 10-6  
       SOPERT               IPERSO         OFF         [  0]    ***   
       SPHERICAL            IDFGHI         ON          [  1]    ***   
       SPINORBIT            ISOCAL         OFF         [  0]    ***   
       SPINROTATIO          ISRCON         OFF         [  0]    ***   
       SPIN_FLIP            ISPFLP         OFF         [  0]    ***   
       SPIN_ORBIT           ISPORB         OFF         [  0]    ***   
       SPIN_SCAL            ISCSMP         OFF         [  0]    ***   
       STEEPSCALE           ISTPSC              1000          x 10-3  
       SUBGROUP             ISUBGP         DEFAULT     [  0]    ***   
       SUBGRPAXIS           ISBXYZ         X           [  0]    ***   
       SYMMETRY             ISYM           ON          [  0]    ***   
       SYM_CHECK            ISYMCK         OVERRIDE    [  1]    ***   
       T3_EXTRAPOL          IT3EXT         ON          [  1]    ***   
       T4_EXTRAPOL          IT4EXP         OFF         [  0]    ***   
       TAMP_SUM             IEVERY              5               ***   
       TESTSUITE            ITESTS         OFF         [  0]    ***   
       THERMOCH             ITHERM         OFF         [  0]    ***   
       TOL_CHOLESK          ITOLCH          10D-  4             ***   
       TRANGRAD             IRESRM         OFF         [  0]    ***   
       TRANS_INV            ITRAIN         USE         [  0]    ***   
       TREAT_PERT           ITREAT         SIMULTANEOUS[  0]    ***   
       TRIP_ALGORI          ITRALG         NORMAL      [  0]    ***   
       UIJ_THRESHO          IUIJTH              1               ***   
       UNITS                IUNITS         ANGSTROM    [  0]    ***   
       UNOS                 IUNOS          OFF         [  0]    ***   
       UPDATE_HESS          IHUPDT         ON          [  1]    ***   
       VIBPHASE             ISETPH         STANDARD    [  0]    ***   
       VIBRATION            IVIB           NO          [  0]    ***   
       VIB_ALGORIT          IGEALG         STANDARD    [  0]    ***   
       VNATORB              IVNORB         OFF         [  0]    ***   
       VTRAN                IVTRAN         FULL/PARTIAL[  0]    ***   
       XFIELD               IXEFLD              0             x 10-6  
       XFORM_TOL            IXFTOL          10D- 18             ***   
       YFIELD               IYEFLD              0             x 10-6  
       ZFIELD               IZEFLD              0             x 10-6  
       ZSCALE_EXP           IZEXPS         OFF         [  0]    ***   
    -------------------------------------------------------------------
   1 entries found in Z-matrix 
   Job Title : TITLE                                                                           
   Rotational constants (in cm-1): 

   Rotational constants (in MHz): 

********************************************************************************
   The full molecular point group is I h .
   The largest Abelian subgroup of the full molecular point group is D2h .
   The computational point group is D2h .
********************************************************************************
  ECPDATA file not present.   Using default ECPDATA. 
  @GTFLGS-W, Keyword #DROPMO not known and is ignored.
  @GTFLGS-W, Keyword #INPUT_MRCC not known and is ignored.
  @GTFLGS-W, Keyword #CC_PROG not known and is ignored.
  @GTFLGS-W, Keyword #SCF_DAMPING not known and is ignored.
  There is   1 frozen-core orbital.
  There is   1 frozen-core orbital.
  There are   80 basis functions.
 @GEOPT-W, Archive file not created for single-point calculation.
 @CHECKOUT-I, Total execution time (CPU/WALL):        0.30/       7.47 seconds.
--executable xjoda finished with status     0 in        7.54 seconds (walltime).
 --invoking executable--
/cvmfs/restricted.computecanada.ca/easybuild/software/2020/avx2/Compiler/intel2020/cfour/2.1/bin/xvmol
 SERIAL VERSION OF MOLECULE STARTED
********************************************************************************
                    INPUT FROM MOL FILE
********************************************************************************
INTGRL        1    0    1    0    0    0    0    0    0                         
         *** CFOUR Program System (Release V0.1) ***                            
TITLE                                                                           
    1    3 X  Y   Z   0.10E-08              0    0                              
   9999.00      3.00                                                            
          8.00000000    1    5    1    1    1    1    1                         
O #1   0.000000000000000   0.000000000000000   0.000000000000000                
   13    6                                                                      
   61420.0000000000       9.000000000000001E-005 -2.000000000000000E-005        
  0.000000000000000E+000  0.000000000000000E+000  0.000000000000000E+000        
  0.000000000000000E+000                                                        
   9199.00000000000       6.980000000000001E-004 -1.590000000000000E-004        
  0.000000000000000E+000  0.000000000000000E+000  0.000000000000000E+000        
  0.000000000000000E+000                                                        
   2091.00000000000       3.664000000000000E-003 -8.290000000000000E-004        
  0.000000000000000E+000  0.000000000000000E+000  0.000000000000000E+000        
  0.000000000000000E+000                                                        
   590.900000000000       1.521800000000000E-002 -3.508000000000000E-003        
  0.000000000000000E+000  0.000000000000000E+000  0.000000000000000E+000        
  0.000000000000000E+000                                                        
   192.300000000000       5.242300000000000E-002 -1.215600000000000E-002        
  0.000000000000000E+000  0.000000000000000E+000  0.000000000000000E+000        
  0.000000000000000E+000                                                        
   69.3200000000000       0.145921000000000      -3.626100000000000E-002        
  0.000000000000000E+000  0.000000000000000E+000  0.000000000000000E+000        
  0.000000000000000E+000                                                        
   26.9700000000000       0.305258000000000      -8.299200000000000E-002        
  0.000000000000000E+000  0.000000000000000E+000  0.000000000000000E+000        
  0.000000000000000E+000                                                        
   11.1000000000000       0.398508000000000      -0.152090000000000             
  0.000000000000000E+000  0.000000000000000E+000  0.000000000000000E+000        
  0.000000000000000E+000                                                        
   4.68200000000000       0.216980000000000      -0.115331000000000             
  0.000000000000000E+000  0.000000000000000E+000  0.000000000000000E+000        
  0.000000000000000E+000                                                        
   1.42800000000000       1.759400000000000E-002  0.288979000000000             
   1.00000000000000       0.000000000000000E+000  0.000000000000000E+000        
  0.000000000000000E+000                                                        
  0.554700000000000      -2.502000000000000E-003  0.586128000000000             
  0.000000000000000E+000   1.00000000000000       0.000000000000000E+000        
  0.000000000000000E+000                                                        
  0.206700000000000       9.540000000000000E-004  0.277624000000000             
  0.000000000000000E+000  0.000000000000000E+000   1.00000000000000             
  0.000000000000000E+000                                                        
  6.959000000000000E-002  0.000000000000000E+000  0.000000000000000E+000        
  0.000000000000000E+000  0.000000000000000E+000  0.000000000000000E+000        
   1.00000000000000                                                             
    7    5                                                                      
   63.4200000000000       6.044000000000000E-003  0.000000000000000E+000        
  0.000000000000000E+000  0.000000000000000E+000  0.000000000000000E+000        
   14.6600000000000       4.179900000000000E-002  0.000000000000000E+000        
  0.000000000000000E+000  0.000000000000000E+000  0.000000000000000E+000        
   4.45900000000000       0.161143000000000       0.000000000000000E+000        
  0.000000000000000E+000  0.000000000000000E+000  0.000000000000000E+000        
   1.53100000000000       0.356731000000000        1.00000000000000             
  0.000000000000000E+000  0.000000000000000E+000  0.000000000000000E+000        
  0.530200000000000       0.448309000000000       0.000000000000000E+000        
   1.00000000000000       0.000000000000000E+000  0.000000000000000E+000        
  0.175000000000000       0.244940000000000       0.000000000000000E+000        
  0.000000000000000E+000   1.00000000000000       0.000000000000000E+000        
  5.348000000000000E-002  0.000000000000000E+000  0.000000000000000E+000        
  0.000000000000000E+000  0.000000000000000E+000   1.00000000000000             
    4    4                                                                      
   3.77500000000000        1.00000000000000       0.000000000000000E+000        
  0.000000000000000E+000  0.000000000000000E+000                                
   1.30000000000000       0.000000000000000E+000   1.00000000000000             
  0.000000000000000E+000  0.000000000000000E+000                                
  0.444000000000000       0.000000000000000E+000  0.000000000000000E+000        
   1.00000000000000       0.000000000000000E+000                                
  0.154000000000000       0.000000000000000E+000  0.000000000000000E+000        
  0.000000000000000E+000   1.00000000000000                                     
    3    3                                                                      
   2.66600000000000        1.00000000000000       0.000000000000000E+000        
  0.000000000000000E+000                                                        
  0.859000000000000       0.000000000000000E+000   1.00000000000000             
  0.000000000000000E+000                                                        
  0.324000000000000       0.000000000000000E+000  0.000000000000000E+000        
   1.00000000000000                                                             
    2    2                                                                      
   1.84600000000000        1.00000000000000       0.000000000000000E+000        
  0.714000000000000       0.000000000000000E+000   1.00000000000000             
FINISH                                                                          
 
********************************************************************************
OMP: Info #274: omp_set_nested routine deprecated, please use omp_set_max_active_levels instead.
 ONE- AND TWO-ELECTRON INTEGRALS OVER SYMMETRY-ADAPTED AOS ARE CALCULATED.

  SPHERICAL HARMONICS ARE USED.
  
  INTEGRALS LESS THAN  0.10E-13 ARE NEGLECTED.

  NUCLEAR REPULSION ENERGY :    0.0000000000 A.U.
  @MOLECU-I, ONE ELECTRON INTEGRALS (CPU/WALL):        0.03/       0.08 SECONDS.
  @TWOEL-I,      19479 INTEGRALS OF SYMMETRY TYPE  I I I I
  @TWOEL-I,     132339 INTEGRALS OF SYMMETRY TYPE  I J I J
  @TWOEL-I,      82795 INTEGRALS OF SYMMETRY TYPE  I I J J
  @TWOEL-I,     286616 INTEGRALS OF SYMMETRY TYPE  I J K L
  @TWOEL-I, TOTAL NUMBER OF 2-E INTEGRALS     521229.
  @MOLECU-I, TWO ELECTRON INTEGRALS (CPU/WALL):        1.04/       1.38 SECONDS.
 @CHECKOUT-I, Total execution time (CPU/WALL):        1.09/       2.34 seconds.

OMP_NUM_THREADS not specified; defaulting to 1
Running with 1 threads/proc

--executable xvmol finished with status     0 in        2.39 seconds (walltime).
 --invoking executable--
/cvmfs/restricted.computecanada.ca/easybuild/software/2020/avx2/Compiler/intel2020/cfour/2.1/bin/xvmol2ja
 @GETMEM-I,  Allocated   19073 MB of main memory.
 @CHECKOUT-I, Total execution time (CPU/WALL):        0.12/       0.04 seconds.
--executable xvmol2ja finished with status     0 in        0.08 seconds (walltime).
 --invoking executable--
/cvmfs/restricted.computecanada.ca/easybuild/software/2020/avx2/Compiler/intel2020/cfour/2.1/bin/xvscf
  There are   80 functions in the AO basis.

  There are 8 irreducible representations.

       Irrep        # of functions
         1                 20
         2                 11
         3                 11
         4                  8
         5                 11
         6                  8
         7                  8
         8                  3


  Parameters for SCF calculation: 
        SCF reference function: ROHF  
  Maximum number of iterations: 9999
     Full symmetry point group: I h 
     Computational point group: D2h 
        Initial density matrix: MOREAD                 
     SCF convergence tolerance: 10**(-10)
  DIIS convergence acceleration:  ON
          Latest start for DIIS:   5
                     DIIS order:   6

     Alpha population by irrep:   2    1    1    0    1    0    0    0
      Beta population by irrep:   2    0    0    0    0    0    0    0


  Memory information:     390598 words required.
  Fock matrices are constructed from AO integral file.
 @GETMEM-I,  Allocated       2 MB of main memory.
  Initialization and symmetry analysis required      0.005 seconds.

 total no. of electrons in initial guess :  0.000000000000000E+000
 total no. of electrons in initial guess :  0.000000000000000E+000
  --------------------------------------------------------------------
  Iteration         Total Energy            Largest Density Difference
  --------------------------------------------------------------------
       0             0.000000000000000              0.0000000000D+00
   current occupation vector 
     2  1  1  0  1  0  0  0
     2  0  0  0  0  0  0  0
       1           -69.408887938312034              0.8865464816D+01
   current occupation vector 
     2  1  1  0  1  0  0  0
     2  0  0  0  0  0  0  0
       2           -71.299798919994601              0.8770281747D+01
   current occupation vector 
     2  1  1  0  1  0  0  0
     2  0  0  0  0  0  0  0
       3           -74.137978180968332              0.1827945640D+01
   current occupation vector 
     2  1  1  0  1  0  0  0
     2  0  0  0  0  0  0  0
       4           -74.346343095320094              0.8472051448D+00
   current occupation vector 
     2  1  1  0  1  0  0  0
     2  0  0  0  0  0  0  0
       5           -74.369463322162318              0.2245593374D+00
   current occupation vector 
     2  1  1  0  1  0  0  0
     2  0  0  0  0  0  0  0
       6           -74.371194794778049              0.4170554147D-01
   current occupation vector 
     2  1  1  0  1  0  0  0
     2  0  0  0  0  0  0  0
       7           -74.371246373148409              0.4914601679D-02
   current occupation vector 
     2  1  1  0  1  0  0  0
     2  0  0  0  0  0  0  0
       8           -74.371247425768644              0.1235233839D-02
   current occupation vector 
     2  1  1  0  1  0  0  0
     2  0  0  0  0  0  0  0
       9           -74.371248022667089              0.5042962907D-03
   current occupation vector 
     2  1  1  0  1  0  0  0
     2  0  0  0  0  0  0  0
      10           -74.371248022911686              0.1430566566D-04
   current occupation vector 
     2  1  1  0  1  0  0  0
     2  0  0  0  0  0  0  0
      11           -74.371248022912127              0.5456164576D-06
   current occupation vector 
     2  1  1  0  1  0  0  0
     2  0  0  0  0  0  0  0
      12           -74.371248022912098              0.1208758485D-07
   current occupation vector 
     2  1  1  0  1  0  0  0
     2  0  0  0  0  0  0  0
      13           -74.371248022912098              0.1174644784D-08
   current occupation vector 
     2  1  1  0  1  0  0  0
     2  0  0  0  0  0  0  0

  SCF has converged.

 Density matrix saved to file den.dat
 total alpha spin electron number:   5.00000000000001     
 total  beta spin electron number:   2.00000000000000     
     E(ROHF)=       -74.371248022912283              0.4198463799D-10

  Eigenvector printing suppressed.


       The average multiplicity is    4.0000000
  The expectation value of S**2 is    3.7500000

 @PUTMOS-I, Writing converged MOs to NEWMOS. 
 @PUTMOS-I, Symmetry   1 Full Blocks  5 Partial Blocksize   0
 @PUTMOS-I, Symmetry   2 Full Blocks  2 Partial Blocksize   3
 @PUTMOS-I, Symmetry   3 Full Blocks  2 Partial Blocksize   3
 @PUTMOS-I, Symmetry   4 Full Blocks  2 Partial Blocksize   0
 @PUTMOS-I, Symmetry   5 Full Blocks  2 Partial Blocksize   3
 @PUTMOS-I, Symmetry   6 Full Blocks  2 Partial Blocksize   0
 @PUTMOS-I, Symmetry   7 Full Blocks  2 Partial Blocksize   0
 @PUTMOS-I, Symmetry   8 Full Blocks  0 Partial Blocksize   3
 @PUTFOCK-I, Writing converged Fock matrix to NEWFOCK. 
 @PUTFOCK-I, Symmetry   1 Full Blocks  5 Partial Blocksize   0
 @PUTFOCK-I, Symmetry   2 Full Blocks  2 Partial Blocksize   3
 @PUTFOCK-I, Symmetry   3 Full Blocks  2 Partial Blocksize   3
 @PUTFOCK-I, Symmetry   4 Full Blocks  2 Partial Blocksize   0
 @PUTFOCK-I, Symmetry   5 Full Blocks  2 Partial Blocksize   3
 @PUTFOCK-I, Symmetry   6 Full Blocks  2 Partial Blocksize   0
 @PUTFOCK-I, Symmetry   7 Full Blocks  2 Partial Blocksize   0
 @PUTFOCK-I, Symmetry   8 Full Blocks  0 Partial Blocksize   3
  @DMPJOB-I, Rotating orbitals to semicanonical basis.
             *** Eigenvalues correspond to new basis. ***



 
  ORBITAL EIGENVALUES (ALPHA)  (1H = 27.2113834 eV)

       MO #        E(hartree)               E(eV)           FULLSYM    COMPSYM
       ----   --------------------   --------------------   -------   ---------
    1     1         -21.4119808727        -582.6496208795      Ag        Ag (1)
    2     2          -2.0586964001         -56.0199770469      Ag        Ag (1)
    3    51          -1.3267116482         -36.1016593191     T1u       B1u (5)
    4    32          -1.3267116482         -36.1016593191     T1u       B3u (3)
    5    21          -1.3267116482         -36.1016593191     T1u       B2u (2)
  +++++++++++++++++++++++++++++++++++++++++++++++++++++++++++++++++++++++++++++
    6     3          -0.1339508907          -3.6449890434      Ag        Ag (1)
    7    22          -0.0846193774          -2.3026103213     T1u       B2u (2)
    8    52          -0.0846193774          -2.3026103213     T1u       B1u (5)
    9    33          -0.0846193774          -2.3026103213     T1u       B3u (3)
   10    62           0.1653385675           4.4990911521      Hg       B3g (6)
   11    43           0.1653385675           4.4990911521      Hg       B1g (4)
   12     4           0.1653385675           4.4990911521      Hg        Ag (1)
   13    70           0.1653385675           4.4990911521      Hg       B2g (7)
   14     5           0.1653385675           4.4990911521      Hg        Ag (1)
   15    34           0.3237441199           8.8095253690     T1u       B3u (3)
   16    23           0.3237441199           8.8095253690     T1u       B2u (2)
   17    53           0.3237441199           8.8095253690     T1u       B1u (5)
   18     6           0.4799955686          13.0613434474      Ag        Ag (1)
   19    35           0.9568156728          26.0362781144       u       B3u (3)
   20    24           0.9568156728          26.0362781144       u       B2u (2)
   21    78           0.9568156728          26.0362781144       u        Au (8)
   22    25           0.9568156728          26.0362781144       u       B2u (2)
   23    54           0.9568156728          26.0362781144       u       B1u (5)
   24    36           0.9568156728          26.0362781144       u       B3u (3)
   25    55           0.9568156728          26.0362781144       u       B1u (5)
   26    63           1.0372883101          28.2260499027      Hg       B3g (6)
   27     7           1.0372883101          28.2260499027      Hg        Ag (1)
   28    44           1.0372883101          28.2260499027      Hg       B1g (4)
   29    71           1.0372883101          28.2260499027      Hg       B2g (7)
   30     8           1.0372883101          28.2260499027      Hg        Ag (1)
   31    37           2.1365457728          58.1383661756     T1u       B3u (3)
   32    56           2.1365457728          58.1383661756     T1u       B1u (5)
   33    26           2.1365457728          58.1383661756     T1u       B2u (2)
   34     9           3.1576333472          85.9235716465       g        Ag (1)
   35    10           3.1576333472          85.9235716465       g        Ag (1)
   36    64           3.1576333472          85.9235716465       g       B3g (6)
   37    72           3.1576333472          85.9235716465       g       B2g (7)
   38    45           3.1576333472          85.9235716465       g       B1g (4)
   39    11           3.1576333472          85.9235716465       g        Ag (1)
   40    65           3.1576333472          85.9235716465       g       B3g (6)
   41    73           3.1576333472          85.9235716465       g       B2g (7)
   42    46           3.1576333472          85.9235716465       g       B1g (4)
   43    12           3.3117596319          90.1175610727      Ag        Ag (1)
   44    57           3.4815789583          94.7385798709       u       B1u (5)
   45    27           3.4815789583          94.7385798709       u       B2u (2)
   46    38           3.4815789583          94.7385798709       u       B3u (3)
   47    79           3.4815789583          94.7385798709       u        Au (8)
   48    28           3.4815789583          94.7385798709       u       B2u (2)
   49    39           3.4815789583          94.7385798709       u       B3u (3)
   50    58           3.4815789583          94.7385798709       u       B1u (5)
   51    74           3.6746913182          99.9934343361      Hg       B2g (7)
   52    47           3.6746913182          99.9934343361      Hg       B1g (4)
   53    13           3.6746913182          99.9934343361      Hg        Ag (1)
   54    66           3.6746913182          99.9934343361      Hg       B3g (6)
   55    14           3.6746913182          99.9934343361      Hg        Ag (1)
   56    59           9.6421149916         262.3752878220     T1u       B1u (5)
   57    29           9.6421149916         262.3752878220     T1u       B2u (2)
   58    40           9.6421149916         262.3752878220     T1u       B3u (3)
   59    15           9.9469515606         270.6703125779       g        Ag (1)
   60    67           9.9469515606         270.6703125779       g       B3g (6)
   61    16           9.9469515606         270.6703125779       g        Ag (1)
   62    75           9.9469515606         270.6703125779       g       B2g (7)
   63    48           9.9469515606         270.6703125779       g       B1g (4)
   64    49           9.9469515606         270.6703125779       g       B1g (4)
   65    68           9.9469515606         270.6703125779       g       B3g (6)
   66    76           9.9469515606         270.6703125779       g       B2g (7)
   67    17           9.9469515606         270.6703125779       g        Ag (1)
   68    41          11.1178327738         302.5316101859       u       B3u (3)
   69    30          11.1178327738         302.5316101859       u       B2u (2)
   70    60          11.1178327738         302.5316101859       u       B1u (5)
   71    42          11.1178327738         302.5316101859       u       B3u (3)
   72    80          11.1178327738         302.5316101859       u        Au (8)
   73    61          11.1178327738         302.5316101859       u       B1u (5)
   74    31          11.1178327738         302.5316101859       u       B2u (2)
   75    18          11.9065071546         323.9925311383      Hg        Ag (1)
   76    69          11.9065071546         323.9925311383      Hg       B3g (6)
   77    77          11.9065071546         323.9925311383      Hg       B2g (7)
   78    19          11.9065071546         323.9925311383      Hg        Ag (1)
   79    50          11.9065071546         323.9925311383      Hg       B1g (4)
   80    20          39.7303589401        1081.1180297398      Ag        Ag (1)


 
  ORBITAL EIGENVALUES ( BETA)  (1H = 27.2113834 eV)

       MO #        E(hartree)               E(eV)           FULLSYM    COMPSYM
       ----   --------------------   --------------------   -------   ---------
    1     1         -21.2820918388        -579.1151605798      Ag        Ag (1)
    2     2          -1.5428131320         -41.9820796487      Ag        Ag (1)
  +++++++++++++++++++++++++++++++++++++++++++++++++++++++++++++++++++++++++++++
    3    51          -0.3831921977         -10.4271898079     T1u       B1u (5)
    4    32          -0.3831921977         -10.4271898079     T1u       B3u (3)
    5    21          -0.3831921977         -10.4271898079     T1u       B2u (2)
    6     3          -0.1181227364          -3.2142830678      Ag        Ag (1)
    7    52          -0.0593842924          -1.6159287474     T1u       B1u (5)
    8    22          -0.0593842924          -1.6159287474     T1u       B2u (2)
    9    33          -0.0593842924          -1.6159287474     T1u       B3u (3)
   10    43           0.1820187485           4.9529819509      Hg       B1g (4)
   11    70           0.1820187485           4.9529819509      Hg       B2g (7)
   12    62           0.1820187485           4.9529819509      Hg       B3g (6)
   13     4           0.1820187485           4.9529819509      Hg        Ag (1)
   14     5           0.1820187485           4.9529819509      Hg        Ag (1)
   15    34           0.4223401879          11.4924607795     T1u       B3u (3)
   16    23           0.4223401879          11.4924607795     T1u       B2u (2)
   17    53           0.4223401879          11.4924607795     T1u       B1u (5)
   18     6           0.5409582508          14.7202223649      Ag        Ag (1)
   19    35           0.9702684437          26.4023466234       u       B3u (3)
   20    24           0.9702684437          26.4023466234       u       B2u (2)
   21    36           0.9702684437          26.4023466234       u       B3u (3)
   22    78           0.9702684437          26.4023466234       u        Au (8)
   23    54           0.9702684437          26.4023466234       u       B1u (5)
   24    25           0.9702684437          26.4023466234       u       B2u (2)
   25    55           0.9702684437          26.4023466234       u       B1u (5)
   26     7           1.1443174584          31.1384610923      Hg        Ag (1)
   27    71           1.1443174584          31.1384610923      Hg       B2g (7)
   28    44           1.1443174584          31.1384610923      Hg       B1g (4)
   29    63           1.1443174584          31.1384610923      Hg       B3g (6)
   30     8           1.1443174584          31.1384610923      Hg        Ag (1)
   31    37           2.3158273421          63.0168656933     T1u       B3u (3)
   32    56           2.3158273421          63.0168656933     T1u       B1u (5)
   33    26           2.3158273421          63.0168656933     T1u       B2u (2)
   34     9           3.1818926260          86.5837001850       g        Ag (1)
   35    10           3.1818926260          86.5837001850       g        Ag (1)
   36    64           3.1818926260          86.5837001850       g       B3g (6)
   37    72           3.1818926260          86.5837001850       g       B2g (7)
   38    11           3.1818926260          86.5837001850       g        Ag (1)
   39    45           3.1818926260          86.5837001850       g       B1g (4)
   40    73           3.1818926260          86.5837001850       g       B2g (7)
   41    65           3.1818926260          86.5837001850       g       B3g (6)
   42    46           3.1818926260          86.5837001850       g       B1g (4)
   43    12           3.4491282979          93.8555525097      Ag        Ag (1)
   44    57           3.5567201459          96.7832755353       u       B1u (5)
   45    38           3.5567201459          96.7832755353       u       B3u (3)
   46    39           3.5567201459          96.7832755353       u       B3u (3)
   47    27           3.5567201459          96.7832755353       u       B2u (2)
   48    79           3.5567201459          96.7832755353       u        Au (8)
   49    28           3.5567201459          96.7832755353       u       B2u (2)
   50    58           3.5567201459          96.7832755353       u       B1u (5)
   51    74           3.8695183059         105.2949461958      Hg       B2g (7)
   52    47           3.8695183059         105.2949461958      Hg       B1g (4)
   53    13           3.8695183059         105.2949461958      Hg        Ag (1)
   54    66           3.8695183059         105.2949461958      Hg       B3g (6)
   55    14           3.8695183059         105.2949461958      Hg        Ag (1)
   56    40           9.7924918530         266.4672502522     T1u       B3u (3)
   57    29           9.7924918530         266.4672502522     T1u       B2u (2)
   58    59           9.7924918530         266.4672502522     T1u       B1u (5)
   59    15          10.0221307289         272.7160417503       g        Ag (1)
   60    67          10.0221307289         272.7160417503       g       B3g (6)
   61    16          10.0221307289         272.7160417503       g        Ag (1)
   62    75          10.0221307289         272.7160417503       g       B2g (7)
   63    48          10.0221307289         272.7160417503       g       B1g (4)
   64    68          10.0221307289         272.7160417503       g       B1g (6)
   65    49          10.0221307289         272.7160417503       g       B3g (4)
   66    76          10.0221307289         272.7160417503       g       B2g (7)
   67    17          10.0221307289         272.7160417503       g        Ag (1)
   68    30          11.2492071129         306.1064876958       u       B2u (2)
   69    60          11.2492071129         306.1064876958       u       B3u (5)
   70    41          11.2492071129         306.1064876958       u       B1u (3)
   71    80          11.2492071129         306.1064876958       u        Au (8)
   72    42          11.2492071129         306.1064876958       u       B3u (3)
   73    61          11.2492071129         306.1064876958       u       B1u (5)
   74    31          11.2492071129         306.1064876958       u       B2u (2)
   75    18          12.0737759887         328.5441475143      Hg        Ag (1)
   76    77          12.0737759887         328.5441475143      Hg       B2g (7)
   77    69          12.0737759887         328.5441475143      Hg       B3g (6)
   78    50          12.0737759887         328.5441475143      Hg       B1g (4)
   79    19          12.0737759887         328.5441475143      Hg        Ag (1)
   80    20          39.8058295013        1083.1716881160      Ag        Ag (1)


  VSCF finished.

 @CHECKOUT-I, Total execution time (CPU/WALL):        4.35/       1.07 seconds.
--executable xvscf finished with status     0 in        1.11 seconds (walltime).
 --invoking executable--
/cvmfs/restricted.computecanada.ca/easybuild/software/2020/avx2/Compiler/intel2020/cfour/2.1/bin/xvtran
 @GETMEM-I,  Allocated   19073 MB of main memory.
  Full UHF integral transformation
  The following   1 alpha MOs will be dropped.
    1
  There are  79 active alpha molecular orbitals.
  The following   1 beta MOs will be dropped.
    1
  There are  79 active beta molecular orbitals.
  Transformation of IIII integrals :
  2 passes through the AO integral file were required.
       19479 AO integrals were read.
       26797 MO integrals (Spin case AAAA) were written to HF2AA.
       26797 MO integrals (Spin case BBBB) were written to HF2BB.
       53092 MO integrals (Spin case AABB) were written to HF2AB.
  Transformation of IIJJ integrals :
  2 passes through the AO integral file were required.
       82795 AO integrals were read.
       99456 MO integrals (Spin case AAAA) were written to HF2AA.
       99456 MO integrals (Spin case BBBB) were written to HF2BB.
      198912 MO integrals (Spin case AABB) were written to HF2AB.
  Transformation of IJIJ integrals :
  2 passes through the AO integral file were required.
      132339 AO integrals were read.
      168582 MO integrals (Spin case AAAA) were written to HF2AA.
      168582 MO integrals (Spin case BBBB) were written to HF2BB.
      334506 MO integrals (Spin case AABB) were written to HF2AB.
  Transformation of IJKL integrals :
  2 passes through the AO integral file were required.
      286616 AO integrals were read.
      340539 MO integrals (Spin case AAAA) were written to HF2AA.
      340539 MO integrals (Spin case BBBB) were written to HF2BB.
      681078 MO integrals (Spin case AABB) were written to HF2AB.
  Summary of active molecular orbitals: 
------------------------------------------------------------------------
                         * Spin case alpha *
 
  Index      Eigenvalue    Symmetry    Index      Eigenvalue    Symmetry
------------------------------------------------------------------------
     1        -2.0586964        1        41        11.1178328        3
     2        -1.3267116        2        42        11.1178328        3
     3        -1.3267116        3        43         0.1653386        4
     4        -1.3267116        5        44         1.0372883        4
     5        -0.1339509        1        45         3.1576333        4
     6         0.1653386        1        46         3.1576333        4
     7         0.1653386        1        47         3.6746913        4
     8         0.4799956        1        48         9.9469516        4
     9         1.0372883        1        49         9.9469516        4
    10         1.0372883        1        50        11.9065072        4
    11         3.1576333        1        51        -0.0846194        5
    12         3.1576333        1        52         0.3237441        5
    13         3.1576333        1        53         0.9568157        5
    14         3.3117596        1        54         0.9568157        5
    15         3.6746913        1        55         2.1365458        5
    16         3.6746913        1        56         3.4815790        5
    17         9.9469516        1        57         3.4815790        5
    18         9.9469516        1        58         9.6421150        5
    19         9.9469516        1        59        11.1178328        5
    20        11.9065072        1        60        11.1178328        5
    21        11.9065072        1        61         0.1653386        6
    22        39.7303589        1        62         1.0372883        6
    23        -0.0846194        2        63         3.1576333        6
    24         0.3237441        2        64         3.1576333        6
    25         0.9568157        2        65         3.6746913        6
    26         0.9568157        2        66         9.9469516        6
    27         2.1365458        2        67         9.9469516        6
    28         3.4815790        2        68        11.9065072        6
    29         3.4815790        2        69         0.1653386        7
    30         9.6421150        2        70         1.0372883        7
    31        11.1178328        2        71         3.1576333        7
    32        11.1178328        2        72         3.1576333        7
    33        -0.0846194        3        73         3.6746913        7
    34         0.3237441        3        74         9.9469516        7
    35         0.9568157        3        75         9.9469516        7
    36         0.9568157        3        76        11.9065072        7
    37         2.1365458        3        77         0.9568157        8
    38         3.4815790        3        78         3.4815790        8
    39         3.4815790        3        79        11.1178328        8
    40         9.6421150        3
------------------------------------------------------------------------
------------------------------------------------------------------------
                         * Spin case beta *
 
  Index      Eigenvalue    Symmetry    Index      Eigenvalue    Symmetry
------------------------------------------------------------------------
     1        -1.5428131        1        41        11.2492071        3
     2        -0.1181227        1        42         0.1820187        4
     3         0.1820187        1        43         1.1443175        4
     4         0.1820187        1        44         3.1818926        4
     5         0.5409583        1        45         3.1818926        4
     6         1.1443175        1        46         3.8695183        4
     7         1.1443175        1        47        10.0221307        4
     8         3.1818926        1        48        10.0221307        4
     9         3.1818926        1        49        12.0737760        4
    10         3.1818926        1        50        -0.3831922        5
    11         3.4491283        1        51        -0.0593843        5
    12         3.8695183        1        52         0.4223402        5
    13         3.8695183        1        53         0.9702684        5
    14        10.0221307        1        54         0.9702684        5
    15        10.0221307        1        55         2.3158273        5
    16        10.0221307        1        56         3.5567201        5
    17        12.0737760        1        57         3.5567201        5
    18        12.0737760        1        58         9.7924919        5
    19        39.8058295        1        59        11.2492071        5
    20        -0.3831922        2        60        11.2492071        5
    21        -0.0593843        2        61         0.1820187        6
    22         0.4223402        2        62         1.1443175        6
    23         0.9702684        2        63         3.1818926        6
    24         0.9702684        2        64         3.1818926        6
    25         2.3158273        2        65         3.8695183        6
    26         3.5567201        2        66        10.0221307        6
    27         3.5567201        2        67        10.0221307        6
    28         9.7924919        2        68        12.0737760        6
    29        11.2492071        2        69         0.1820187        7
    30        11.2492071        2        70         1.1443175        7
    31        -0.3831922        3        71         3.1818926        7
    32        -0.0593843        3        72         3.1818926        7
    33         0.4223402        3        73         3.8695183        7
    34         0.9702684        3        74        10.0221307        7
    35         0.9702684        3        75        10.0221307        7
    36         2.3158273        3        76        12.0737760        7
    37         3.5567201        3        77         0.9702684        8
    38         3.5567201        3        78         3.5567201        8
    39         9.7924919        3        79        11.2492071        8
    40        11.2492071        3
------------------------------------------------------------------------
  -2.05869640008437       -1.32671164815216       -1.32671164815216     
  -1.32671164815216      -0.133950890693993       0.165338567537922     
  0.165338567537925       0.479995568595803        1.03728831010697     
   1.03728831010697        3.15763334717256        3.15763334717256     
   3.15763334717258        3.31175963191456        3.67469131819773     
   3.67469131819775        9.94695156064425        9.94695156064427     
   9.94695156064430        11.9065071545877        11.9065071545877     
   39.7303589401419      -8.461937739412187E-002  0.323744119861185     
  0.956815672751458       0.956815672751460        2.13654577281075     
   3.48157895827307        3.48157895827307        9.64211499155341     
   11.1178327738351        11.1178327738352      -8.461937739412063E-002
  0.323744119861180       0.956815672751455       0.956815672751461     
   2.13654577281074        3.48157895827307        3.48157895827307     
   9.64211499155346        11.1178327738351        11.1178327738352     
  0.165338567537919        1.03728831010697        3.15763334717258     
   3.15763334717258        3.67469131819772        9.94695156064427     
   9.94695156064428        11.9065071545877      -8.461937739412174E-002
  0.323744119861188       0.956815672751460       0.956815672751461     
   2.13654577281074        3.48157895827306        3.48157895827308     
   9.64211499155338        11.1178327738352        11.1178327738352     
  0.165338567537915        1.03728831010697        3.15763334717257     
   3.15763334717258        3.67469131819773        9.94695156064426     
   9.94695156064428        11.9065071545877       0.165338567537923     
   1.03728831010697        3.15763334717257        3.15763334717258     
   3.67469131819771        9.94695156064427        9.94695156064429     
   11.9065071545877       0.956815672751458        3.48157895827307     
   11.1178327738352     
  -1.54281313197276      -0.118122736374908       0.182018748480346     
  0.182018748480349       0.540958250763000        1.14431745841588     
   1.14431745841589        3.18189262604841        3.18189262604842     
   3.18189262604843        3.44912829788969        3.86951830592422     
   3.86951830592425        10.0221307289467        10.0221307289467     
   10.0221307289467        12.0737759887018        12.0737759887018     
   39.8058295013398      -0.383192197712783      -5.938429236264750E-002
  0.422340187949074       0.970268443734499       0.970268443734501     
   2.31582734207200        3.55672014585358        3.55672014585359     
   9.79249185295757        11.2492071129246        11.2492071129246     
 -0.383192197712785      -5.938429236264677E-002  0.422340187949065     
  0.970268443734496       0.970268443734499        2.31582734207200     
   3.55672014585358        3.55672014585358        9.79249185295755     
   11.2492071129246        11.2492071129246       0.182018748480340     
   1.14431745841589        3.18189262604843        3.18189262604844     
   3.86951830592422        10.0221307289467        10.0221307289467     
   12.0737759887018      -0.383192197712786      -5.938429236264870E-002
  0.422340187949079       0.970268443734500       0.970268443734501     
   2.31582734207200        3.55672014585357        3.55672014585359     
   9.79249185295762        11.2492071129246        11.2492071129246     
  0.182018748480343        1.14431745841589        3.18189262604842     
   3.18189262604843        3.86951830592423        10.0221307289467     
   10.0221307289467        12.0737759887018       0.182018748480342     
   1.14431745841588        3.18189262604843        3.18189262604843     
   3.86951830592421        10.0221307289467        10.0221307289467     
   12.0737759887018       0.970268443734499        3.55672014585358     
   11.2492071129246     
 @CHECKOUT-I, Total execution time (CPU/WALL):        8.25/     131.63 seconds.
--executable xvtran finished with status     0 in      131.67 seconds (walltime).
 --invoking executable--
/cvmfs/restricted.computecanada.ca/easybuild/software/2020/avx2/Compiler/intel2020/cfour/2.1/bin/xintprc
 @GETMEM-I,  Allocated   19073 MB of main memory.
  @GMOIAA-I, Processing MO integrals for spin case AA.
  @GMOIAA-I, Generation of integral list completed.
                      TYPE                NUMBER
                      ----               --------
                      PPPP                516003
                      PPPH                109020
                      PPHH                  6012
                      PHPH                  3906
                      PHHH                   417
                      HHHH                    16

                     TOTAL                635374
  @GMOIAA-I, Processing MO integrals for spin case BB.
  @GMOIAA-I, Generation of integral list completed.
                      TYPE                NUMBER
                      ----               --------
                      PPPP                602919
                      PPPH                 31470
                      PPHH                   483
                      PHPH                   483
                      PHHH                    18
                      HHHH                     1

                     TOTAL                635374
  @GMOIAB-I, Processing MO integrals for spin case AB.
                      TYPE                NUMBER
                      ----               --------
                      PPPP               1112526
                      PPPH1H              117972
                      PPPH2H               29106
                      PPHH                  3141
                      PHPH1P                 450
                      PHPH2P                4212
                      PHHH1P                  48
                      PHHH2P                 129
                      HHHH                     4

                     TOTAL               1267588

  @FORMT2-I, Second-order MP correlation energies:
  @FORMT2-I, Singles contribution will be calculated.
            ------------------------------------------------
            E(SCF)                  =    -74.371248022912 a.u.
            E2(AA)                  =     -0.031514874749 a.u.
            E2(BB)                  =      0.000000000000 a.u.
            E2(AB)                  =     -0.077064645617 a.u.
            E2(SINGLE)              =     -0.002970037227 a.u.
            E2(TOT)                 =     -0.108579520366 a.u.
            Total MP2 energy        =    -74.482797580506 a.u.
            ------------------------------------------------
            ----------------------------------------------
                     Projected spin multiplicities: 
            ----------------------------------------------
             <0|S^2|0>                  =    3.7500000000.
             <0|S^2 T2|0>               =    0.0000000000.
             Projected <0|S^2 exp(T)|0> =    3.7500000000.
             Approximate spin mult.     =    4.0000000000.
            ----------------------------------------------
   Largest T2 amplitudes for spin case AA:
   i   j   a   b             i   j   a   b             i   j   a   b
-----------------------------------------------------------------------------
[  3   2  44   9]-0.01204 [  4   3  70  10] 0.01188 [  4   2  55  27]-0.01107
[  4   3  55  37]-0.01107 [  3   2  37  27]-0.01107 [  4   3  52  34]-0.01064
[  4   2  52  24]-0.01064 [  3   2  34  24]-0.01064 [  4   3  52  37]-0.00936
[  4   3  55  34]-0.00936 [  3   2  37  24]-0.00936 [  4   2  52  27]-0.00936
[  4   2  55  24]-0.00936 [  3   2  34  27]-0.00936 [  3   2  47  15] 0.00909
-----------------------------------------------------------------------------
   Norm of T2AA vector (     2106 symmetry allowed elements):  0.0678779575.
-----------------------------------------------------------------------------
   Largest T2 amplitudes for spin case AB:
       _       _                 _       _                 _       _
   i   j   a   b             i   j   a   b             i   j   a   b
-----------------------------------------------------------------------------
[  4   1  10  50]-0.02241 [  2   1   9  20]-0.02213 [  3   1  70  50]-0.01997
[  3   1  44  20]-0.01997 [  2   1  62  50]-0.01997 [  2   1  44  31]-0.01997
[  4   1  62  20]-0.01997 [  4   1  70  31]-0.01997 [  3   1   9  31] 0.01670
[  4   1  16  50] 0.01635 [  3   1  10  31] 0.01591 [  2   1  15  20]-0.01581
[  2   1  65  50] 0.01445 [  2   1  47  31] 0.01445 [  4   1  65  20] 0.01445
-----------------------------------------------------------------------------
   Norm of T2AB vector (     3141 symmetry allowed elements):  0.1166952190.
-----------------------------------------------------------------------------
 @CHECKOUT-I, Total execution time (CPU/WALL):        2.08/      26.08 seconds.
--executable xintprc finished with status     0 in       26.14 seconds (walltime).
  calling xvcc 
 --invoking executable--
/cvmfs/restricted.computecanada.ca/easybuild/software/2020/avx2/Compiler/intel2020/cfour/2.1/bin/xvcc
 @GETMEM-I,  Allocated   19073 MB of main memory.
   CCSD(T) energy will be calculated.
   The reference state is a ROHF wave function.
   The total correlation energy is -0.111605206360 a.u.
   The total correlation energy is -0.122518219363 a.u.
  Convergence information after     1 iterations: 
  Largest element of residual vector : -0.44225171E-02.
  Largest element of DIIS residual   : -0.44225171E-02.
   The total correlation energy is -0.124494171299 a.u.
  Convergence information after     2 iterations: 
  Largest element of residual vector : -0.12124264E-02.
  Largest element of DIIS residual   : -0.68442846E-03.
   The total correlation energy is -0.125135897261 a.u.
  Convergence information after     3 iterations: 
  Largest element of residual vector : -0.33024954E-03.
  Largest element of DIIS residual   : -0.29025273E-03.
   The total correlation energy is -0.125202980115 a.u.
  Convergence information after     4 iterations: 
  Largest element of residual vector : -0.11686694E-03.
  Largest element of DIIS residual   : -0.58088390E-04.
   The total correlation energy is -0.125204961920 a.u.
  Convergence information after     5 iterations: 
  Largest element of residual vector : -0.27893019E-04.
  Largest element of DIIS residual   :  0.97979784E-05.
   The total correlation energy is -0.125204668374 a.u.
  Convergence information after     6 iterations: 
  Largest element of residual vector : -0.53529463E-05.
  Largest element of DIIS residual   : -0.48476583E-05.
   The total correlation energy is -0.125204894520 a.u.
  Convergence information after     7 iterations: 
  Largest element of residual vector : -0.71990631E-06.
  Largest element of DIIS residual   : -0.35511571E-06.
   The total correlation energy is -0.125204898783 a.u.
  Convergence information after     8 iterations: 
  Largest element of residual vector : -0.81777780E-07.
  Largest element of DIIS residual   : -0.49603506E-07.
   The total correlation energy is -0.125204885038 a.u.
  Convergence information after     9 iterations: 
  Largest element of residual vector : -0.27140687E-07.
  Largest element of DIIS residual   : -0.19439323E-07.
   The total correlation energy is -0.125204880195 a.u.
  Convergence information after    10 iterations: 
  Largest element of residual vector : -0.92548935E-08.
  Largest element of DIIS residual   : -0.81530468E-08.
   The total correlation energy is -0.125204879100 a.u.
  Convergence information after    11 iterations: 
  Largest element of residual vector : -0.31632208E-08.
  Largest element of DIIS residual   :  0.16101132E-08.
   The total correlation energy is -0.125204878920 a.u.
  Convergence information after    12 iterations: 
  Largest element of residual vector :  0.90075327E-09.
  Largest element of DIIS residual   :  0.36170948E-09.
   The total correlation energy is -0.125204878924 a.u.
  Convergence information after    13 iterations: 
  Largest element of residual vector :  0.21426299E-09.
  Largest element of DIIS residual   :  0.13405177E-09.
   The total correlation energy is -0.125204878918 a.u.
  Convergence information after    14 iterations: 
  Largest element of residual vector :  0.63286510E-10.
  Largest element of DIIS residual   :  0.26204004E-10.
  Amplitude equations converged in    14iterations.
   The total correlation energy is -0.125204878914 a.u.
   The CC iterations have converged.

            ----------------------------------------------
                     Projected spin multiplicities: 
            ----------------------------------------------
             <0|S^2|0>                  =    3.7500000000.
             <0|S^2 (T2+T1**2) |0>      =    0.0000000000.
             <0|S^2 T1|0>               =   -0.0000000000.
             Projected <0|S^2 exp(T)|0> =    3.7500000000.
             Approximate spin mult.     =    4.0000000000.
            ----------------------------------------------
   Largest T1 amplitudes for spin case AA:
   i       a                 i       a                 i       a    
-----------------------------------------------------------------------------
[  1       8    ]-0.02015 [  1       5    ] 0.01507 [  1      14    ] 0.00831
[  3      37    ] 0.00188 [  4      55    ] 0.00188 [  2      27    ] 0.00188
[  2      23    ]-0.00099 [  4      51    ]-0.00099 [  3      33    ]-0.00099
[  3      40    ] 0.00039 [  4      58    ] 0.00039 [  2      30    ] 0.00039
[  2      24    ]-0.00022 [  4      52    ]-0.00022 [  3      34    ]-0.00022
-----------------------------------------------------------------------------
   Norm of T1AA vector (       48 symmetry allowed elements):  0.0267636900.
-----------------------------------------------------------------------------
   Largest T2 amplitudes for spin case AA:
   i   j   a   b             i   j   a   b             i   j   a   b
-----------------------------------------------------------------------------
[  4   2  55  27]-0.01243 [  3   2  37  27]-0.01243 [  4   3  55  37]-0.01243
[  3   2  44   9]-0.01218 [  4   2  52  24]-0.01216 [  4   3  52  34]-0.01216
[  3   2  34  24]-0.01216 [  4   3  70  10] 0.01202 [  4   3  52  37]-0.01081
[  3   2  37  24]-0.01081 [  4   3  55  34]-0.01081 [  4   2  52  27]-0.01081
[  4   2  55  24]-0.01081 [  3   2  34  27]-0.01081 [  3   2  47  15] 0.00930
-----------------------------------------------------------------------------
   Norm of T2AA vector (     2106 symmetry allowed elements):  0.0733426093.
-----------------------------------------------------------------------------
   Largest T1 amplitudes for spin case BB:
   i       a                 i       a                 i       a    
-----------------------------------------------------------------------------
[  1       5    ] 0.02333 [  1       2    ]-0.02007 [  1      11    ]-0.00548
[  1      19    ]-0.00033 [  1      18    ] 0.00000 [  1       4    ] 0.00000
[  1      17    ]-0.00000 [  1       6    ]-0.00000 [  1       3    ]-0.00000
[  1      15    ]-0.00000 [  1      12    ]-0.00000 [  1       9    ] 0.00000
[  1       8    ]-0.00000 [  1      16    ] 0.00000 [  1      14    ] 0.00000
-----------------------------------------------------------------------------
   Norm of T1BB vector (       18 symmetry allowed elements):  0.0312657419.
-----------------------------------------------------------------------------
   Largest T2 amplitudes for spin case AB:
       _       _                 _       _                 _       _
   i   j   a   b             i   j   a   b             i   j   a   b
-----------------------------------------------------------------------------
[  4   1  10  50]-0.02863 [  2   1   9  20]-0.02826 [  2   1  62  50]-0.02551
[  2   1  44  31]-0.02551 [  3   1  70  50]-0.02551 [  3   1  44  20]-0.02551
[  4   1  62  20]-0.02551 [  4   1  70  31]-0.02551 [  3   1   9  31] 0.02132
[  3   1  10  31] 0.02032 [  4   1  16  50] 0.01895 [  2   1  15  20]-0.01833
[  2   1  65  50] 0.01674 [  2   1  47  31] 0.01674 [  3   1  73  50] 0.01674
-----------------------------------------------------------------------------
   Norm of T2AB vector (     3141 symmetry allowed elements):  0.1421790168.
-----------------------------------------------------------------------------
       Summary of iterative solution of CC equations 
      -----------------------------------------------------------
                       Correlation           Total
       Iteration         Energy              Energy
      -----------------------------------------------------------
            0        -0.111605206360     -74.482853229272  DIIS 
            1        -0.122518219363     -74.493766242275  DIIS 
            2        -0.124494171299     -74.495742194211  DIIS 
            3        -0.125135897261     -74.496383920173  DIIS 
            4        -0.125202980115     -74.496451003027  DIIS 
            5        -0.125204961920     -74.496452984832  DIIS 
            6        -0.125204668374     -74.496452691286  DIIS 
            7        -0.125204894520     -74.496452917432  DIIS 
            8        -0.125204898783     -74.496452921695  DIIS 
            9        -0.125204885038     -74.496452907950  DIIS 
           10        -0.125204880195     -74.496452903107  DIIS 
           11        -0.125204879100     -74.496452902013  DIIS 
           12        -0.125204878920     -74.496452901832  DIIS 
           13        -0.125204878924     -74.496452901836  DIIS 
           14        -0.125204878914     -74.496452901826  DIIS 
      -----------------------------------------------------------
      A miracle has come to pass. The CC iterations have converged.
 @TRPS2-I, E4ST A   -0.000017436095601
 @TRPS2-I, E4ST B    0.000007370666830
        E(CCSD)           =     -74.496452901826
        E(CCSD(T))        =     -74.498457641463
 @CHECKOUT-I, Total execution time (CPU/WALL):        3.29/       0.90 seconds.
--executable xvcc finished with status     0 in        0.95 seconds (walltime).
  The final electronic energy is       -74.498457641462537 a.u. 
  This computation required                          169.99 seconds (walltime).
Program finished with exit code 0 at: Tue Mar 19 09:43:53 EDT 2024

