 --invoking executable--
/home/nike/cfour_v2.00beta/cfour_v2.00beta/bin/xjoda


   *************************************************************************
         <<<     CCCCCC     CCCCCC   |||     CCCCCC     CCCCCC   >>>
       <<<      CCC        CCC       |||    CCC        CCC         >>>
      <<<      CCC        CCC        |||   CCC        CCC            >>>
    <<<        CCC        CCC        |||   CCC        CCC              >>>
      <<<      CCC        CCC        |||   CCC        CCC            >>>
       <<<      CCC        CCC       |||    CCC        CCC         >>>
         <<<     CCCCCC     CCCCCC   |||     CCCCCC     CCCCCC   >>>
   *************************************************************************

     ****************************************************************
     * CFOUR Coupled-Cluster techniques for Computational Chemistry *
     ****************************************************************
 

   Department of Chemistry                Institut fuer Physikalische Chemie
   University of Texas at Austin          Universitaet Mainz
   Austin, TX  78712, USA                 D-55099 Mainz, Germany
 
                       Version 2.00beta
 
                     blg8344.int.ets1.calculquebec.ca                  
                     So 8. Mär 16:37:53 EDT 2020                      
                     integer*8 version is running
 
********************************************************************************
*                          Input from ZMAT file                                *
********************************************************************************
TITLE                                                                           
C                                                                               
O 1 R1                                                                          
X 1 D 2 A90                                                                     
S 1 R2 3 A90 2 D180                                                             
                                                                                
R1=2.18792490709                                                                
R2=2.94816172703                                                                
D=1                                                                             
A90=90                                                                          
D180=180                                                                        
A=180.0                                                                         
                                                                                
*ACES2(CALC=CCSD(T)                                                             
UNITS=BOHR                                                                      
#GEOM=1.1578*10/5.29177210903_1.5601*10/5.29177210903_fromWikiAndCRC_diffFromNIS
#COORD=CARTESIAN                                                                
COORD=INTERNAL                                                                  
PRINT=4                                                                         
JODA_PRINT=4                                                                    
INPUT_MRCC=OFF                                                                  
#CC_PROG=MRCC                                                                   
#FROZEN_CORE=ON                                                                 
DROPMO=1>7                                                                      
CONTRACTION=GENERAL                                                             
#CONTRACTION=SEGMENTED                                                          
RELATIVISTIC=OFF                                                                
#EXCITE=EOMEE                                                                   
#ESTATE_CONV=5                                                                  
#ESTATE_SYM=2/2/2/2/2/2/2/2                                                     
XFORM_TOL=18                                                                    
SAVE_INTS=ON                                                                    
SCF_EXPORDER=6                                                                  
SCF_EXPSTART=5                                                                  
#SCF_DAMPING=1000                                                               
SCF_EXTRAPOLATION=ON                                                            
SCF_CONV=12                                                                     
SCF_MAXCYC=99999                                                                
CC_CONV=9                                                                       
CC_MAXCYC=999                                                                   
T3_EXTRAPOL=ON                                                                  
REFERENCE=RHF                                                                   
CHARGE=+0                                                                       
MULT=1                                                                          
ABCDTYPE=STANDARD                                                               
#OCCUPATION=3-2-2-0-1-0-0-0/3-1-1-0-1-0-0-0                                     
MEM=12                                                                          
MEM_UNIT=GB                                                                     
BASIS=SPECIAL)                                                                  
                                                                                
C:def2-TZVPP                                                                    
O:def2-TZVPP                                                                    
S:def2-TZVPP                                                                    
                                                                                
********************************************************************************
  @GTFLGS-W, Keyword #GEOM not known and is ignored.
  @GTFLGS-W, Keyword #COORD not known and is ignored.
  @GTFLGS-W, Keyword #CC_PROG not known and is ignored.
  @GTFLGS-W, Keyword #FROZEN_CORE not known and is ignored.
  @GTFLGS-W, Keyword #CONTRACTION not known and is ignored.
  @GTFLGS-W, Keyword #EXCITE not known and is ignored.
  @GTFLGS-W, Keyword #ESTATE_CONV not known and is ignored.
  @GTFLGS-W, Keyword #ESTATE_SYM not known and is ignored.
  @GTFLGS-W, Keyword #SCF_DAMPING not known and is ignored.
  @GTFLGS-W, Keyword #OCCUPATION not known and is ignored.
    -------------------------------------------------------------------
                    CFOUR Control Parameters 
    -------------------------------------------------------------------
        External           Internal           Value            Units
          Name               Name
    -------------------------------------------------------------------
       ABCDTYPE             IABCDT         STANDARD     [  0]   ***   
       ANHARMONIC           IANHAR         OFF          [  0]   ***   
       ANH_ALGORIT          IANALG         STANDARD     [  0]   ***   
       ANH_DERIVAT          IANDER         SECOND       [  1]   ***   
       ANH_STEPSIZ          ICUBST             50000          x 10-6  
       ANH_SYMMETR          IANHSM         ABELIAN      [  0]   ***   
       AO_LADDERS           IAOLAD         SINGLEPASS   [  1]   ***   
       BASIS                IBASIS         SPECIAL      [  0]   ***   
       BREIT                IBREIT         OFF          [  0]   ***   
       BRUCK_CONV           IBRTOL          10D-  4             ***   
       BRUECKNER            IBRKNR             OFF      [  0]   ***   
       BUFFERSIZE           IBUFFS            600               ***   
       CACHE_RECS           ICHREC             10               ***   
       CALCLEVEL            ICLLVL           CCSD(T)    [ 22]   ***   
       CCORBOPT             ICCORB             OFF      [  0] x 0.01  
       CC_CONV              ICCCNV          10D-  9             ***   
       CC_EXPORDER          ICCEOR              5               ***   
       CC_EXTRAPOL          ICCEXT             DIIS     [  1]   ***   
       CC_MAXCYC            ICCCYC            999              cycles 
       CC_PROGRAM           ICCPRO         VCC          [  0]   ***   
       CHARGE               ICHRGE              0               ***   
       CHOLESKY             ICHOLE         OFF          [  0]   ***   
       CIS_CONV             ICISTL              5               ***   
       COMM_SIZE            IPSIZE            ***               ***   
       CONSTANT             ICONST         OLD          [  1]   ***   
       CONTINUUM            ICONTU         NONE         [  0]   ***   
       CONTRACTION          ICNTYP          GENERAL     [  1]   ***   
       COORDINATES          ICOORD         INTERNAL     [  0]   ***   
       CPHF_CONVER          ICPHFT          10D- 16             ***   
       CPHF_MAXCYC          ICPHFC             64              cycles 
       CUBIC                ICUBIC         OFF          [  0]   ***   
       CURVILINEAR          ICURVY            OFF       [  0]   ***   
       DBOC                 IDBOC          OFF          [  0]   ***   
       DCT                  IDCT           OFF          [  0]   ***   
       DERIV_LEV            IDRLVL            ZERO      [  0]   ***   
       DIAG_MRCC            IEOMST          10D-  0             ***   
       DIFF_TYPE            IDIFTY         RELAXED      [  0]   ***   
       DIRECT               IDIRCT         OFF          [  0]   ***   
       DROPMO               IDRPMO   1,  2,  3,  4,  5,  6,  7,
       ECP                  IECP           OFF          [  0]   ***   
       EIGENVECTOR          IVEC                1               ***   
       EL_ANHARM            IELANH         OFF          [  0]   ***   
       EOMFOLLOW            IEOMSR         ENERGY       [  0]   ***   
       EOM_MRCC             IMRCCE         NEW          [  1]   ***   
       EOM_NONIT            EOMNON         OFF          [  0]   ***   
       EOM_NSING            IEOMSI          10D-  0             ***   
       EOM_NSTATES          IMRCCD         DAVIDSON     [  0]   ***   
       EOM_NTRIP            IEOMTR          10D-  0             ***   
       EOM_ORDER            IEXORD         ENERGY       [  0]   ***   
       ESTATE_CONV          IEXTOL          10D-  5             ***   
       ESTATE_DIAG          IEXDIG         ITERATIVE    [  0]   ***   
       ESTATE_LOCK          IESLOC         ON           [  1]   ***   
       ESTATE_MAXC          IEXMXC             20               ***   
       ESTATE_PROP          IEXPRP         OFF          [  0]   ***   
       EVAL_HESS            IRECAL              0            # of cyc.
       EXCITATION           IEXCIT              0               ***   
       EXCITE               IEXCIT         NONE         [  0]   ***   
       FCGRADNEW            IFCGNW         OFF          [  0]   ***   
       FC_FIELD             IFINFC              0             x 10-6  
       FD_CALTYPE           IFDCAL         GRADONLY     [  0]   ***   
       FD_PROJECT           IFDPRJ         OFF          [  1]   ***   
       FD_STEPSIZE          IDISFD              0            10-4 bohr
       FD_USEGROUP          IFDGRP         FULL         [  0]   ***   
       FILE_RECSIZ          IFLREC              4096           words  
       FINITE_PERT          IFIPER              0             x 10-6  
       FIXGEOM              IFIXGM         OFF          [  0]   ***   
       FOCK                 IFOCK          AO           [  1]   ***   
       FREQ_ALGORI          IVIALG         STANDARD     [  0]   ***   
       FROZEN_CORE          IFROCO         OFF          [  0]   ***   
       FROZEN_VIRT          IFROVI         OFF          [  0]   ***   
       GAMMA_ABCD           IGABCD         STORE        [  0]   ***   
       GAMMA_ABCI           IGABCI         STORE        [  0]   ***   
       GENBAS_1             IGNBS1              0               ***   
       GENBAS_2             IGNBS2              0               ***   
       GENBAS_3             IGNBS3              0               ***   
       GENBAS_4             IGNBS4              0               ***   
       GEO_CONV             ICONTL              5              H/bohr 
       GEO_MAXCYC           IOPTCY             50               ***   
       GEO_MAXSTEP          IMXSTP            300            millibohr
       GEO_METHOD           INR            SINGLE_POINT [  5]   ***   
       GIAO                 IGIAO          OFF          [  1]   ***   
       GIMIC                IGIMIC         OFF          [  0]   ***   
       GRID                 IGRID          OFF          [  0]   ***   
       GRID_ALGO            IGALGO         SERIAL       [  0]   ***   
       GUESS                IGUESS            MOREAD    [  0]   ***   
       HBAR                 IHBAR              OFF      [  0]   ***   
       HESS_TYPE            IHESTP         SCF          [  0]   ***   
       HF2_FILE             IHF2Fl         USE          [  1]   ***   
       HFSTABILITY          ISTABL         OFF          [  0]   ***   
       INCORE               INCORE             OFF      [  0]   ***   
       INPUT_MRCC           IMRCC          OFF          [  0]   ***   
       INTEGRALS            INTTYP             VMOL     [  1]   ***   
       JODA_PRINT           IJPRNT              4               ***   
       LINDEP_TOL           ILINDP              8               ***   
       LINEQ_CONV           IZTACN          10D-  7           cycles  
       LINEQ_EXPOR          ILMAXD              5               ***   
       LINEQ_MAXCY          ILMAXC             50               ***   
       LINEQ_TYPE           ILTYPE         DIIS         [  1]   ***   
       LOCK_ORBOCC          ILOCOC             OFF      [  0]   ***   
       MEMORY_SIZE          IMEMSZ         *********           words  
       MEM_UNIT             IMEMU          GB           [  3]   ***   
       MRCC                 IMRCCC         OFF          [  0]   ***   
       MULTIPLICTY          IMULTP              1               ***   
       NEGEVAL              IDIE             ABORT      [  0]   ***   
       NEWNORM              INEWNO         OFF          [  0]   ***   
       NON-HF               INONHF             OFF      [  0]   ***   
       NTOP_TAMP            ITOPT2             15               ***   
       NUC_MODEL            INUCMO         POINT        [  0]   ***   
       OCCUPATION           IOCCU   ESTIMATED BY SCF 
       OPEN-SHELL           IOPEN          SPIN-ORBITAL [  0]   ***   
       ORBITALS             IORBTP           STANDARD   [  0]   ***   
       PARALLEL             IPARAL         ON           [  1]   ***   
       PARA_INT             IPINTS         ON           [  1]   ***   
       PARA_PRINT           IPPRIN              0               ***   
       PERT_ORB             IPTORB         STANDARD     [  0]   ***   
       POINTS               IGRDFD              0               ***   
       PRINT                IPRNT               4               ***   
       PROPS                IPROPS             OFF      [  0]   ***   
       PROP_INTEGR          IINTYP         INTERNAL     [  0]   ***   
       PSI                  IPSI           OFF          [  0]   ***   
       QUARTIC              IQUART         OFF          [  0]   ***   
       RAMAN_INT            IRAMIN         OFF          [  0]   ***   
       RAMAN_ORB            IRAMRE         UNRELAXED    [  0]   ***   
       RDO                  IRDOFM             OFF      [  0]   ***   
       REFERENCE            IREFNC             RHF      [  0]   ***   
       RELATIVIST           IRELAT         OFF          [  0]   ***   
       RELAX_DENS           IRDENS             OFF      [  0]   ***   
       RESET_FLAGS          IRESET             OFF      [  0]   ***   
       RESTART_CC           ICCRES         OFF          [  0]   ***   
       ROT_EVEC             ROTVEC              0               ***   
       SAVE_INTS            ISVINT              ON      [  1]   ***   
       SCALE_ON             ISTCRT              0               ***   
       SCF_CONV             ISCFCV          10D- 12             ***   
       SCF_DAMPING          IDAMP               0             x 10-3  
       SCF_EXPORDE          IRPPOR              6               ***   
       SCF_EXPSTAR          IRPPLS              5               ***   
       SCF_EXTRAPO          IRPP                ON      [  1]   ***   
       SCF_MAXCYC           ISCFCY            ***              cycles 
       SCF_NOSTOP           ISCFST         OFF          [  0]   ***   
       SCF_PRINT            ISCFPR              0               ***   
       SD_FIELD             IFINSD              0             x 10-6  
       SEQUENCE             ISEQUE         OFF          [  0]   ***   
       SOPERT               IPERSO         OFF          [  0]   ***   
       SPHERICAL            IDFGHI             ON       [  1]   ***   
       SPINORBIT            ISOCAL         OFF          [  0]   ***   
       SPINROTATIO          ISRCON         OFF          [  0]   ***   
       SPIN_FLIP            ISPFLP         OFF          [  0]   ***   
       SPIN_ORBIT           ISPORB         OFF          [  0]   ***   
       SPIN_SCAL            ISCSMP         OFF          [  0]   ***   
       SUBGROUP             ISUBGP         DEFAULT      [  0]   ***   
       SUBGRPAXIS           ISBXYZ         X            [  0]   ***   
       SYMMETRY             ISYM             ON         [  0]   ***   
       SYM_CHECK            ISYMCK         OVERRIDE     [  1]   ***   
       T3_EXTRAPOL          IT3EXT         ON           [  1]   ***   
       TAMP_SUM             IEVERY              5               ***   
       TESTSUITE            ITESTS         OFF          [  0]   ***   
       THERMOCH             ITHERM         OFF          [  0]   ***   
       TOL_CHOLESK          ITOLCH          10D-  4             ***   
       TRANGRAD             IRESRM         OFF          [  0]   ***   
       TRANS_INV            ITRAIN         USE          [  0]   ***   
       TREAT_PERT           ITREAT         SIMULTANEOUS [  0]   ***   
       UIJ_THRESHO          IUIJTH              1               ***   
       UNITS                IUNITS         BOHR         [  1]   ***   
       UNOS                 IUNOS          OFF          [  0]   ***   
       UPDATE_HESS          IHUPDT         ON           [  1]   ***   
       VIBPHASE             ISETPH         STANDARD     [  0]   ***   
       VIBRATION            IVIB              NO        [  0]   ***   
       VIB_ALGORIT          IGEALG         STANDARD     [  0]   ***   
       VNATORB              IVNORB         OFF          [  0]   ***   
       VTRAN                IVTRAN         FULL/PARTIAL [  0]   ***   
       XFIELD               IXEFLD              0             x 10-6  
       XFORM_TOL            IXFTOL          10D- 18             ***   
       YFIELD               IYEFLD              0             x 10-6  
       ZFIELD               IZEFLD              0             x 10-6  
    -------------------------------------------------------------------
   4 entries found in Z-matrix 
   Job Title : TITLE                                                                           
 Variable names read by FETCHZ
  1           
  2           
  3           
  4 R1        
  5           
  6           
  7 D         
  8 A90       
  9           
 10 R2        
 11 A90       
 12 D180      
 Atomic symbols read by FETCHZ
  1 C    
  2 O    
  3 X    
  4 S    
 Connectivity matrix read by FETCHZ
  1   0
  2   0
  3   0
  4   1
  5   0
  6   0
  7   1
  8   2
  9   0
 10   1
 11   3
 12   2
   Symbol A     not found in Z-matrix.
   There are  5 unique internal coordinates.
   Of these,  0 will be optimized.
   User supplied Z-matrix: 
--------------------------------------------------------------------------------
       SYMBOL    BOND      LENGTH    ANGLE     ANGLE     DIHED     ANGLE
                  TO      (ANGST)    WRT      (DEG)      WRT      (DEG)
--------------------------------------------------------------------------------
        C    
        O          1         R1   
        X          1         D          2        A90  
        S          1         R2         3        A90        2        D180 
                  *Initial values for internal coordinates* 
                      Name             Value
                        R1              2.1879249071
                        D               1.0000000000
                        A90            90.0000000000
                        R2              2.9481617270
                        D180          180.0000000000
--------------------------------------------------------------------------------
  1  C          6    12.00000
  2  O          8    15.99491
  3  X          0     0.00000
  4  S         16    31.97207
   12.0000000000
   15.9949146300
    0.0000000000
   31.9720707000
 After translation to center of mass coordinates 
       -0.000000000000   -0.000000000000    0.988263170806
       -0.000000000000   -0.000000000000    3.176188077896
        1.000000000000   -0.000000000000    0.988263170806
        0.000000000000    0.000000000000   -1.959898556224
  Inertia tensor (amu*bohr**2)
  295.89059   -0.00000    0.00000
   -0.00000  295.89059    0.00000
    0.00000    0.00000    0.00000
    Inertia tensor:
      295.890591484526   -0.000000000000    0.000000000000
       -0.000000000000  295.890591484526    0.000000000000
        0.000000000000    0.000000000000    0.000000000000
    Principal axis orientation for molecular system: 
       -0.000000000000   -0.000000000000   -0.988263170806
        0.000000000000    0.000000000000   -3.176188077896
        0.955790655323    0.294047994719   -0.988263170806
       -0.000000000000    0.000000000000    1.959898556224
    Diagonalized inertia tensor:
      295.890591484526    0.000000000000    0.000000000000
        0.000000000000  295.890591484525    0.000000000000
        0.000000000000    0.000000000000    0.000000000000
    Eigenvectors of inertia tensor: 
        0.955790655323    0.294047994719    0.000000000000
       -0.294047994719    0.955790655323    0.000000000000
        0.000000000000    0.000000000000   -1.000000000000
 factor:   60.1997200000000     
   Rotational constants (in cm-1): 
          0.2034526333             0.2034526333
   Rotational constants (in MHz): 
       6099.3573562287          6099.3573562287
  @SYMMETRY-I, Handedness of inertial frame:-1.00000
  @SYMMETRY-I, Sense of inertial frame y-axis will be changed.
  @SYMMETRY-I, The symmetry group is 2-fold degenerate.
  @SYMMETRY-I, The molecule belongs to a point group with doubly degenerate representations.
  @SYMMETRY-I, The molecule is linear.
   Principal axis orientation for molecule:
       -0.000000000000    0.000000000000   -0.988263170806
        0.000000000000   -0.000000000000   -3.176188077896
        0.955790655323   -0.294047994719   -0.988263170806
       -0.000000000000   -0.000000000000    1.959898556224
   Rotation about  3 is a valid symmetry operation 
   Reflection in plane  2 is a valid symmetry operation.
   Reflection in plane  1 is a valid symmetry operation.
  Symmetry bits:    3   4   0
********************************************************************************
   The full molecular point group is CXv .
   The largest Abelian subgroup of the full molecular point group is C2v .
   The computational point group is C2v .
********************************************************************************
--------------------------------------------------------------------------------
   Analysis of internal coordinates specified by Z-matrix 
--------------------------------------------------------------------------------
   *The nuclear repulsion energy is   79.422957809337319 a.u.
   *There are   2 degrees of freedom within the tot. symm. molecular subspace.
   *Z-matrix requests optimization of   0 coordinates.
   *The optimization is constrained.
   *The following   2 parameters can have non-zero 
    derivatives within the totally symmetric subspace:
             R2   [ 4]  R1   [ 1]
   *The following   0 parameters are to be optimized:

   *The following coordinates must be varied in an  unconstrained optimization.
             R2   [ 4]  R1   [ 1]
--------------------------------------------------------------------------------
 ----------------------------------------------------------------
 Z-matrix   Atomic            Coordinates (in bohr)
  Symbol    Number           X              Y              Z
 ----------------------------------------------------------------
     C         6        -0.00000000     0.00000000    -0.98826317
     O         8         0.00000000    -0.00000000    -3.17618808
     X         0         0.95579066    -0.29404799    -0.98826317
     S        16        -0.00000000    -0.00000000     1.95989856
 ----------------------------------------------------------------
   Interatomic distance matrix (Angstroms) 
 
                 C             O             X             S    
                [ 1]        [ 2]        [ 3]        [ 4]
  C    [ 1]     0.00000
  O    [ 2]     1.15780     0.00000
  X    [ 3]     0.52918     1.27300     0.00000
  S    [ 4]     1.56010     2.71790     1.64740     0.00000
  Inertia tensor (amu*bohr**2)
  295.89059    0.00000    0.00000
    0.00000  295.89059   -0.00000
    0.00000   -0.00000    0.00000
   Rotational constants (in cm-1): 
          0.2034526333             0.0000000000
   Rotational constants (in MHz): 
       6099.3573562287             0.0000000000
  @GTFLGS-W, Keyword #GEOM not known and is ignored.
  @GTFLGS-W, Keyword #COORD not known and is ignored.
  @GTFLGS-W, Keyword #CC_PROG not known and is ignored.
  @GTFLGS-W, Keyword #FROZEN_CORE not known and is ignored.
  @GTFLGS-W, Keyword #CONTRACTION not known and is ignored.
  @GTFLGS-W, Keyword #EXCITE not known and is ignored.
  @GTFLGS-W, Keyword #ESTATE_CONV not known and is ignored.
  @GTFLGS-W, Keyword #ESTATE_SYM not known and is ignored.
  @GTFLGS-W, Keyword #SCF_DAMPING not known and is ignored.
  @GTFLGS-W, Keyword #OCCUPATION not known and is ignored.
  There are  104 basis functions.
 @GEOPT-W, Archive file not created for single-point calculation.
  @CHECKOUT-I, Total execution time (CPU/WALL):        0.65/       3.03 seconds.
--executable xjoda finished with status     0 in       10.01 seconds (walltime).
 --invoking executable--
/home/nike/cfour_v2.00beta/cfour_v2.00beta/bin/xvmol
 Serial version of molecule started
********************************************************************************
                    Input from MOL file
********************************************************************************
INTGRL        1    0    1    0    0    0    0    0    0                         
         *** CFOUR Program System (Release V0.1) ***                            
TITLE                                                                           
    3    2 X  Y       0.10E-08              0    0                              
   9999.00      3.00                                                            
          6.00000000    1    4    1    1    1    1                              
C #1  -0.000000000000000   0.000000000000000  -0.988263170805656                
   11    5                                                                      
   13575.3496820000       2.224581435200000E-004  0.000000000000000E+000        
  0.000000000000000E+000  0.000000000000000E+000  0.000000000000000E+000        
   2035.23336800000       1.723273825200000E-003  0.000000000000000E+000        
  0.000000000000000E+000  0.000000000000000E+000  0.000000000000000E+000        
   463.225623590000       8.925571531400001E-003  0.000000000000000E+000        
  0.000000000000000E+000  0.000000000000000E+000  0.000000000000000E+000        
   131.200195980000       3.572798450200000E-002  0.000000000000000E+000        
  0.000000000000000E+000  0.000000000000000E+000  0.000000000000000E+000        
   42.8530158910000       0.110762599310000       0.000000000000000E+000        
  0.000000000000000E+000  0.000000000000000E+000  0.000000000000000E+000        
   15.5841857660000       0.242956276260000       0.000000000000000E+000        
  0.000000000000000E+000  0.000000000000000E+000  0.000000000000000E+000        
   6.20671385080000       0.000000000000000E+000  0.414402634480000             
  0.000000000000000E+000  0.000000000000000E+000  0.000000000000000E+000        
   2.57648965270000       0.000000000000000E+000  0.237449686550000             
  0.000000000000000E+000  0.000000000000000E+000  0.000000000000000E+000        
  0.576963394190000       0.000000000000000E+000  0.000000000000000E+000        
   1.00000000000000       0.000000000000000E+000  0.000000000000000E+000        
  0.229728313580000       0.000000000000000E+000  0.000000000000000E+000        
  0.000000000000000E+000   1.00000000000000       0.000000000000000E+000        
  9.516444002799999E-002  0.000000000000000E+000  0.000000000000000E+000        
  0.000000000000000E+000  0.000000000000000E+000   1.00000000000000             
    6    3                                                                      
   34.6972322440000       5.333365780500000E-003  0.000000000000000E+000        
  0.000000000000000E+000                                                        
   7.95826228260000       3.586410909200000E-002  0.000000000000000E+000        
  0.000000000000000E+000                                                        
   2.37808268830000       0.142158733290000       0.000000000000000E+000        
  0.000000000000000E+000                                                        
  0.814332081830000       0.342704718450000       0.000000000000000E+000        
  0.000000000000000E+000                                                        
  0.288875472530000       0.000000000000000E+000  0.464458224330000             
  0.000000000000000E+000                                                        
  0.100568236710000       0.000000000000000E+000  0.000000000000000E+000        
  0.249557898740000                                                             
    2    2                                                                      
   1.09700000000000        1.00000000000000       0.000000000000000E+000        
  0.318000000000000       0.000000000000000E+000   1.00000000000000             
    1    1                                                                      
  0.761000000000000        1.00000000000000                                     
          8.00000000    1    4    1    1    1    1                              
O #2   0.000000000000000  -0.000000000000000  -3.176188077895656                
   11    5                                                                      
   27032.3826310000       2.172630246500000E-004  0.000000000000000E+000        
  0.000000000000000E+000  0.000000000000000E+000  0.000000000000000E+000        
   4052.38713920000       1.683866219900000E-003  0.000000000000000E+000        
  0.000000000000000E+000  0.000000000000000E+000  0.000000000000000E+000        
   922.327227100000       8.739561626499999E-003  0.000000000000000E+000        
  0.000000000000000E+000  0.000000000000000E+000  0.000000000000000E+000        
   261.240709890000       3.523996880800000E-002  0.000000000000000E+000        
  0.000000000000000E+000  0.000000000000000E+000  0.000000000000000E+000        
   85.3546413510000       0.111535191150000       0.000000000000000E+000        
  0.000000000000000E+000  0.000000000000000E+000  0.000000000000000E+000        
   31.0350352450000       0.255889539610000       0.000000000000000E+000        
  0.000000000000000E+000  0.000000000000000E+000  0.000000000000000E+000        
   12.2608607280000       0.000000000000000E+000  0.397687309010000             
  0.000000000000000E+000  0.000000000000000E+000  0.000000000000000E+000        
   4.99870760050000       0.000000000000000E+000  0.246278494300000             
  0.000000000000000E+000  0.000000000000000E+000  0.000000000000000E+000        
   1.17031081580000       0.000000000000000E+000  0.000000000000000E+000        
   1.00000000000000       0.000000000000000E+000  0.000000000000000E+000        
  0.464747409940000       0.000000000000000E+000  0.000000000000000E+000        
  0.000000000000000E+000   1.00000000000000       0.000000000000000E+000        
  0.185045363570000       0.000000000000000E+000  0.000000000000000E+000        
  0.000000000000000E+000  0.000000000000000E+000   1.00000000000000             
    6    3                                                                      
   63.2749548010000       6.068510341800000E-003  0.000000000000000E+000        
  0.000000000000000E+000                                                        
   14.6270493790000       4.191257582400000E-002  0.000000000000000E+000        
  0.000000000000000E+000                                                        
   4.45012234560000       0.161538410880000       0.000000000000000E+000        
  0.000000000000000E+000                                                        
   1.52757996470000       0.357069513110000       0.000000000000000E+000        
  0.000000000000000E+000                                                        
  0.529351179430000       0.000000000000000E+000  0.447942075020000             
  0.000000000000000E+000                                                        
  0.174784212700000       0.000000000000000E+000  0.000000000000000E+000        
  0.244460696630000                                                             
    2    2                                                                      
   2.31400000000000        1.00000000000000       0.000000000000000E+000        
  0.645000000000000       0.000000000000000E+000   1.00000000000000             
    1    1                                                                      
   1.42800000000000        1.00000000000000                                     
         16.00000000    1    4    1    1    1    1                              
S #3  -0.000000000000000  -0.000000000000000   1.959898556224345                
   14    5                                                                      
   60700.9281040000       5.469594422500000E-004  0.000000000000000E+000        
  0.000000000000000E+000  0.000000000000000E+000  0.000000000000000E+000        
   9102.61068540000       4.229722455700000E-003  0.000000000000000E+000        
  0.000000000000000E+000  0.000000000000000E+000  0.000000000000000E+000        
   2071.41660090000       2.174782415900000E-002  0.000000000000000E+000        
  0.000000000000000E+000  0.000000000000000E+000  0.000000000000000E+000        
   586.024768210000       8.510005358900000E-002  0.000000000000000E+000        
  0.000000000000000E+000  0.000000000000000E+000  0.000000000000000E+000        
   190.553950210000       0.247991284590000       0.000000000000000E+000        
  0.000000000000000E+000  0.000000000000000E+000  0.000000000000000E+000        
   67.6303842600000       0.467036404060000       0.000000000000000E+000        
  0.000000000000000E+000  0.000000000000000E+000  0.000000000000000E+000        
   25.1273069050000       0.364345875500000       0.000000000000000E+000        
  0.000000000000000E+000  0.000000000000000E+000  0.000000000000000E+000        
   112.574630100000       0.000000000000000E+000  2.167004024000000E-002        
  0.000000000000000E+000  0.000000000000000E+000  0.000000000000000E+000        
   34.7955542170000       0.000000000000000E+000  9.360230176000001E-002        
  0.000000000000000E+000  0.000000000000000E+000  0.000000000000000E+000        
   6.51155562150000       0.000000000000000E+000 -0.260680014220000             
  0.000000000000000E+000  0.000000000000000E+000  0.000000000000000E+000        
   3.23990322610000       0.000000000000000E+000  0.000000000000000E+000        
   1.28420894350000       0.000000000000000E+000  0.000000000000000E+000        
   1.54771608810000       0.000000000000000E+000  0.000000000000000E+000        
  0.660364165840000       0.000000000000000E+000  0.000000000000000E+000        
  0.405410301120000       0.000000000000000E+000  0.000000000000000E+000        
  0.000000000000000E+000   1.00000000000000       0.000000000000000E+000        
  0.145506510590000       0.000000000000000E+000  0.000000000000000E+000        
  0.000000000000000E+000  0.000000000000000E+000   1.00000000000000             
    9    5                                                                      
   564.367160270000       2.479679631700000E-003  0.000000000000000E+000        
  0.000000000000000E+000  0.000000000000000E+000  0.000000000000000E+000        
   133.426243790000       1.967793025000000E-002  0.000000000000000E+000        
  0.000000000000000E+000  0.000000000000000E+000  0.000000000000000E+000        
   42.4682711890000       8.998000825800000E-002  0.000000000000000E+000        
  0.000000000000000E+000  0.000000000000000E+000  0.000000000000000E+000        
   15.6165275800000       0.257058805750000       0.000000000000000E+000        
  0.000000000000000E+000  0.000000000000000E+000  0.000000000000000E+000        
   6.10939884690000       0.435151672920000       0.000000000000000E+000        
  0.000000000000000E+000  0.000000000000000E+000  0.000000000000000E+000        
   2.44041601980000       0.000000000000000E+000  0.348832405950000             
  0.000000000000000E+000  0.000000000000000E+000  0.000000000000000E+000        
  0.838822012960000       0.000000000000000E+000  0.000000000000000E+000        
   1.00000000000000       0.000000000000000E+000  0.000000000000000E+000        
  0.312887469000000       0.000000000000000E+000  0.000000000000000E+000        
  0.000000000000000E+000   1.00000000000000       0.000000000000000E+000        
  0.107701090040000       0.000000000000000E+000  0.000000000000000E+000        
  0.000000000000000E+000  0.000000000000000E+000   1.00000000000000             
    3    3                                                                      
  0.273000000000000        1.00000000000000       0.000000000000000E+000        
  0.000000000000000E+000                                                        
   3.75600000000000       0.000000000000000E+000   1.00000000000000             
  0.000000000000000E+000                                                        
  0.812000000000000       0.000000000000000E+000  0.000000000000000E+000        
   1.00000000000000                                                             
    1    1                                                                      
  0.557000000000000        1.00000000000000                                     
FINISH                                                                          
 
********************************************************************************
 One- and two-electron integrals over symmetry-adapted AOs are calculated.

  Spherical harmonics are used.
  
   3 types of atoms
   2 symmetry operations

   Reflection in the YZ-plane
   Reflection in the XZ-plane
  
  Integrals less than  0.10E-13 are neglected.

  Atomic type number  1 :
  -----------------------

    Nuclear charge:                        6
    number of symmetry independent atoms:  1
    highest orbital type:                  f

      1 groups of CGTOs of s type
      1 groups of CGTOs of p type
      1 groups of CGTOs of d type
      1 groups of CGTOs of f type

    nuclear coordinates (in a.u.) are :

    C #1        0.000000000000000        0.000000000000000       -0.988263170805656
  
   Basis function not normalized: 
   Center (as ordered in MOL file):   1
   Angular Momentum type          : s
   Offset within angular momentum :  1
   <chi|chi>                      :    2.7261534527
   Basis function not normalized: 
   Center (as ordered in MOL file):   1
   Angular Momentum type          : s
   Offset within angular momentum :  2
   <chi|chi>                      :    1.5828883092
   Basis function not normalized: 
   Center (as ordered in MOL file):   1
   Angular Momentum type          : p
   Offset within angular momentum :  1
   <chi|chi>                      :    2.1238408295
   Basis function not normalized: 
   Center (as ordered in MOL file):   1
   Angular Momentum type          : p
   Offset within angular momentum :  2
   <chi|chi>                      :    2.1530461678
   Basis function not normalized: 
   Center (as ordered in MOL file):   1
   Angular Momentum type          : p
   Offset within angular momentum :  3
   <chi|chi>                      :    4.0070861513
  Atomic type number  2 :
  -----------------------

    Nuclear charge:                        8
    number of symmetry independent atoms:  1
    highest orbital type:                  f

      1 groups of CGTOs of s type
      1 groups of CGTOs of p type
      1 groups of CGTOs of d type
      1 groups of CGTOs of f type

    nuclear coordinates (in a.u.) are :

    O #2        0.000000000000000        0.000000000000000       -3.176188077895656
  
   Basis function not normalized: 
   Center (as ordered in MOL file):   2
   Angular Momentum type          : s
   Offset within angular momentum :  1
   <chi|chi>                      :    2.6340117148
   Basis function not normalized: 
   Center (as ordered in MOL file):   2
   Angular Momentum type          : s
   Offset within angular momentum :  2
   <chi|chi>                      :    1.6052797155
   Basis function not normalized: 
   Center (as ordered in MOL file):   2
   Angular Momentum type          : p
   Offset within angular momentum :  1
   <chi|chi>                      :    1.9804419117
   Basis function not normalized: 
   Center (as ordered in MOL file):   2
   Angular Momentum type          : p
   Offset within angular momentum :  2
   <chi|chi>                      :    2.2324315035
   Basis function not normalized: 
   Center (as ordered in MOL file):   2
   Angular Momentum type          : p
   Offset within angular momentum :  3
   <chi|chi>                      :    4.0906371199
  Atomic type number  3 :
  -----------------------

    Nuclear charge:                       16
    number of symmetry independent atoms:  1
    highest orbital type:                  f

      1 groups of CGTOs of s type
      1 groups of CGTOs of p type
      1 groups of CGTOs of d type
      1 groups of CGTOs of f type

    nuclear coordinates (in a.u.) are :

    S #3        0.000000000000000        0.000000000000000        1.959898556224345
  
   Basis function not normalized: 
   Center (as ordered in MOL file):   3
   Angular Momentum type          : s
   Offset within angular momentum :  1
   <chi|chi>                      :    0.9576592130
   Basis function not normalized: 
   Center (as ordered in MOL file):   3
   Angular Momentum type          : s
   Offset within angular momentum :  2
   <chi|chi>                      :    4.6356950771
   Basis function not normalized: 
   Center (as ordered in MOL file):   3
   Angular Momentum type          : s
   Offset within angular momentum :  3
   <chi|chi>                      :    0.5256008359
   Basis function not normalized: 
   Center (as ordered in MOL file):   3
   Angular Momentum type          : p
   Offset within angular momentum :  1
   <chi|chi>                      :    1.4069125377
   Basis function not normalized: 
   Center (as ordered in MOL file):   3
   Angular Momentum type          : p
   Offset within angular momentum :  2
   <chi|chi>                      :    2.8667061401
   Internuclear distances (A) :

     for atom C #1 (coordinates :   0.00000   0.00000  -0.98826)

     O #2   1     distance is  1.158
     S #3   1     distance is  1.560

     for atom O #2 (coordinates :   0.00000   0.00000  -3.17619)

     S #3   1     distance is  2.718

     for atom S #3 (coordinates :   0.00000   0.00000   1.95990)


   Group multiplication table :

         1   2   3   4
         2   1   4   3
         3   4   1   2
         4   3   2   1

   Gaussian basis information :

   atom                 exponent      coefficients

 C #1  1    S   
+                 1   13575.349682   0.0002225   0.0000000   0.0000000   0.0000000   0.0000000
                  2    2035.233368   0.0017233   0.0000000   0.0000000   0.0000000   0.0000000
                  3     463.225624   0.0089256   0.0000000   0.0000000   0.0000000   0.0000000
                  4     131.200196   0.0357280   0.0000000   0.0000000   0.0000000   0.0000000
                  5      42.853016   0.1107626   0.0000000   0.0000000   0.0000000   0.0000000
                  6      15.584186   0.2429563   0.0000000   0.0000000   0.0000000   0.0000000
                  7       6.206714   0.0000000   0.4144026   0.0000000   0.0000000   0.0000000
                  8       2.576490   0.0000000   0.2374497   0.0000000   0.0000000   0.0000000
                  9       0.576963   0.0000000   0.0000000   1.0000000   0.0000000   0.0000000
                 10       0.229728   0.0000000   0.0000000   0.0000000   1.0000000   0.0000000
                 11       0.095164   0.0000000   0.0000000   0.0000000   0.0000000   1.0000000

 C #1  1    X   
+                12      34.697232   0.0053334   0.0000000   0.0000000
                 13       7.958262   0.0358641   0.0000000   0.0000000
                 14       2.378083   0.1421587   0.0000000   0.0000000
                 15       0.814332   0.3427047   0.0000000   0.0000000
                 16       0.288875   0.0000000   0.4644582   0.0000000
                 17       0.100568   0.0000000   0.0000000   0.2495579

 C #1  1    Y   
+                18      34.697232   0.0053334   0.0000000   0.0000000
                 19       7.958262   0.0358641   0.0000000   0.0000000
                 20       2.378083   0.1421587   0.0000000   0.0000000
                 21       0.814332   0.3427047   0.0000000   0.0000000
                 22       0.288875   0.0000000   0.4644582   0.0000000
                 23       0.100568   0.0000000   0.0000000   0.2495579

 C #1  1    Z   
+                24      34.697232   0.0053334   0.0000000   0.0000000
                 25       7.958262   0.0358641   0.0000000   0.0000000
                 26       2.378083   0.1421587   0.0000000   0.0000000
                 27       0.814332   0.3427047   0.0000000   0.0000000
                 28       0.288875   0.0000000   0.4644582   0.0000000
                 29       0.100568   0.0000000   0.0000000   0.2495579

 C #1  1    XX  
+                30       1.097000   1.0000000   0.0000000
                 31       0.318000   0.0000000   1.0000000

 C #1  1    XY  
+                32       1.097000   1.0000000   0.0000000
                 33       0.318000   0.0000000   1.0000000

 C #1  1    XZ  
+                34       1.097000   1.0000000   0.0000000
                 35       0.318000   0.0000000   1.0000000

 C #1  1    YY  
+                36       1.097000   1.0000000   0.0000000
                 37       0.318000   0.0000000   1.0000000

 C #1  1    YZ  
+                38       1.097000   1.0000000   0.0000000
                 39       0.318000   0.0000000   1.0000000

 C #1  1    ZZ  
+                40       1.097000   1.0000000   0.0000000
                 41       0.318000   0.0000000   1.0000000

 C #1  1    F300
+                42       0.761000   1.0000000

 C #1  1    F210
+                43       0.761000   1.0000000

 C #1  1    F201
+                44       0.761000   1.0000000

 C #1  1    F120
+                45       0.761000   1.0000000

 C #1  1    F111
+                46       0.761000   1.0000000

 C #1  1    F102
+                47       0.761000   1.0000000

 C #1  1    F030
+                48       0.761000   1.0000000

 C #1  1    F021
+                49       0.761000   1.0000000

 C #1  1    F012
+                50       0.761000   1.0000000

 C #1  1    F003
+                51       0.761000   1.0000000

 O #2  1    S   
+                52   27032.382631   0.0002173   0.0000000   0.0000000   0.0000000   0.0000000
                 53    4052.387139   0.0016839   0.0000000   0.0000000   0.0000000   0.0000000
                 54     922.327227   0.0087396   0.0000000   0.0000000   0.0000000   0.0000000
                 55     261.240710   0.0352400   0.0000000   0.0000000   0.0000000   0.0000000
                 56      85.354641   0.1115352   0.0000000   0.0000000   0.0000000   0.0000000
                 57      31.035035   0.2558895   0.0000000   0.0000000   0.0000000   0.0000000
                 58      12.260861   0.0000000   0.3976873   0.0000000   0.0000000   0.0000000
                 59       4.998708   0.0000000   0.2462785   0.0000000   0.0000000   0.0000000
                 60       1.170311   0.0000000   0.0000000   1.0000000   0.0000000   0.0000000
                 61       0.464747   0.0000000   0.0000000   0.0000000   1.0000000   0.0000000
                 62       0.185045   0.0000000   0.0000000   0.0000000   0.0000000   1.0000000

 O #2  1    X   
+                63      63.274955   0.0060685   0.0000000   0.0000000
                 64      14.627049   0.0419126   0.0000000   0.0000000
                 65       4.450122   0.1615384   0.0000000   0.0000000
                 66       1.527580   0.3570695   0.0000000   0.0000000
                 67       0.529351   0.0000000   0.4479421   0.0000000
                 68       0.174784   0.0000000   0.0000000   0.2444607

 O #2  1    Y   
+                69      63.274955   0.0060685   0.0000000   0.0000000
                 70      14.627049   0.0419126   0.0000000   0.0000000
                 71       4.450122   0.1615384   0.0000000   0.0000000
                 72       1.527580   0.3570695   0.0000000   0.0000000
                 73       0.529351   0.0000000   0.4479421   0.0000000
                 74       0.174784   0.0000000   0.0000000   0.2444607

 O #2  1    Z   
+                75      63.274955   0.0060685   0.0000000   0.0000000
                 76      14.627049   0.0419126   0.0000000   0.0000000
                 77       4.450122   0.1615384   0.0000000   0.0000000
                 78       1.527580   0.3570695   0.0000000   0.0000000
                 79       0.529351   0.0000000   0.4479421   0.0000000
                 80       0.174784   0.0000000   0.0000000   0.2444607

 O #2  1    XX  
+                81       2.314000   1.0000000   0.0000000
                 82       0.645000   0.0000000   1.0000000

 O #2  1    XY  
+                83       2.314000   1.0000000   0.0000000
                 84       0.645000   0.0000000   1.0000000

 O #2  1    XZ  
+                85       2.314000   1.0000000   0.0000000
                 86       0.645000   0.0000000   1.0000000

 O #2  1    YY  
+                87       2.314000   1.0000000   0.0000000
                 88       0.645000   0.0000000   1.0000000

 O #2  1    YZ  
+                89       2.314000   1.0000000   0.0000000
                 90       0.645000   0.0000000   1.0000000

 O #2  1    ZZ  
+                91       2.314000   1.0000000   0.0000000
                 92       0.645000   0.0000000   1.0000000

 O #2  1    F300
+                93       1.428000   1.0000000

 O #2  1    F210
+                94       1.428000   1.0000000

 O #2  1    F201
+                95       1.428000   1.0000000

 O #2  1    F120
+                96       1.428000   1.0000000

 O #2  1    F111
+                97       1.428000   1.0000000

 O #2  1    F102
+                98       1.428000   1.0000000

 O #2  1    F030
+                99       1.428000   1.0000000

 O #2  1    F021
+               100       1.428000   1.0000000

 O #2  1    F012
+               101       1.428000   1.0000000

 O #2  1    F003
+               102       1.428000   1.0000000

 S #3  1    S   
+               103   60700.928104   0.0005470   0.0000000   0.0000000   0.0000000   0.0000000
                104    9102.610685   0.0042297   0.0000000   0.0000000   0.0000000   0.0000000
                105    2071.416601   0.0217478   0.0000000   0.0000000   0.0000000   0.0000000
                106     586.024768   0.0851001   0.0000000   0.0000000   0.0000000   0.0000000
                107     190.553950   0.2479913   0.0000000   0.0000000   0.0000000   0.0000000
                108      67.630384   0.4670364   0.0000000   0.0000000   0.0000000   0.0000000
                109      25.127307   0.3643459   0.0000000   0.0000000   0.0000000   0.0000000
                110     112.574630   0.0000000   0.0216700   0.0000000   0.0000000   0.0000000
                111      34.795554   0.0000000   0.0936023   0.0000000   0.0000000   0.0000000
                112       6.511556   0.0000000  -0.2606800   0.0000000   0.0000000   0.0000000
                113       3.239903   0.0000000   0.0000000   1.2842089   0.0000000   0.0000000
                114       1.547716   0.0000000   0.0000000   0.6603642   0.0000000   0.0000000
                115       0.405410   0.0000000   0.0000000   0.0000000   1.0000000   0.0000000
                116       0.145507   0.0000000   0.0000000   0.0000000   0.0000000   1.0000000

 S #3  1    X   
+               117     564.367160   0.0024797   0.0000000   0.0000000   0.0000000   0.0000000
                118     133.426244   0.0196779   0.0000000   0.0000000   0.0000000   0.0000000
                119      42.468271   0.0899800   0.0000000   0.0000000   0.0000000   0.0000000
                120      15.616528   0.2570588   0.0000000   0.0000000   0.0000000   0.0000000
                121       6.109399   0.4351517   0.0000000   0.0000000   0.0000000   0.0000000
                122       2.440416   0.0000000   0.3488324   0.0000000   0.0000000   0.0000000
                123       0.838822   0.0000000   0.0000000   1.0000000   0.0000000   0.0000000
                124       0.312887   0.0000000   0.0000000   0.0000000   1.0000000   0.0000000
                125       0.107701   0.0000000   0.0000000   0.0000000   0.0000000   1.0000000

 S #3  1    Y   
+               126     564.367160   0.0024797   0.0000000   0.0000000   0.0000000   0.0000000
                127     133.426244   0.0196779   0.0000000   0.0000000   0.0000000   0.0000000
                128      42.468271   0.0899800   0.0000000   0.0000000   0.0000000   0.0000000
                129      15.616528   0.2570588   0.0000000   0.0000000   0.0000000   0.0000000
                130       6.109399   0.4351517   0.0000000   0.0000000   0.0000000   0.0000000
                131       2.440416   0.0000000   0.3488324   0.0000000   0.0000000   0.0000000
                132       0.838822   0.0000000   0.0000000   1.0000000   0.0000000   0.0000000
                133       0.312887   0.0000000   0.0000000   0.0000000   1.0000000   0.0000000
                134       0.107701   0.0000000   0.0000000   0.0000000   0.0000000   1.0000000

 S #3  1    Z   
+               135     564.367160   0.0024797   0.0000000   0.0000000   0.0000000   0.0000000
                136     133.426244   0.0196779   0.0000000   0.0000000   0.0000000   0.0000000
                137      42.468271   0.0899800   0.0000000   0.0000000   0.0000000   0.0000000
                138      15.616528   0.2570588   0.0000000   0.0000000   0.0000000   0.0000000
                139       6.109399   0.4351517   0.0000000   0.0000000   0.0000000   0.0000000
                140       2.440416   0.0000000   0.3488324   0.0000000   0.0000000   0.0000000
                141       0.838822   0.0000000   0.0000000   1.0000000   0.0000000   0.0000000
                142       0.312887   0.0000000   0.0000000   0.0000000   1.0000000   0.0000000
                143       0.107701   0.0000000   0.0000000   0.0000000   0.0000000   1.0000000

 S #3  1    XX  
+               144       0.273000   1.0000000   0.0000000   0.0000000
                145       3.756000   0.0000000   1.0000000   0.0000000
                146       0.812000   0.0000000   0.0000000   1.0000000

 S #3  1    XY  
+               147       0.273000   1.0000000   0.0000000   0.0000000
                148       3.756000   0.0000000   1.0000000   0.0000000
                149       0.812000   0.0000000   0.0000000   1.0000000

 S #3  1    XZ  
+               150       0.273000   1.0000000   0.0000000   0.0000000
                151       3.756000   0.0000000   1.0000000   0.0000000
                152       0.812000   0.0000000   0.0000000   1.0000000

 S #3  1    YY  
+               153       0.273000   1.0000000   0.0000000   0.0000000
                154       3.756000   0.0000000   1.0000000   0.0000000
                155       0.812000   0.0000000   0.0000000   1.0000000

 S #3  1    YZ  
+               156       0.273000   1.0000000   0.0000000   0.0000000
                157       3.756000   0.0000000   1.0000000   0.0000000
                158       0.812000   0.0000000   0.0000000   1.0000000

 S #3  1    ZZ  
+               159       0.273000   1.0000000   0.0000000   0.0000000
                160       3.756000   0.0000000   1.0000000   0.0000000
                161       0.812000   0.0000000   0.0000000   1.0000000

 S #3  1    F300
+               162       0.557000   1.0000000

 S #3  1    F210
+               163       0.557000   1.0000000

 S #3  1    F201
+               164       0.557000   1.0000000

 S #3  1    F120
+               165       0.557000   1.0000000

 S #3  1    F111
+               166       0.557000   1.0000000

 S #3  1    F102
+               167       0.557000   1.0000000

 S #3  1    F030
+               168       0.557000   1.0000000

 S #3  1    F021
+               169       0.557000   1.0000000

 S #3  1    F012
+               170       0.557000   1.0000000

 S #3  1    F003
+               171       0.557000   1.0000000
120104
  1  2  3  4  5  6  7  8  9 10 11 12****** 13 14*** 15 16 17 18 19 20 21 22
 23 24 25 26****** 27 28*** 29 30 31 32 33 34 35 36 37 38 39 40 41 42 43 44
********* 45 46*** 47 48 49 50 51 52 53*** 54 55 56 57 58 59 60*** 61 62 63
 64 65 66 67 68 69 70*** 71 72 73 74 75 76 77*** 78 79 80 81 82 83 84*** 85
 86 87 88 89 90 91 92 93 94*** 95 96 97 98 99100101102103104
1

             SYMMETRY TRANSFORMATION INFO
            104 SYMMETRY ADAPTED BASIS FUNCTIONS 


          irreducible representation number 1

    1    1  C #1     1s     1   1   1.0
    2    2  C #1     1s     1   2   1.0
    3    3  C #1     1s     1   3   1.0
    4    4  C #1     1s     1   4   1.0
    5    5  C #1     1s     1   5   1.0
    6    6  C #1     2pz    1  12   1.0
    7    7  C #1     2pz    1  13   1.0
    8    8  C #1     2pz    1  14   1.0
    9    9  C #1     3d2-   3  15  -1.0  21  -1.0  25   2.0
   10   10  C #1     3d2-   3  16  -1.0  22  -1.0  26   2.0
   11   11  C #1     3d1+   2  15   1.0  21  -1.0
   12   12  C #1     3d1+   2  16   1.0  22  -1.0
   13   13  C #1     4f1-   3  29  -3.0  34  -3.0  36   2.0
   14   14  C #1     4f3+   2  29   1.0  34  -1.0
   15   15  O #2     1s     1  37   1.0
   16   16  O #2     1s     1  38   1.0
   17   17  O #2     1s     1  39   1.0
   18   18  O #2     1s     1  40   1.0
   19   19  O #2     1s     1  41   1.0
   20   20  O #2     2pz    1  48   1.0
   21   21  O #2     2pz    1  49   1.0
   22   22  O #2     2pz    1  50   1.0
   23   23  O #2     3d2-   3  51  -1.0  57  -1.0  61   2.0
   24   24  O #2     3d2-   3  52  -1.0  58  -1.0  62   2.0
   25   25  O #2     3d1+   2  51   1.0  57  -1.0
   26   26  O #2     3d1+   2  52   1.0  58  -1.0
   27   27  O #2     4f1-   3  65  -3.0  70  -3.0  72   2.0
   28   28  O #2     4f3+   2  65   1.0  70  -1.0
   29   29  S #3     1s     1  73   1.0
   30   30  S #3     1s     1  74   1.0
   31   31  S #3     1s     1  75   1.0
   32   32  S #3     1s     1  76   1.0
   33   33  S #3     1s     1  77   1.0
   34   34  S #3     2pz    1  88   1.0
   35   35  S #3     2pz    1  89   1.0
   36   36  S #3     2pz    1  90   1.0
   37   37  S #3     2pz    1  91   1.0
   38   38  S #3     2pz    1  92   1.0
   39   39  S #3     3d2-   3  93  -1.0 102  -1.0 108   2.0
   40   40  S #3     3d2-   3  94  -1.0 103  -1.0 109   2.0
   41   41  S #3     3d2-   3  95  -1.0 104  -1.0 110   2.0
   42   42  S #3     3d1+   2  93   1.0 102  -1.0
   43   43  S #3     3d1+   2  94   1.0 103  -1.0
   44   44  S #3     3d1+   2  95   1.0 104  -1.0
   45   45  S #3     4f1-   3 113  -3.0 118  -3.0 120   2.0
   46   46  S #3     4f3+   2 113   1.0 118  -1.0


          irreducible representation number 2

   47    1  C #1     2px    1   6   1.0
   48    2  C #1     2px    1   7   1.0
   49    3  C #1     2px    1   8   1.0
   50    4  C #1     3d0    1  19   1.0
   51    5  C #1     3d0    1  20   1.0
   52    6  C #1     4f3-   3  27  -1.0  30  -1.0  32   4.0
   53    7  C #1     4f0    2  27   1.0  30  -3.0
   54    8  O #2     2px    1  42   1.0
   55    9  O #2     2px    1  43   1.0
   56   10  O #2     2px    1  44   1.0
   57   11  O #2     3d0    1  55   1.0
   58   12  O #2     3d0    1  56   1.0
   59   13  O #2     4f3-   3  63  -1.0  66  -1.0  68   4.0
   60   14  O #2     4f0    2  63   1.0  66  -3.0
   61   15  S #3     2px    1  78   1.0
   62   16  S #3     2px    1  79   1.0
   63   17  S #3     2px    1  80   1.0
   64   18  S #3     2px    1  81   1.0
   65   19  S #3     2px    1  82   1.0
   66   20  S #3     3d0    1  99   1.0
   67   21  S #3     3d0    1 100   1.0
   68   22  S #3     3d0    1 101   1.0
   69   23  S #3     4f3-   3 111  -1.0 114  -1.0 116   4.0
   70   24  S #3     4f0    2 111   1.0 114  -3.0


          irreducible representation number 3

   71    1  C #1     2py    1   9   1.0
   72    2  C #1     2py    1  10   1.0
   73    3  C #1     2py    1  11   1.0
   74    4  C #1     3d2+   1  23   1.0
   75    5  C #1     3d2+   1  24   1.0
   76    6  C #1     4f2-   3  28  -1.0  33  -1.0  35   4.0
   77    7  C #1     4f2+   2  28   3.0  33  -1.0
   78    8  O #2     2py    1  45   1.0
   79    9  O #2     2py    1  46   1.0
   80   10  O #2     2py    1  47   1.0
   81   11  O #2     3d2+   1  59   1.0
   82   12  O #2     3d2+   1  60   1.0
   83   13  O #2     4f2-   3  64  -1.0  69  -1.0  71   4.0
   84   14  O #2     4f2+   2  64   3.0  69  -1.0
   85   15  S #3     2py    1  83   1.0
   86   16  S #3     2py    1  84   1.0
   87   17  S #3     2py    1  85   1.0
   88   18  S #3     2py    1  86   1.0
   89   19  S #3     2py    1  87   1.0
   90   20  S #3     3d2+   1 105   1.0
   91   21  S #3     3d2+   1 106   1.0
   92   22  S #3     3d2+   1 107   1.0
   93   23  S #3     4f2-   3 112  -1.0 117  -1.0 119   4.0
   94   24  S #3     4f2+   2 112   3.0 117  -1.0


          irreducible representation number 4

   95    1  C #1     3d1-   1  17   1.0
   96    2  C #1     3d1-   1  18   1.0
   97    3  C #1     4f1+   1  31   1.0
   98    4  O #2     3d1-   1  53   1.0
   99    5  O #2     3d1-   1  54   1.0
  100    6  O #2     4f1+   1  67   1.0
  101    7  S #3     3d1-   1  96   1.0
  102    8  S #3     3d1-   1  97   1.0
  103    9  S #3     3d1-   1  98   1.0
  104   10  S #3     4f1+   1 115   1.0
  Nuclear repulsion energy :   79.4229578093 a.u.
  required memory for a1 array                5085093  words 
  required memory for a2 array                2269589  words 
 @GETMEM-I,  Allocated      71 MB of main memory.
  @MOLECU-I, One electron integrals (CPU/WALL):        0.05/       0.06 seconds.
  @TWOEL-I,     376966 integrals of symmetry type  I I I I
  @TWOEL-I,    1226546 integrals of symmetry type  I J I J
  @TWOEL-I,     663703 integrals of symmetry type  I I J J
  @TWOEL-I,     676519 integrals of symmetry type  I J K L
  @TWOEL-I, Total number of 2-e integrals    2943734.
  @MOLECU-I, Two electron integrals (CPU/WALL):        2.11/       2.25 seconds.
  @CHECKOUT-I, Total execution time (CPU/WALL):        2.62/       3.23 seconds.
--executable xvmol finished with status     0 in        3.36 seconds (walltime).
 --invoking executable--
/home/nike/cfour_v2.00beta/cfour_v2.00beta/bin/xvmol2ja
 @GETMEM-I,  Allocated   11444 MB of main memory.
  @CHECKOUT-I, Total execution time (CPU/WALL):        0.02/       0.03 seconds.
--executable xvmol2ja finished with status     0 in        0.28 seconds (walltime).
 --invoking executable--
/home/nike/cfour_v2.00beta/cfour_v2.00beta/bin/xvscf
  There are  104 functions in the AO basis.

  There are 4 irreducible representations.

       Irrep        # of functions
         1                 46
         2                 24
         3                 24
         4                 10


  Parameters for SCF calculation: 
        SCF reference function:  RHF  
  Maximum number of iterations: ****
     Full symmetry point group: CXv 
     Computational point group: C2v 
        Initial density matrix: MOREAD                 
     SCF convergence tolerance: 10**(-12)
  DIIS convergence acceleration:  ON
          Latest start for DIIS:   5
                     DIIS order:   6

  Memory information:     513998 words required.
  Fock matrices are constructed from AO integral file.
 @GETMEM-I,  Allocated       3 MB of main memory.
  Initialization and symmetry analysis required      0.024 seconds.

  @INITGES-I, Occupancies from core Hamiltonian:

          Alpha population by irrep:   8    3    3    1
           Beta population by irrep:   8    3    3    1


 total no. of electrons in initial guess :  0.000000000000000E+000
  --------------------------------------------------------------------
  Iteration         Total Energy            Largest Density Difference
  --------------------------------------------------------------------
       0            79.422957809337305              0.0000000000D+00
   current occupation vector 
     8  3  3  1
     8  3  3  1
  processed                 376966  ao basis integrals from 
                   629  buffers.
  processed                 663703  ao basis integrals from 
                  1107  buffers.
  processed                1226546  ao basis integrals from 
                  2045  buffers.
       1          -331.145694383469504              0.3198101610D+01
   current occupation vector 
     8  3  3  1
     8  3  3  1
  processed                 376966  ao basis integrals from 
                   629  buffers.
  processed                 663703  ao basis integrals from 
                  1107  buffers.
  processed                1226546  ao basis integrals from 
                  2045  buffers.
       2          -303.403948020633948              0.4070949254D+01
   current occupation vector 
     9  2  3  1
     9  2  3  1
  processed                 376966  ao basis integrals from 
                   629  buffers.
  processed                 663703  ao basis integrals from 
                  1107  buffers.
  processed                1226546  ao basis integrals from 
                  2045  buffers.
       3          -362.457087004993468              0.4060576301D+01
   current occupation vector 
     8  3  3  1
     8  3  3  1
  processed                 376966  ao basis integrals from 
                   629  buffers.
  processed                 663703  ao basis integrals from 
                  1107  buffers.
  processed                1226546  ao basis integrals from 
                  2045  buffers.
       4          -303.678646334384098              0.4101300918D+01
   current occupation vector 
     9  2  3  1
     9  2  3  1
 
 sum over diagonal and offdiagdiagonal of C(T)*S*C for irrep
                     1
 -2.989830605315547E-013  9.295935340832078E-014
 reorthoganalization of MOs is carried out
 sum over diagonal and offdiagdiagonal of C(T)*S*C for irrep
                     1
 -5.895284260759581E-014  1.693093134239978E-014
 
 sum over diagonal and offdiagdiagonal of C(T)*S*C for irrep
                     2
  1.836308882730009E-013  7.616312926505479E-014
 reorthoganalization of MOs is carried out
 sum over diagonal and offdiagdiagonal of C(T)*S*C for irrep
                     2
 -1.554312234475219E-015  8.349532113942165E-016
 
 sum over diagonal and offdiagdiagonal of C(T)*S*C for irrep
                     3
  3.563815909046752E-014 -1.879023024210036E-013
 reorthoganalization of MOs is carried out
 sum over diagonal and offdiagdiagonal of C(T)*S*C for irrep
                     3
 -1.776356839400250E-015  1.076153147160183E-015
 
 sum over diagonal and offdiagdiagonal of C(T)*S*C for irrep
                     4
 -1.387778780781446E-014  9.321758712491558E-015
 reorthoganalization of MOs is carried out
 sum over diagonal and offdiagdiagonal of C(T)*S*C for irrep
                     4
  1.110223024625157E-016 -2.669588378664095E-016
  processed                 376966  ao basis integrals from 
                   629  buffers.
  processed                 663703  ao basis integrals from 
                  1107  buffers.
  processed                1226546  ao basis integrals from 
                  2045  buffers.
       5          -362.313031851535015              0.4101568362D+01
   current occupation vector 
     8  3  3  1
     8  3  3  1
  processed                 376966  ao basis integrals from 
                   629  buffers.
  processed                 663703  ao basis integrals from 
                  1107  buffers.
  processed                1226546  ao basis integrals from 
                  2045  buffers.
       6          -421.493691127702846              0.6300345631D+01
   current occupation vector 
     8  3  3  1
     8  3  3  1
  processed                 376966  ao basis integrals from 
                   629  buffers.
  processed                 663703  ao basis integrals from 
                  1107  buffers.
  processed                1226546  ao basis integrals from 
                  2045  buffers.
       7          -437.654690954581270              0.2683957146D+01
   current occupation vector 
     8  3  3  1
     8  3  3  1
  processed                 376966  ao basis integrals from 
                   629  buffers.
  processed                 663703  ao basis integrals from 
                  1107  buffers.
  processed                1226546  ao basis integrals from 
                  2045  buffers.
       8          -485.003020756564865              0.3724515571D+01
   current occupation vector 
     9  3  3  0
     9  3  3  0
  processed                 376966  ao basis integrals from 
                   629  buffers.
  processed                 663703  ao basis integrals from 
                  1107  buffers.
  processed                1226546  ao basis integrals from 
                  2045  buffers.
       9          -508.870668938451217              0.1367355282D+01
   current occupation vector 
     9  3  3  0
     9  3  3  0
 
 sum over diagonal and offdiagdiagonal of C(T)*S*C for irrep
                     1
 -2.750022431996513E-013  2.457578508151015E-013
 reorthoganalization of MOs is carried out
 sum over diagonal and offdiagdiagonal of C(T)*S*C for irrep
                     1
 -8.715250743307479E-014  1.809567265843865E-014
 
 sum over diagonal and offdiagdiagonal of C(T)*S*C for irrep
                     2
  1.344480082821065E-013 -1.936205852750204E-013
 reorthoganalization of MOs is carried out
 sum over diagonal and offdiagdiagonal of C(T)*S*C for irrep
                     2
  8.881784197001252E-016  2.427565319390321E-015
 
 sum over diagonal and offdiagdiagonal of C(T)*S*C for irrep
                     3
  7.149836278586008E-014  2.450764577645796E-013
 reorthoganalization of MOs is carried out
 sum over diagonal and offdiagdiagonal of C(T)*S*C for irrep
                     3
 -5.551115123125783E-016  5.105118192090574E-015
 
 sum over diagonal and offdiagdiagonal of C(T)*S*C for irrep
                     4
 -1.731947918415244E-014  6.374523594925935E-015
 reorthoganalization of MOs is carried out
 sum over diagonal and offdiagdiagonal of C(T)*S*C for irrep
                     4
  1.110223024625157E-016  5.009328150128882E-016
  processed                 376966  ao basis integrals from 
                   629  buffers.
  processed                 663703  ao basis integrals from 
                  1107  buffers.
  processed                1226546  ao basis integrals from 
                  2045  buffers.
      10          -507.781208280671763              0.8405360864D+00
   current occupation vector 
     9  3  3  0
     9  3  3  0
  processed                 376966  ao basis integrals from 
                   629  buffers.
  processed                 663703  ao basis integrals from 
                  1107  buffers.
  processed                1226546  ao basis integrals from 
                  2045  buffers.
      11          -510.296989568205049              0.5020897077D+00
   current occupation vector 
     9  3  3  0
     9  3  3  0
  processed                 376966  ao basis integrals from 
                   629  buffers.
  processed                 663703  ao basis integrals from 
                  1107  buffers.
  processed                1226546  ao basis integrals from 
                  2045  buffers.
      12          -510.336032107274150              0.5975960014D-01
   current occupation vector 
     9  3  3  0
     9  3  3  0
  processed                 376966  ao basis integrals from 
                   629  buffers.
  processed                 663703  ao basis integrals from 
                  1107  buffers.
  processed                1226546  ao basis integrals from 
                  2045  buffers.
      13          -510.338800334461325              0.4225329397D-01
   current occupation vector 
     9  3  3  0
     9  3  3  0
  processed                 376966  ao basis integrals from 
                   629  buffers.
  processed                 663703  ao basis integrals from 
                  1107  buffers.
  processed                1226546  ao basis integrals from 
                  2045  buffers.
      14          -510.339482480469769              0.1059747857D-01
   current occupation vector 
     9  3  3  0
     9  3  3  0
 
 sum over diagonal and offdiagdiagonal of C(T)*S*C for irrep
                     1
 -3.195221864871201E-013  3.972165680711165E-013
 reorthoganalization of MOs is carried out
 sum over diagonal and offdiagdiagonal of C(T)*S*C for irrep
                     1
 -3.230749001659206E-014 -2.472432767828638E-013
 
 sum over diagonal and offdiagdiagonal of C(T)*S*C for irrep
                     2
  1.488809076022335E-013 -1.480903139866288E-013
 reorthoganalization of MOs is carried out
 sum over diagonal and offdiagdiagonal of C(T)*S*C for irrep
                     2
  9.992007221626409E-016  5.017068735479136E-015
 
 sum over diagonal and offdiagdiagonal of C(T)*S*C for irrep
                     3
  5.062616992290714E-014  1.765830579542668E-013
 reorthoganalization of MOs is carried out
 sum over diagonal and offdiagdiagonal of C(T)*S*C for irrep
                     3
  2.886579864025407E-015  6.984154385322244E-015
 
 sum over diagonal and offdiagdiagonal of C(T)*S*C for irrep
                     4
 -1.976196983832779E-014 -2.556088938002137E-015
 reorthoganalization of MOs is carried out
 sum over diagonal and offdiagdiagonal of C(T)*S*C for irrep
                     4
  6.661338147750939E-016  7.004787844978418E-016
  processed                 376966  ao basis integrals from 
                   629  buffers.
  processed                 663703  ao basis integrals from 
                  1107  buffers.
  processed                1226546  ao basis integrals from 
                  2045  buffers.
      15          -510.339523106031606              0.2129893282D-02
   current occupation vector 
     9  3  3  0
     9  3  3  0
  processed                 376966  ao basis integrals from 
                   629  buffers.
  processed                 663703  ao basis integrals from 
                  1107  buffers.
  processed                1226546  ao basis integrals from 
                  2045  buffers.
      16          -510.339525861795664              0.6541270663D-03
   current occupation vector 
     9  3  3  0
     9  3  3  0
  processed                 376966  ao basis integrals from 
                   629  buffers.
  processed                 663703  ao basis integrals from 
                  1107  buffers.
  processed                1226546  ao basis integrals from 
                  2045  buffers.
      17          -510.339526118809204              0.2373374073D-03
   current occupation vector 
     9  3  3  0
     9  3  3  0
  processed                 376966  ao basis integrals from 
                   629  buffers.
  processed                 663703  ao basis integrals from 
                  1107  buffers.
  processed                1226546  ao basis integrals from 
                  2045  buffers.
      18          -510.339526150283746              0.5248349523D-04
   current occupation vector 
     9  3  3  0
     9  3  3  0
  processed                 376966  ao basis integrals from 
                   629  buffers.
  processed                 663703  ao basis integrals from 
                  1107  buffers.
  processed                1226546  ao basis integrals from 
                  2045  buffers.
      19          -510.339526158674289              0.4333977098D-04
   current occupation vector 
     9  3  3  0
     9  3  3  0
 
 sum over diagonal and offdiagdiagonal of C(T)*S*C for irrep
                     1
 -3.993472219576688E-013  3.458320287624390E-013
 reorthoganalization of MOs is carried out
 sum over diagonal and offdiagdiagonal of C(T)*S*C for irrep
                     1
  1.496580637194711E-013  1.309171643305858E-013
 
 sum over diagonal and offdiagdiagonal of C(T)*S*C for irrep
                     2
  1.306732499983809E-013 -1.486466902437958E-013
 reorthoganalization of MOs is carried out
 sum over diagonal and offdiagdiagonal of C(T)*S*C for irrep
                     2
  1.110223024625157E-016  4.154322237586973E-015
 
 sum over diagonal and offdiagdiagonal of C(T)*S*C for irrep
                     3
  3.896882816434299E-014  1.461708277205333E-013
 reorthoganalization of MOs is carried out
 sum over diagonal and offdiagdiagonal of C(T)*S*C for irrep
                     3
  3.330669073875470E-016  3.749608111713498E-015
 
 sum over diagonal and offdiagdiagonal of C(T)*S*C for irrep
                     4
 -2.164934898019055E-014 -8.381115291231143E-016
 reorthoganalization of MOs is carried out
 sum over diagonal and offdiagdiagonal of C(T)*S*C for irrep
                     4
  2.220446049250313E-016  1.399179408989547E-017
  processed                 376966  ao basis integrals from 
                   629  buffers.
  processed                 663703  ao basis integrals from 
                  1107  buffers.
  processed                1226546  ao basis integrals from 
                  2045  buffers.
      20          -510.339526159257616              0.7189042416D-05
   current occupation vector 
     9  3  3  0
     9  3  3  0
  processed                 376966  ao basis integrals from 
                   629  buffers.
  processed                 663703  ao basis integrals from 
                  1107  buffers.
  processed                1226546  ao basis integrals from 
                  2045  buffers.
      21          -510.339526159378579              0.3724463007D-05
   current occupation vector 
     9  3  3  0
     9  3  3  0
[...]
    -------------------------------------------------------------------
        T1        AA    0.0000000075 0.0000010449    6        46
        T2        AA    0.0000000000 0.0000000690    7    6   67   46
        T2        AB    0.0000000000-0.0000001275    5    5   46   46
    -------------------------------------------------------------------
   The AA contribution to the correlation energy is:   -0.0628429 a.u.
   The AB contribution to the correlation energy is:   -0.4221684 a.u.
   The total correlation energy is -0.547854099739 a.u.
   The total correlation energy is -0.547854099739 a.u.
  Current DIIS expansion coefficients : 
 [   1] 0.0589794701 [   2] 1.0742074640 [   3] 0.0000411452 [   4]-0.0112227512
 [   5]-0.1220053281
  Convergence information after    12 iterations: 
  Largest element of residual vector :  0.10449433E-05.
  Largest element of DIIS residual   :  0.48322341E-06.
  W(mnij) AB contribution =  0.0866398314 a.u.
  W(abef) AB contribution =  0.1151628927 a.u.
  W(mbej) AB contribution = -0.2636805336 a.u.
   After  13 iterations, amplitude changes are:
    -------------------------------------------------------------------
                 Spin      RMS          Max.      Max. change for
     Amplitude   Case     Change       Change       i    j    a    b
    -------------------------------------------------------------------
        T1        AA    0.0000000015 0.0000001313    3         9
        T2        AA    0.0000000000 0.0000001024    7    5   67   46
        T2        AB    0.0000000000-0.0000000977    5    7   67   46
    -------------------------------------------------------------------
   The AA contribution to the correlation energy is:   -0.0628429 a.u.
   The AB contribution to the correlation energy is:   -0.4221684 a.u.
   The total correlation energy is -0.547854115224 a.u.
   The total correlation energy is -0.547854115224 a.u.
  Current DIIS expansion coefficients : 
 [   1]-0.1147353249 [   2] 0.0610514462 [   3] 1.0323639715 [   4] 0.0105364309
 [   5] 0.0107834763
  Convergence information after    13 iterations: 
  Largest element of residual vector :  0.13130429E-06.
  Largest element of DIIS residual   : -0.11040245E-06.
  W(mnij) AB contribution =  0.0866398565 a.u.
  W(abef) AB contribution =  0.1151629216 a.u.
  W(mbej) AB contribution = -0.2636806233 a.u.
   After  14 iterations, amplitude changes are:
    -------------------------------------------------------------------
                 Spin      RMS          Max.      Max. change for
     Amplitude   Case     Change       Change       i    j    a    b
    -------------------------------------------------------------------
        T1        AA    0.0000000009 0.0000001362    6        46
        T2        AA    0.0000000000 0.0000000118    7    6   67   46
        T2        AB    0.0000000000-0.0000000327    7    7   67   67
    -------------------------------------------------------------------
   The AA contribution to the correlation energy is:   -0.0628429 a.u.
   The AB contribution to the correlation energy is:   -0.4221684 a.u.
   The total correlation energy is -0.547854120685 a.u.
   The total correlation energy is -0.547854120685 a.u.
  Current DIIS expansion coefficients : 
 [   1]-0.0337022550 [   2]-0.1221331351 [   3] 0.0847448290 [   4] 1.0587432654
 [   5] 0.0123472957
  Convergence information after    14 iterations: 
  Largest element of residual vector :  0.13617321E-06.
  Largest element of DIIS residual   : -0.33939520E-07.
  W(mnij) AB contribution =  0.0866398710 a.u.
  W(abef) AB contribution =  0.1151629368 a.u.
  W(mbej) AB contribution = -0.2636806568 a.u.
   After  15 iterations, amplitude changes are:
    -------------------------------------------------------------------
                 Spin      RMS          Max.      Max. change for
     Amplitude   Case     Change       Change       i    j    a    b
    -------------------------------------------------------------------
        T1        AA    0.0000000002 0.0000000257    7        67
        T2        AA    0.0000000000 0.0000000077    7    5   67   46
        T2        AB    0.0000000000-0.0000000046    5    7   67   46
    -------------------------------------------------------------------
   The AA contribution to the correlation energy is:   -0.0628429 a.u.
   The AB contribution to the correlation energy is:   -0.4221684 a.u.
   The total correlation energy is -0.547854115695 a.u.
   The total correlation energy is -0.547854115695 a.u.
  Current DIIS expansion coefficients : 
 [   1] 0.0067493417 [   2]-0.0010254673 [   3]-0.0265259827 [   4]-0.0025524643
 [   5] 1.0233545726
  Convergence information after    15 iterations: 
  Largest element of residual vector :  0.25655796E-07.
  Largest element of DIIS residual   :  0.26677700E-07.
   Largest T1 amplitudes for spin case AA:
   i       a                 i       a                 i       a    
-----------------------------------------------------------------------------
[  5      46    ] 0.04250 [  7      67    ] 0.04250 [  8      70    ] 0.01357
[  6      49    ] 0.01357 [  8      67    ] 0.01329 [  6      46    ] 0.01329
[  4      10    ]-0.00900 [  3      12    ] 0.00896 [  5      48    ] 0.00881
[  7      69    ] 0.00881 [  4      15    ] 0.00864 [  5      47    ] 0.00843
[  7      68    ] 0.00843 [  8      68    ] 0.00749 [  6      47    ] 0.00749
-----------------------------------------------------------------------------
   Norm of T1AA vector (      232 symmetry allowed elements):  0.0761446111.
-----------------------------------------------------------------------------
   Largest T2 amplitudes for spin case AB:
       _       _                 _       _                 _       _
   i   j   a   b             i   j   a   b             i   j   a   b
-----------------------------------------------------------------------------
[  8   8  67  67]-0.06755 [  6   6  46  46]-0.06755 [  5   5  46  46]-0.05126
[  7   7  67  67]-0.05126 [  8   6  67  46]-0.04867 [  6   8  46  67]-0.04867
[  7   5  67  46]-0.03398 [  5   7  46  67]-0.03398 [  6   6  88  88]-0.03116
[  6   6  13  13]-0.03116 [  8   8  88  88]-0.03116 [  8   8  13  13]-0.03116
[  4   4  67  67]-0.02633 [  4   4  46  46]-0.02633 [  5   5  49  46]-0.02484
-----------------------------------------------------------------------------
   Norm of T2AB vector (   132568 symmetry allowed elements):  0.3948502952.
-----------------------------------------------------------------------------
  W(mnij) AB contribution =  0.0866398648 a.u.
  W(abef) AB contribution =  0.1151629298 a.u.
  W(mbej) AB contribution = -0.2636806385 a.u.
   After  16 iterations, amplitude changes are:
    -------------------------------------------------------------------
                 Spin      RMS          Max.      Max. change for
     Amplitude   Case     Change       Change       i    j    a    b
    -------------------------------------------------------------------
        T1        AA    0.0000000001 0.0000000116    6        46
        T2        AA    0.0000000000-0.0000000027    8    6   67   46
        T2        AB    0.0000000000-0.0000000028    7    7   67   67
    -------------------------------------------------------------------
   The AA contribution to the correlation energy is:   -0.0628429 a.u.
   The AB contribution to the correlation energy is:   -0.4221684 a.u.
   The total correlation energy is -0.547854120226 a.u.
   The total correlation energy is -0.547854120226 a.u.
  Current DIIS expansion coefficients : 
 [   1] 0.9884510824 [   2] 0.0033483781 [   3] 0.0003247275 [   4]-0.1040620007
 [   5] 0.1119378127
  Convergence information after    16 iterations: 
  Largest element of residual vector :  0.11564847E-07.
  Largest element of DIIS residual   : -0.75704687E-08.
  W(mnij) AB contribution =  0.0866398663 a.u.
  W(abef) AB contribution =  0.1151629314 a.u.
  W(mbej) AB contribution = -0.2636806405 a.u.
   After  17 iterations, amplitude changes are:
    -------------------------------------------------------------------
                 Spin      RMS          Max.      Max. change for
     Amplitude   Case     Change       Change       i    j    a    b
    -------------------------------------------------------------------
        T1        AA    0.0000000000 0.0000000056    7        67
        T2        AA    0.0000000000 0.0000000004    6    3   46   10
        T2        AB    0.0000000000 0.0000000010    5    5   46   46
    -------------------------------------------------------------------
   The AA contribution to the correlation energy is:   -0.0628429 a.u.
   The AB contribution to the correlation energy is:   -0.4221684 a.u.
   The total correlation energy is -0.547854118618 a.u.
   The total correlation energy is -0.547854118618 a.u.
  Current DIIS expansion coefficients : 
 [   1] 0.0793611766 [   2] 1.0767747598 [   3] 0.0088056875 [   4]-0.0297700010
 [   5]-0.1351716229
  Convergence information after    17 iterations: 
  Largest element of residual vector :  0.56272538E-08.
  Largest element of DIIS residual   :  0.25568797E-08.
  W(mnij) AB contribution =  0.0866398654 a.u.
  W(abef) AB contribution =  0.1151629305 a.u.
  W(mbej) AB contribution = -0.2636806375 a.u.
   After  18 iterations, amplitude changes are:
    -------------------------------------------------------------------
                 Spin      RMS          Max.      Max. change for
     Amplitude   Case     Change       Change       i    j    a    b
    -------------------------------------------------------------------
        T1        AA    0.0000000000 0.0000000010    6        46
        T2        AA    0.0000000000-0.0000000004    8    6   67   46
        T2        AB    0.0000000000 0.0000000005    8    7   67   67
    -------------------------------------------------------------------
   The AA contribution to the correlation energy is:   -0.0628429 a.u.
   The AB contribution to the correlation energy is:   -0.4221684 a.u.
   The total correlation energy is -0.547854119301 a.u.
   The total correlation energy is -0.547854119301 a.u.
  Current DIIS expansion coefficients : 
 [   1]-0.0368963818 [   2] 0.0077176553 [   3] 1.0394736838 [   4] 0.0015799946
 [   5]-0.0118749519
  Convergence information after    18 iterations: 
  Largest element of residual vector :  0.10410195E-08.
  Largest element of DIIS residual   :  0.93846020E-09.
  W(mnij) AB contribution =  0.0866398655 a.u.
  W(abef) AB contribution =  0.1151629306 a.u.
  W(mbej) AB contribution = -0.2636806376 a.u.
   After  19 iterations, amplitude changes are:
    -------------------------------------------------------------------
                 Spin      RMS          Max.      Max. change for
     Amplitude   Case     Change       Change       i    j    a    b
    -------------------------------------------------------------------
        T1        AA    0.0000000000 0.0000000006    7        67
        T2        AA    0.0000000000-0.0000000001    8    5   67   46
        T2        AB    0.0000000000 0.0000000003    5    5   46   46
    -------------------------------------------------------------------
   The AA contribution to the correlation energy is:   -0.0628429 a.u.
   The AB contribution to the correlation energy is:   -0.4221684 a.u.
   The total correlation energy is -0.547854119272 a.u.
   The total correlation energy is -0.547854119272 a.u.
  Current DIIS expansion coefficients : 
 [   1] 0.0064931385 [   2]-0.1036571474 [   3] 0.1446992223 [   4] 0.9439230810
 [   5] 0.0085417056
  Convergence information after    19 iterations: 
  Largest element of residual vector :  0.59223188E-09.
  Largest element of DIIS residual   : -0.25183197E-09.
  Amplitude equations converged in    19iterations.
   The AA contribution to the correlation energy is:   -0.0628429 a.u.
   The AB contribution to the correlation energy is:   -0.4221684 a.u.
   The total correlation energy is -0.547854119320 a.u.
   The total correlation energy is -0.547854119320 a.u.
   The CC iterations have converged.

   Largest T1 amplitudes for spin case AA:
   i       a                 i       a                 i       a    
-----------------------------------------------------------------------------
[  5      46    ] 0.04250 [  7      67    ] 0.04250 [  8      70    ] 0.01357
[  6      49    ] 0.01357 [  8      67    ] 0.01329 [  6      46    ] 0.01329
[  4      10    ]-0.00900 [  3      12    ] 0.00896 [  5      48    ] 0.00881
[  7      69    ] 0.00881 [  4      15    ] 0.00864 [  5      47    ] 0.00843
[  7      68    ] 0.00843 [  8      68    ] 0.00749 [  6      47    ] 0.00749
-----------------------------------------------------------------------------
   Norm of T1AA vector (      232 symmetry allowed elements):  0.0761446274.
-----------------------------------------------------------------------------
   Largest T2 amplitudes for spin case AB:
       _       _                 _       _                 _       _
   i   j   a   b             i   j   a   b             i   j   a   b
-----------------------------------------------------------------------------
[  8   8  67  67]-0.06755 [  6   6  46  46]-0.06755 [  5   5  46  46]-0.05126
[  7   7  67  67]-0.05126 [  8   6  67  46]-0.04867 [  6   8  46  67]-0.04867
[  7   5  67  46]-0.03398 [  5   7  46  67]-0.03398 [  6   6  13  13]-0.03116
[  6   6  88  88]-0.03116 [  8   8  88  88]-0.03116 [  8   8  13  13]-0.03116
[  4   4  67  67]-0.02633 [  4   4  46  46]-0.02633 [  5   5  49  46]-0.02484
-----------------------------------------------------------------------------
   Norm of T2AB vector (   132568 symmetry allowed elements):  0.3948502971.
-----------------------------------------------------------------------------
       Summary of iterative solution of CC equations 
      -----------------------------------------------------------
                       Correlation           Total
       Iteration         Energy              Energy
      -----------------------------------------------------------
            0        -0.544492193511    -510.884018352926  DIIS 
            1        -0.525670980096    -510.865197139511  DIIS 
            2        -0.549049713862    -510.888575873277  DIIS 
            3        -0.545598649098    -510.885124808513  DIIS 
            4        -0.547507736110    -510.887033895525  DIIS 
            5        -0.547837170980    -510.887363330395  DIIS 
            6        -0.547850478041    -510.887376637456  DIIS 
            7        -0.547853073955    -510.887379233370  DIIS 
            8        -0.547858418026    -510.887384577441  DIIS 
            9        -0.547851993024    -510.887378152439  DIIS 
           10        -0.547854225710    -510.887380385125  DIIS 
           11        -0.547854083573    -510.887380242988  DIIS 
           12        -0.547854099739    -510.887380259154  DIIS 
           13        -0.547854115224    -510.887380274639  DIIS 
           14        -0.547854120685    -510.887380280100  DIIS 
           15        -0.547854115695    -510.887380275110  DIIS 
           16        -0.547854120226    -510.887380279641  DIIS 
           17        -0.547854118618    -510.887380278032  DIIS 
           18        -0.547854119301    -510.887380278716  DIIS 
           19        -0.547854119320    -510.887380278735  DIIS 
      -----------------------------------------------------------
      A miracle has come to pass. The CC iterations have converged.
 @DIMT3-I, Dimensions of T3 amplitudes : 
               # abc          # ijk       Symmetry    Spin 
                    29385             12     1          1
                    28441             14     2          1
                    28441             14     3          1
                    27297             16     4          1
                    91411             64     1          2
                    87171             56     2          2
                    87171             56     3          2
                    82771             48     4          2
                    91411             64     1          3
                    87171             56     2          3
                    87171             56     3          3
                    82771             48     4          3
                    29385             12     1          4
                    28441             14     2          4
                    28441             14     3          4
                    27297             16     4          4
 @DIMT3-I, Dimensions of T3 amplitudes : 
               # abc          # ijk       Symmetry    Spin 
                    29385             12     1          1
                    28441             14     2          1
                    28441             14     3          1
                    27297             16     4          1
                    91411             64     1          2
                    87171             56     2          2
                    87171             56     3          2
                    82771             48     4          2
                    91411             64     1          3
                    87171             56     2          3
                    87171             56     3          3
                    82771             48     4          3
                    29385             12     1          4
                    28441             14     2          4
                    28441             14     3          4
                    27297             16     4          4
 @TRPS-I, Welcome to TRPS. Watch your RUs ! 
 @TRPS-I, Method is CCSD(T) 
 @TRPS-I, Calculation type is energy 
 @TRPS-I, Reference function information : 
          Reference function is Hartree-Fock 
          Reference function is RHF Hartree-Fock 
 @TRPS-I, INT1 is true 
 @TRPS-I, INT2 is false 
 @TRPS-I, Lengths of ijka integrals. #1       5200
                                     #2       5200
                                     #3      12256
                                     #4      12256
                                    Max      12256
 @INITRP-I, Initializing W intermediate lists. 
 @SETOOOV-I, Some OOOV lists are being transposed. 
 @TRPS-I, Available memory in integer words   1499959040
          Number of pre-allocated words for TRPS2        83760
          Number of free words for TRPS2   1499875280
 @TRPS2-I, Spin case AAB 
 @TRPS2-I, Number of free integer words 1499875280
           Number of free double  words 1499875280
           Ratio                                 1
 @TRPS2-I, E4TBAA      -0.015742794853
  @TRPS2-I, E4TAAA  -9.054846569666539E-004
 @TRPS2-I, E5ST A    0.000651098689407
 @TRPS2-I, E5ST B    0.000415311365232
 @SETOOOV-I, Some OOOV lists are being transposed. 
 @CCENRG-I, CCSD/QCISD energy will now be evaluated. 
 @CCENRG-I, Correlation energies. ECCAA       -0.062842861881
                                  ECCBB        0.000000000000
                                  ECCAB       -0.422168395558
                                  Total       -0.547854119320
 @CCENRG-I, Reference   energy    -510.339526159415
            CCSD/QCISD energy     -510.887380278735
          E4T (T(CCSD)) = -0.033296559020
          E5ST          =  0.002132820109
          E4ST          =  0.000000000000
          In other words  
          <T3[2](Dagger) D3  T3[2]> = -0.033296559020
          <T1   (Dagger) Q1 WT3[2]> =  0.002132820109
          <T2   (Dagger) Q2 FT3[2]> =  0.000000000000
        E(CCSD)           =    -510.887380278735
        E(CCSD + T(CCSD)) =    -510.920676837755
        E(CCSD(T))        =    -510.918544017645
  @CHECKOUT-I, Total execution time (CPU/WALL):        7.36/       8.52 seconds.
--executable xvcc finished with status     0 in        8.88 seconds (walltime).
  The final electronic energy is      -510.918544017645274 a.u. 
  This computation required                           37.21 seconds (walltime).
