 --invoking executable--
/home/nike/cfour_v2.00beta/bin/xjoda


   *************************************************************************
         <<<     CCCCCC     CCCCCC   |||     CCCCCC     CCCCCC   >>>
       <<<      CCC        CCC       |||    CCC        CCC         >>>
      <<<      CCC        CCC        |||   CCC        CCC            >>>
    <<<        CCC        CCC        |||   CCC        CCC              >>>
      <<<      CCC        CCC        |||   CCC        CCC            >>>
       <<<      CCC        CCC       |||    CCC        CCC         >>>
         <<<     CCCCCC     CCCCCC   |||     CCCCCC     CCCCCC   >>>
   *************************************************************************

     ****************************************************************
     * CFOUR Coupled-Cluster techniques for Computational Chemistry *
     ****************************************************************
 

   Department of Chemistry                Institut fuer Physikalische Chemie
   University of Texas at Austin          Universitaet Mainz
   Austin, TX  78712, USA                 D-55099 Mainz, Germany
 
                       Version 2.00beta
 
                     wob132                                            
                     Wed Jan  2 00:50:09 EST 2019                      
                     integer*8 version is running
 
********************************************************************************
*                          Input from ZMAT file                                *
********************************************************************************
TITLE                                                                           
F                                                                               
                                                                                
*ACES2(CALC=CCSD                                                                
#FROZEN_CORE=ON                                                                 
#DROPMO=1                                                                       
INPUT_MRCC=OFF                                                                  
CC_PROG=MRCC                                                                    
XFORM_TOL=18                                                                    
SAVE_INTS=ON                                                                    
SCF_EXPORDER=6                                                                  
SCF_EXPSTART=5                                                                  
#SCF_DAMPING=1000                                                               
SCF_EXTRAPOLATION=ON                                                            
SCF_CONV=10                                                                     
SCF_MAXCYC=9999                                                                 
CC_CONV=10                                                                      
CC_MAXCYC=999                                                                   
T3_EXTRAPOL=ON                                                                  
REFERENCE=ROHF                                                                  
CHARGE=+0                                                                       
MULT=2                                                                          
ABCDTYPE=STANDARD                                                               
OCCUPATION=2-1-1-0-1-0-0-0/2-1-1-0-0-0-0-0                                      
MEM=14                                                                          
MEM_UNIT=GB                                                                     
BASIS=SPECIAL)                                                                  
                                                                                
F:aCVDZ-EMSL                                                                    
                                                                                
********************************************************************************
  @GTFLGS-W, Keyword #FROZEN_CORE not known and is ignored.
  @GTFLGS-W, Keyword #DROPMO not known and is ignored.
  @GTFLGS-W, Keyword #SCF_DAMPING not known and is ignored.
    -------------------------------------------------------------------
                    CFOUR Control Parameters 
    -------------------------------------------------------------------
        External           Internal           Value            Units
          Name               Name
    -------------------------------------------------------------------
       ABCDTYPE             IABCDT         STANDARD     [  0]   ***   
       ANHARMONIC           IANHAR         OFF          [  0]   ***   
       ANH_ALGORIT          IANALG         STANDARD     [  0]   ***   
       ANH_DERIVAT          IANDER         SECOND       [  1]   ***   
       ANH_STEPSIZ          ICUBST             50000          x 10-6  
       ANH_SYMMETR          IANHSM         ABELIAN      [  0]   ***   
       AO_LADDERS           IAOLAD         SINGLEPASS   [  1]   ***   
       BASIS                IBASIS         SPECIAL      [  0]   ***   
       BREIT                IBREIT         OFF          [  0]   ***   
       BRUCK_CONV           IBRTOL          10D-  4             ***   
       BRUECKNER            IBRKNR             OFF      [  0]   ***   
       BUFFERSIZE           IBUFFS            600               ***   
       CACHE_RECS           ICHREC             10               ***   
       CALCLEVEL            ICLLVL           CCSD       [ 10]   ***   
       CCORBOPT             ICCORB             OFF      [  0] x 0.01  
       CC_CONV              ICCCNV          10D- 10             ***   
       CC_EXPORDER          ICCEOR              5               ***   
       CC_EXTRAPOL          ICCEXT             DIIS     [  1]   ***   
       CC_MAXCYC            ICCCYC            999              cycles 
       CC_PROGRAM           ICCPRO         MRCC         [  2]   ***   
       CHARGE               ICHRGE              0               ***   
       CHOLESKY             ICHOLE         OFF          [  0]   ***   
       CIS_CONV             ICISTL              5               ***   
       COMM_SIZE            IPSIZE            ***               ***   
       CONSTANT             ICONST         OLD          [  1]   ***   
       CONTINUUM            ICONTU         NONE         [  0]   ***   
       CONTRACTION          ICNTYP          GENERAL     [  1]   ***   
       COORDINATES          ICOORD         INTERNAL     [  0]   ***   
       CPHF_CONVER          ICPHFT          10D- 16             ***   
       CPHF_MAXCYC          ICPHFC             64              cycles 
       CUBIC                ICUBIC         OFF          [  0]   ***   
       CURVILINEAR          ICURVY            OFF       [  0]   ***   
       DBOC                 IDBOC          OFF          [  0]   ***   
       DCT                  IDCT           OFF          [  0]   ***   
       DERIV_LEV            IDRLVL            ZERO      [  0]   ***   
       DIAG_MRCC            IEOMST          10D-  0             ***   
       DIFF_TYPE            IDIFTY         RELAXED      [  0]   ***   
       DIRECT               IDIRCT         OFF          [  0]   ***   
       DROPMO               IDRPMO      NONE         
       ECP                  IECP           OFF          [  0]   ***   
       EIGENVECTOR          IVEC                1               ***   
       EL_ANHARM            IELANH         OFF          [  0]   ***   
       EOMFOLLOW            IEOMSR         ENERGY       [  0]   ***   
       EOM_MRCC             IMRCCE         NEW          [  1]   ***   
       EOM_NONIT            EOMNON         OFF          [  0]   ***   
       EOM_NSING            IEOMSI          10D-  0             ***   
       EOM_NSTATES          IMRCCD         DAVIDSON     [  0]   ***   
       EOM_NTRIP            IEOMTR          10D-  0             ***   
       EOM_ORDER            IEXORD         ENERGY       [  0]   ***   
       ESTATE_CONV          IEXTOL          10D-  5             ***   
       ESTATE_DIAG          IEXDIG         ITERATIVE    [  0]   ***   
       ESTATE_LOCK          IESLOC         ON           [  1]   ***   
       ESTATE_MAXC          IEXMXC             20               ***   
       ESTATE_PROP          IEXPRP         OFF          [  0]   ***   
       EVAL_HESS            IRECAL              0            # of cyc.
       EXCITATION           IEXCIT              0               ***   
       EXCITE               IEXCIT         NONE         [  0]   ***   
       FCGRADNEW            IFCGNW         OFF          [  0]   ***   
       FC_FIELD             IFINFC              0             x 10-6  
       FD_CALTYPE           IFDCAL         GRADONLY     [  0]   ***   
       FD_PROJECT           IFDPRJ         OFF          [  1]   ***   
       FD_STEPSIZE          IDISFD              0            10-4 bohr
       FD_USEGROUP          IFDGRP         FULL         [  0]   ***   
       FILE_RECSIZ          IFLREC              4096           words  
       FINITE_PERT          IFIPER              0             x 10-6  
       FIXGEOM              IFIXGM         OFF          [  0]   ***   
       FOCK                 IFOCK          AO           [  1]   ***   
       FREQ_ALGORI          IVIALG         STANDARD     [  0]   ***   
       FROZEN_CORE          IFROCO         OFF          [  0]   ***   
       FROZEN_VIRT          IFROVI         OFF          [  0]   ***   
       GAMMA_ABCD           IGABCD         STORE        [  0]   ***   
       GAMMA_ABCI           IGABCI         STORE        [  0]   ***   
       GENBAS_1             IGNBS1              0               ***   
       GENBAS_2             IGNBS2              0               ***   
       GENBAS_3             IGNBS3              0               ***   
       GENBAS_4             IGNBS4              0               ***   
       GEO_CONV             ICONTL              5              H/bohr 
       GEO_MAXCYC           IOPTCY             50               ***   
       GEO_MAXSTEP          IMXSTP            300            millibohr
       GEO_METHOD           INR            SINGLE_POINT [  5]   ***   
       GIAO                 IGIAO          OFF          [  1]   ***   
       GIMIC                IGIMIC         OFF          [  0]   ***   
       GRID                 IGRID          OFF          [  0]   ***   
       GRID_ALGO            IGALGO         SERIAL       [  0]   ***   
       GUESS                IGUESS            MOREAD    [  0]   ***   
       HBAR                 IHBAR              OFF      [  0]   ***   
       HESS_TYPE            IHESTP         SCF          [  0]   ***   
       HF2_FILE             IHF2Fl         USE          [  1]   ***   
       HFSTABILITY          ISTABL         OFF          [  0]   ***   
       INCORE               INCORE             OFF      [  0]   ***   
       INPUT_MRCC           IMRCC          OFF          [  0]   ***   
       INTEGRALS            INTTYP             VMOL     [  1]   ***   
       JODA_PRINT           IJPRNT              0               ***   
       LINDEP_TOL           ILINDP              8               ***   
       LINEQ_CONV           IZTACN          10D-  7           cycles  
       LINEQ_EXPOR          ILMAXD              5               ***   
       LINEQ_MAXCY          ILMAXC             50               ***   
       LINEQ_TYPE           ILTYPE         DIIS         [  1]   ***   
       LOCK_ORBOCC          ILOCOC             OFF      [  0]   ***   
       MEMORY_SIZE          IMEMSZ         *********           words  
       MEM_UNIT             IMEMU          GB           [  3]   ***   
       MRCC                 IMRCCC         OFF          [  0]   ***   
       MULTIPLICTY          IMULTP              2               ***   
       NEGEVAL              IDIE             ABORT      [  0]   ***   
       NEWNORM              INEWNO         OFF          [  0]   ***   
       NON-HF               INONHF              ON      [  1]   ***   
       NTOP_TAMP            ITOPT2             15               ***   
       NUC_MODEL            INUCMO         POINT        [  0]   ***   
       OCCUPATION           IOCCU  A   2,  1,  1,  0,  1,  0,  0,  0,
                                   B   2,  1,  1,  0,  0,  0,  0,  0,
       OPEN-SHELL           IOPEN          SPIN-ORBITAL [  0]   ***   
       ORBITALS             IORBTP         SEMICANONICAL[  1]   ***   
       PARALLEL             IPARAL         ON           [  1]   ***   
       PARA_INT             IPINTS         ON           [  1]   ***   
       PARA_PRINT           IPPRIN              0               ***   
       PERT_ORB             IPTORB         STANDARD     [  0]   ***   
       POINTS               IGRDFD              0               ***   
       PRINT                IPRNT               0               ***   
       PROPS                IPROPS             OFF      [  0]   ***   
       PROP_INTEGR          IINTYP         INTERNAL     [  0]   ***   
       PSI                  IPSI           OFF          [  0]   ***   
       QUARTIC              IQUART         OFF          [  0]   ***   
       RAMAN_INT            IRAMIN         OFF          [  0]   ***   
       RAMAN_ORB            IRAMRE         UNRELAXED    [  0]   ***   
       RDO                  IRDOFM             OFF      [  0]   ***   
       REFERENCE            IREFNC             ROHF     [  2]   ***   
       RELATIVIST           IRELAT         OFF          [  0]   ***   
       RELAX_DENS           IRDENS             OFF      [  0]   ***   
       RESET_FLAGS          IRESET             OFF      [  0]   ***   
       RESTART_CC           ICCRES         OFF          [  0]   ***   
       ROT_EVEC             ROTVEC              0               ***   
       SAVE_INTS            ISVINT              ON      [  1]   ***   
       SCALE_ON             ISTCRT              0               ***   
       SCF_CONV             ISCFCV          10D- 10             ***   
       SCF_DAMPING          IDAMP               0             x 10-3  
       SCF_EXPORDE          IRPPOR              6               ***   
       SCF_EXPSTAR          IRPPLS              5               ***   
       SCF_EXTRAPO          IRPP                ON      [  1]   ***   
       SCF_MAXCYC           ISCFCY            ***              cycles 
       SCF_NOSTOP           ISCFST         OFF          [  0]   ***   
       SCF_PRINT            ISCFPR              0               ***   
       SD_FIELD             IFINSD              0             x 10-6  
       SEQUENCE             ISEQUE         OFF          [  0]   ***   
       SOPERT               IPERSO         OFF          [  0]   ***   
       SPHERICAL            IDFGHI             ON       [  1]   ***   
       SPINORBIT            ISOCAL         OFF          [  0]   ***   
       SPINROTATIO          ISRCON         OFF          [  0]   ***   
       SPIN_FLIP            ISPFLP         OFF          [  0]   ***   
       SPIN_ORBIT           ISPORB         OFF          [  0]   ***   
       SPIN_SCAL            ISCSMP         OFF          [  0]   ***   
       SUBGROUP             ISUBGP         DEFAULT      [  0]   ***   
       SUBGRPAXIS           ISBXYZ         X            [  0]   ***   
       SYMMETRY             ISYM             ON         [  0]   ***   
       SYM_CHECK            ISYMCK         OVERRIDE     [  1]   ***   
       T3_EXTRAPOL          IT3EXT         ON           [  1]   ***   
       TAMP_SUM             IEVERY              5               ***   
       TESTSUITE            ITESTS         OFF          [  0]   ***   
       THERMOCH             ITHERM         OFF          [  0]   ***   
       TOL_CHOLESK          ITOLCH          10D-  4             ***   
       TRANGRAD             IRESRM         OFF          [  0]   ***   
       TRANS_INV            ITRAIN         USE          [  0]   ***   
       TREAT_PERT           ITREAT         SIMULTANEOUS [  0]   ***   
       UIJ_THRESHO          IUIJTH              1               ***   
       UNITS                IUNITS         ANGSTROM     [  0]   ***   
       UNOS                 IUNOS          OFF          [  0]   ***   
       UPDATE_HESS          IHUPDT         ON           [  1]   ***   
       VIBPHASE             ISETPH         STANDARD     [  0]   ***   
       VIBRATION            IVIB              NO        [  0]   ***   
       VIB_ALGORIT          IGEALG         STANDARD     [  0]   ***   
       VNATORB              IVNORB         OFF          [  0]   ***   
       VTRAN                IVTRAN         FULL/PARTIAL [  0]   ***   
       XFIELD               IXEFLD              0             x 10-6  
       XFORM_TOL            IXFTOL          10D- 18             ***   
       YFIELD               IYEFLD              0             x 10-6  
       ZFIELD               IZEFLD              0             x 10-6  
    -------------------------------------------------------------------
   1 entries found in Z-matrix 
   Job Title : TITLE                                                                           
  1  F          9    18.99840
 factor:   60.1997200000000     
   Rotational constants (in cm-1): 

   Rotational constants (in MHz): 

********************************************************************************
   The full molecular point group is I h .
   The largest Abelian subgroup of the full molecular point group is D2h .
   The computational point group is D2h .
********************************************************************************
  @GTFLGS-W, Keyword #FROZEN_CORE not known and is ignored.
  @GTFLGS-W, Keyword #DROPMO not known and is ignored.
  @GTFLGS-W, Keyword #SCF_DAMPING not known and is ignored.
  There are   27 basis functions.
 @GEOPT-W, Archive file not created for single-point calculation.
  @CHECKOUT-I, Total execution time (CPU/WALL):        0.29/       0.64 seconds.
--executable xjoda finished with status     0 in        1.05 seconds (walltime).
 --invoking executable--
/home/nike/cfour_v2.00beta/bin/xvmol
 Serial version of molecule started
********************************************************************************
                    Input from MOL file
********************************************************************************
INTGRL        1    0    1    0    0    0    0    0    0                         
         *** CFOUR Program System (Release V0.1) ***                            
TITLE                                                                           
    1    3 X  Y   Z   0.10E-08              0    0                              
   9999.00      3.00                                                            
          9.00000000    1    3    1    1    1                                   
F #1   0.000000000000000   0.000000000000000   0.000000000000000                
   11    5                                                                      
   14710.0000000000       7.210000000000000E-004 -1.650000000000000E-004        
  0.000000000000000E+000  0.000000000000000E+000  0.000000000000000E+000        
   2207.00000000000       5.553000000000000E-003 -1.308000000000000E-003        
  0.000000000000000E+000  0.000000000000000E+000  0.000000000000000E+000        
   502.800000000000       2.826700000000000E-002 -6.495000000000000E-003        
  0.000000000000000E+000  0.000000000000000E+000  0.000000000000000E+000        
   142.600000000000       0.106444000000000      -2.669100000000000E-002        
  0.000000000000000E+000  0.000000000000000E+000  0.000000000000000E+000        
   46.4700000000000       0.286814000000000      -7.369000000000001E-002        
  0.000000000000000E+000  0.000000000000000E+000  0.000000000000000E+000        
   16.7000000000000       0.448641000000000      -0.170776000000000             
  0.000000000000000E+000  0.000000000000000E+000  0.000000000000000E+000        
   6.35600000000000       0.264761000000000      -0.112327000000000             
  0.000000000000000E+000  0.000000000000000E+000  0.000000000000000E+000        
   1.31600000000000       1.533300000000000E-002  0.562814000000000             
  0.000000000000000E+000  0.000000000000000E+000  0.000000000000000E+000        
  0.389700000000000      -2.332000000000000E-003  0.568778000000000             
   1.00000000000000       0.000000000000000E+000  0.000000000000000E+000        
   10.4260000000000       0.000000000000000E+000  0.000000000000000E+000        
  0.000000000000000E+000   1.00000000000000       0.000000000000000E+000        
  9.863000000000000E-002  0.000000000000000E+000  0.000000000000000E+000        
  0.000000000000000E+000  0.000000000000000E+000   1.00000000000000             
    6    4                                                                      
   22.6700000000000       4.487800000000000E-002  0.000000000000000E+000        
  0.000000000000000E+000  0.000000000000000E+000                                
   4.97700000000000       0.235718000000000       0.000000000000000E+000        
  0.000000000000000E+000  0.000000000000000E+000                                
   1.34700000000000       0.508521000000000       0.000000000000000E+000        
  0.000000000000000E+000  0.000000000000000E+000                                
  0.347100000000000       0.458120000000000        1.00000000000000             
  0.000000000000000E+000  0.000000000000000E+000                                
   32.8300000000000       0.000000000000000E+000  0.000000000000000E+000        
   1.00000000000000       0.000000000000000E+000                                
  8.502000000000000E-002  0.000000000000000E+000  0.000000000000000E+000        
  0.000000000000000E+000   1.00000000000000                                     
    2    2                                                                      
   1.64000000000000        1.00000000000000       0.000000000000000E+000        
  0.464000000000000       0.000000000000000E+000   1.00000000000000             
FINISH                                                                          
 
********************************************************************************
 One- and two-electron integrals over symmetry-adapted AOs are calculated.

  Spherical harmonics are used.
  
  Integrals less than  0.10E-13 are neglected.

  Nuclear repulsion energy :    0.0000000000 a.u.
  required memory for a1 array                5029908  words 
  required memory for a2 array                2103164  words 
 @GETMEM-I,  Allocated      69 MB of main memory.
  @MOLECU-I, One electron integrals (CPU/WALL):        0.02/       0.03 seconds.
  @TWOEL-I,        634 integrals of symmetry type  I I I I
  @TWOEL-I,       2993 integrals of symmetry type  I J I J
  @TWOEL-I,       2170 integrals of symmetry type  I I J J
  @TWOEL-I,       3304 integrals of symmetry type  I J K L
  @TWOEL-I, Total number of 2-e integrals       9101.
  @MOLECU-I, Two electron integrals (CPU/WALL):        0.01/       0.02 seconds.
  @CHECKOUT-I, Total execution time (CPU/WALL):        0.05/       0.12 seconds.
--executable xvmol finished with status     0 in        0.44 seconds (walltime).
 --invoking executable--
/home/nike/cfour_v2.00beta/bin/xvmol2ja
 @GETMEM-I,  Allocated   13351 MB of main memory.
  @CHECKOUT-I, Total execution time (CPU/WALL):        0.00/       0.02 seconds.
--executable xvmol2ja finished with status     0 in        0.20 seconds (walltime).
 --invoking executable--
/home/nike/cfour_v2.00beta/bin/xvscf
  There are   27 functions in the AO basis.

  There are 8 irreducible representations.

       Irrep        # of functions
         1                  9
         2                  4
         3                  4
         4                  2
         5                  4
         6                  2
         7                  2
         8                  0


  Parameters for SCF calculation: 
        SCF reference function: ROHF  
  Maximum number of iterations: 9999
     Full symmetry point group: I h 
     Computational point group: D2h 
        Initial density matrix: MOREAD                 
     SCF convergence tolerance: 10**(-10)
  DIIS convergence acceleration:  ON
          Latest start for DIIS:   5
                     DIIS order:   6

     Alpha population by irrep:   2    1    1    0    1    0    0    0
      Beta population by irrep:   2    1    1    0    0    0    0    0


  Memory information:      70036 words required.
  Fock matrices are constructed from AO integral file.
 @GETMEM-I,  Allocated       0 MB of main memory.
  Initialization and symmetry analysis required      0.003 seconds.

 total no. of electrons in initial guess :  0.000000000000000E+000
 total no. of electrons in initial guess :  0.000000000000000E+000
  --------------------------------------------------------------------
  Iteration         Total Energy            Largest Density Difference
  --------------------------------------------------------------------
       0             0.000000000000000              0.0000000000D+00
   current occupation vector 
     2  1  1  0  1  0  0  0
     2  1  1  0  0  0  0  0
       1           -94.201710450011532              0.4642905184D+01
   current occupation vector 
     2  1  1  0  1  0  0  0
     2  1  1  0  0  0  0  0
       2           -93.526208858012097              0.4030946275D+01
   current occupation vector 
     2  1  1  0  1  0  0  0
     2  1  1  0  0  0  0  0
       3           -98.034347503451187              0.1808550607D+01
   current occupation vector 
     2  1  1  0  1  0  0  0
     2  1  1  0  0  0  0  0
       4           -98.323750284588769              0.1683245457D+01
   current occupation vector 
     2  1  1  0  1  0  0  0
     2  1  1  0  0  0  0  0
       5           -99.162086619994128              0.1090654135D+01
   current occupation vector 
     2  1  1  0  1  0  0  0
     2  1  1  0  0  0  0  0
       6           -99.374906736544517              0.4332679860D+00
   current occupation vector 
     2  1  1  0  1  0  0  0
     2  1  1  0  0  0  0  0
       7           -99.376965146462979              0.3327420563D-01
   current occupation vector 
     2  1  1  0  1  0  0  0
     2  1  1  0  0  0  0  0
       8           -99.377099630916533              0.2406131142D-01
   current occupation vector 
     2  1  1  0  1  0  0  0
     2  1  1  0  0  0  0  0
       9           -99.377158833279310              0.9919896997D-02
   current occupation vector 
     2  1  1  0  1  0  0  0
     2  1  1  0  0  0  0  0
      10           -99.377158926683094              0.3054473982D-03
   current occupation vector 
     2  1  1  0  1  0  0  0
     2  1  1  0  0  0  0  0
      11           -99.377158927731827              0.3067095284D-04
   current occupation vector 
     2  1  1  0  1  0  0  0
     2  1  1  0  0  0  0  0
      12           -99.377158927732665              0.1096809819D-05
   current occupation vector 
     2  1  1  0  1  0  0  0
     2  1  1  0  0  0  0  0
      13           -99.377158927732765              0.1871696242D-06
   current occupation vector 
     2  1  1  0  1  0  0  0
     2  1  1  0  0  0  0  0
      14           -99.377158927732779              0.1401138650D-08
   current occupation vector 
     2  1  1  0  1  0  0  0
     2  1  1  0  0  0  0  0
      15           -99.377158927732708              0.1161688523D-09
   current occupation vector 
     2  1  1  0  1  0  0  0
     2  1  1  0  0  0  0  0

  SCF has converged.

 Density matrix saved to file den.dat
 total alpha spin electron number:   5.00000000000000     
 total  beta spin electron number:   4.00000000000000     
     E(ROHF)=       -99.377158927732836              0.5118172552D-10

  Eigenvector printing suppressed.


       The average multiplicity is    2.0000000
  The expectation value of S**2 is    0.7500000

 @PUTMOS-I, Writing converged MOs to NEWMOS. 
 @PUTMOS-I, Symmetry   1 Full Blocks  2 Partial Blocksize   1
 @PUTMOS-I, Symmetry   2 Full Blocks  1 Partial Blocksize   0
 @PUTMOS-I, Symmetry   3 Full Blocks  1 Partial Blocksize   0
 @PUTMOS-I, Symmetry   4 Full Blocks  0 Partial Blocksize   2
 @PUTMOS-I, Symmetry   5 Full Blocks  1 Partial Blocksize   0
 @PUTMOS-I, Symmetry   6 Full Blocks  0 Partial Blocksize   2
 @PUTMOS-I, Symmetry   7 Full Blocks  0 Partial Blocksize   2
 @PUTMOS-I, Symmetry   8 Full Blocks  0 Partial Blocksize   0
  @DMPJOB-I, Rotating orbitals to semicanonical basis.
             *** Eigenvalues correspond to new basis. ***



 
  ORBITAL EIGENVALUES (ALPHA)  (1H = 27.2113838 eV)

       MO #        E(hartree)               E(eV)           FULLSYM    COMPSYM
       ----   --------------------   --------------------   -------   ---------
    1     1         -26.4207303515        -718.9446343872      Ag        Ag (1)
    2     2          -1.6704421096         -45.4550413921      Ag        Ag (1)
    3    20          -0.8355476007         -22.7364064623      Au       B1u (5)
    4    14          -0.7300444577         -19.8655199447       u       B3u (3)
    5    10          -0.7300444577         -19.8655199447       u       B2u (2)
  +++++++++++++++++++++++++++++++++++++++++++++++++++++++++++++++++++++++++++++
    6    21           0.2244283756           6.1070066689      Au       B1u (5)
    7     3           0.2277223500           6.1966402688      Ag        Ag (1)
    8    11           0.2379568197           6.4751343527       u       B2u (2)
    9    15           0.2379568197           6.4751343527       u       B3u (3)
   10     4           1.2771004178          34.7516696458      Ag        Ag (1)
   11    26           1.2887064834          35.0674867510       g       B2g (7)
   12    24           1.2887064834          35.0674867510       g       B3g (6)
   13     5           1.3214942925          35.9596884098       g        Ag (1)
   14    18           1.3214942925          35.9596884098       g       B1g (4)
   15    22           1.5311842227          41.6656415815      Au       B1u (5)
   16    12           1.5977182803          43.4761253610       u       B2u (2)
   17    16           1.5977182803          43.4761253610       u       B3u (3)
   18     6           2.1023678009          57.2083371614      Ag        Ag (1)
   19     7           4.6957346744         127.7774385403      Ag        Ag (1)
   20    27           4.7189482609         128.4091123514       g       B2g (7)
   21    25           4.7189482609         128.4091123514       g       B3g (6)
   22     8           4.7895661266         130.3307222012       g        Ag (1)
   23    19           4.7895661266         130.3307222012       g       B1g (4)
   24     9          42.8969816579        1167.2862325953      Ag        Ag (1)
   25    23          48.7519884021        1326.6090683778      Au       B1u (5)
   26    17          48.7994312105        1327.9000528472       u       B3u (3)
   27    13          48.7994312105        1327.9000528472       u       B2u (2)


 
  ORBITAL EIGENVALUES ( BETA)  (1H = 27.2113838 eV)

       MO #        E(hartree)               E(eV)           FULLSYM    COMPSYM
       ----   --------------------   --------------------   -------   ---------
    1     1         -26.3772063949        -717.7602872990      Ag        Ag (1)
    2     2          -1.4903876892         -40.5555114500      Ag        Ag (1)
    3    14          -0.6840490140         -18.6139202719       u       B3u (3)
    4    10          -0.6840490140         -18.6139202719       u       B2u (2)
  +++++++++++++++++++++++++++++++++++++++++++++++++++++++++++++++++++++++++++++
    5    20           0.0275322642           0.7491910076      Au       B1u (5)
    6     3           0.2376408224           6.4665356298      Ag        Ag (1)
    7    11           0.2404748519           6.5436534945       u       B2u (2)
    8    15           0.2404748519           6.5436534945       u       B3u (3)
    9    21           0.2922051606           7.9513067804      Au       B1u (5)
   10     4           1.3284176875          36.1480835675       g        Ag (1)
   11    18           1.3284176875          36.1480835675       g       B1g (4)
   12    26           1.3374624421          36.3942038561       g       B2g (7)
   13    24           1.3374624421          36.3942038561       g       B3g (6)
   14     5           1.3405727259          36.4788389834      Ag        Ag (1)
   15    12           1.6161283891          43.9770898962       u       B2u (2)
   16    16           1.6161283891          43.9770898962       u       B3u (3)
   17    22           1.7252765653          46.9471628144      Au       B1u (5)
   18     6           2.1510932222          58.5342233006      Ag        Ag (1)
   19     7           4.8063483858         130.7873906954       g        Ag (1)
   20    19           4.8063483858         130.7873906954       g       B1g (4)
   21    27           4.8280134753         131.3769277612       g       B2g (7)
   22    25           4.8280134753         131.3769277612       g       B3g (6)
   23     8           4.8354260294         131.5786336172      Ag        Ag (1)
   24     9          42.9269310391        1168.1011967027      Ag        Ag (1)
   25    17          48.8085409507        1328.1479414842       u       B3u (3)
   26    13          48.8085409507        1328.1479414842       u       B2u (2)
   27    23          48.8276912437        1328.6690474557      Au       B1u (5)


  VSCF finished.

  @CHECKOUT-I, Total execution time (CPU/WALL):        0.04/       0.14 seconds.
--executable xvscf finished with status     0 in        0.46 seconds (walltime).
 --invoking executable--
/home/nike/cfour_v2.00beta/bin/xvtran
 @GETMEM-I,  Allocated   13351 MB of main memory.
  Full UHF integral transformation
  Transformation of IIII integrals :
  2 passes through the AO integral file were required.
         634 AO integrals were read.
        1218 MO integrals (Spin case AAAA) were written to HF2AA.
        1218 MO integrals (Spin case BBBB) were written to HF2BB.
        2352 MO integrals (Spin case AABB) were written to HF2AB.
  Transformation of IIJJ integrals :
  2 passes through the AO integral file were required.
        2170 AO integrals were read.
        2352 MO integrals (Spin case AAAA) were written to HF2AA.
        2352 MO integrals (Spin case BBBB) were written to HF2BB.
        4704 MO integrals (Spin case AABB) were written to HF2AB.
  Transformation of IJIJ integrals :
  2 passes through the AO integral file were required.
        2993 AO integrals were read.
        3273 MO integrals (Spin case AAAA) were written to HF2AA.
        3273 MO integrals (Spin case BBBB) were written to HF2BB.
        6252 MO integrals (Spin case AABB) were written to HF2AB.
  Transformation of IJKL integrals :
  2 passes through the AO integral file were required.
        3304 AO integrals were read.
        3384 MO integrals (Spin case AAAA) were written to HF2AA.
        3384 MO integrals (Spin case BBBB) were written to HF2BB.
        6768 MO integrals (Spin case AABB) were written to HF2AB.
  Summary of active molecular orbitals: 
------------------------------------------------------------------------
                         * Spin case alpha *
 
  Index      Eigenvalue    Symmetry    Index      Eigenvalue    Symmetry
------------------------------------------------------------------------
     1       -26.4207304        1        15        48.7994312        2
     2        -1.6704421        1        16         0.2379568        3
     3        -0.7300445        2        17         1.5977183        3
     4        -0.7300445        3        18        48.7994312        3
     5        -0.8355476        5        19         1.3214943        4
     6         0.2277223        1        20         4.7895661        4
     7         1.2771004        1        21         0.2244284        5
     8         1.3214943        1        22         1.5311842        5
     9         2.1023678        1        23        48.7519884        5
    10         4.6957347        1        24         1.2887065        6
    11         4.7895661        1        25         4.7189483        6
    12        42.8969817        1        26         1.2887065        7
    13         0.2379568        2        27         4.7189483        7
    14         1.5977183        2
------------------------------------------------------------------------
------------------------------------------------------------------------
                         * Spin case beta *
 
  Index      Eigenvalue    Symmetry    Index      Eigenvalue    Symmetry
------------------------------------------------------------------------
     1       -26.3772064        1        15         0.2404749        3
     2        -1.4903877        1        16         1.6161284        3
     3        -0.6840490        2        17        48.8085410        3
     4        -0.6840490        3        18         1.3284177        4
     5         0.2376408        1        19         4.8063484        4
     6         1.3284177        1        20         0.0275323        5
     7         1.3405727        1        21         0.2922052        5
     8         2.1510932        1        22         1.7252766        5
     9         4.8063484        1        23        48.8276912        5
    10         4.8354260        1        24         1.3374624        6
    11        42.9269310        1        25         4.8280135        6
    12         0.2404749        2        26         1.3374624        7
    13         1.6161284        2        27         4.8280135        7
    14        48.8085410        2
------------------------------------------------------------------------
  @CHECKOUT-I, Total execution time (CPU/WALL):        0.03/       0.97 seconds.
--executable xvtran finished with status     0 in        1.24 seconds (walltime).
 --invoking executable--
/home/nike/cfour_v2.00beta/bin/xintprc
 @GETMEM-I,  Allocated   13351 MB of main memory.
  Processing integrals for CCSD calculation.
  @GMOIAA-I, Processing MO integrals for spin case AA.
  @GMOIAA-I, Generation of integral list completed.
                      TYPE                NUMBER
                      ----               --------
                      PPPP                  4528
                      PPPH                  3866
                      PPHH                   921
                      PHPH                   609
                      PHHH                   270
                      HHHH                    33

                     TOTAL                 10227
  @GMOIAA-I, Processing MO integrals for spin case BB.
  @GMOIAA-I, Generation of integral list completed.
                      TYPE                NUMBER
                      ----               --------
                      PPPP                  5368
                      PPPH                  3540
                      PPHH                   665
                      PHPH                   462
                      PHHH                   170
                      HHHH                    22

                     TOTAL                 10227
  @GMOIAB-I, Processing MO integrals for spin case AB.
                      TYPE                NUMBER
                      ----               --------
                      PPPP                  9584
                      PPPH1H                4217
                      PPPH2H                3260
                      PPHH                  1458
                      PHPH1P                 434
                      PHPH2P                 661
                      PHHH1P                 193
                      PHHH2P                 230
                      HHHH                    39

                     TOTAL                 20076
            ----------------------------------------------
                     Projected spin multiplicities: 
            ----------------------------------------------
             <0|S^2|0>                  =    0.7500000000.
             <0|S^2 T2|0>               =    0.0000000000.
             Projected <0|S^2 exp(T)|0> =    0.7500000000.
             Approximate spin mult.     =    2.0000000000.
            ----------------------------------------------
   Largest T2 amplitudes for spin case AA:
   i   j   a   b             i   j   a   b             i   j   a   b
-----------------------------------------------------------------------------
[  4   3  17  14]-0.02295 [  5   4  22  17]-0.02260 [  5   3  22  14]-0.02260
[  4   3  19   8]-0.01444 [  4   2  17   9]-0.01273 [  3   2  14   9]-0.01273
[  4   3  17  13]-0.01254 [  4   3  16  14]-0.01254 [  5   2  22   9]-0.01247
[  5   3  22  13]-0.01231 [  5   4  22  16]-0.01231 [  5   3  24   7] 0.01224
[  5   4  26   7] 0.01224 [  5   4  21  17]-0.01110 [  5   3  21  14]-0.01110
-----------------------------------------------------------------------------
   Norm of T2AA vector (      312 symmetry allowed elements):  0.0725135175.
-----------------------------------------------------------------------------
   Largest T2 amplitudes for spin case BB:
   i   j   a   b             i   j   a   b             i   j   a   b
-----------------------------------------------------------------------------
[  4   3  16  13]-0.02330 [  4   3  18   6]-0.01467 [  4   2  16   8]-0.01310
[  3   2  13   8]-0.01310 [  4   3  16  12]-0.01271 [  4   3  15  13]-0.01271
[  4   3  19   9]-0.01025 [  4   3  15  12]-0.01017 [  3   2  24  20] 0.00978
[  4   2  26  20] 0.00978 [  4   3  18   9] 0.00803 [  4   3  19   6] 0.00803
[  4   2  16   5] 0.00765 [  3   2  13   5] 0.00765 [  4   3  26  24]-0.00718
-----------------------------------------------------------------------------
   Norm of T2BB vector (      203 symmetry allowed elements):  0.0512375033.
-----------------------------------------------------------------------------
   Largest T2 amplitudes for spin case AB:
       _       _                 _       _                 _       _
   i   j   a   b             i   j   a   b             i   j   a   b
-----------------------------------------------------------------------------
[  4   4  17  16]-0.03485 [  3   3  14  13]-0.03485 [  4   3  17  13]-0.02703
[  3   4  14  16]-0.02703 [  5   4  22  16]-0.02660 [  5   3  22  13]-0.02660
[  4   2  17   8]-0.02038 [  3   2  14   8]-0.02038 [  5   2  22   8]-0.02006
[  2   4   9  16]-0.01997 [  2   3   9  13]-0.01997 [  5   2   7  20] 0.01902
[  3   3  13  13]-0.01740 [  4   4  16  16]-0.01740 [  3   3  14  12]-0.01727
-----------------------------------------------------------------------------
   Norm of T2AB vector (     1458 symmetry allowed elements):  0.1509031054.
-----------------------------------------------------------------------------
  @CHECKOUT-I, Total execution time (CPU/WALL):        0.04/       0.54 seconds.
--executable xintprc finished with status     0 in        0.92 seconds (walltime).
 --invoking executable--
/home/nike/cfour_v2.00beta/bin/xint
 @GETMEM-I,  Allocated   13351 MB of main memory.
  @CHECKOUT-I, Total execution time (CPU/WALL):        0.13/       0.14 seconds.
--executable xint finished with status     0 in        1.80 seconds (walltime).
 --invoking executable--
/home/nike/MRCC/dmrcc
 **********************************************************************
                          MRCC program system
 **********************************************************************
 
                              Written by
    Mihaly Kallay, Zoltan Rolik, Jozsef Csontos, Istvan Ladjanszki,
       Lorant Szegedy, Bence Ladoczki, Gyula Samu, Klara Petrov,
        Mate Farkas, Peter Nagy, David Mester, and Bence Hegely
 
        Department of Physical Chemistry and Materials Science
            Budapest University of Technology and Economics
                  Budapest P.O.Box 91, H-1521 Hungary
 
                              www.mrcc.hu

 ************************ 2019-01-02 00:50:15 *************************
 Executing minp...

 Reading input from MINP...
 
 Input file:
 
# F  2Z
basis=aCVDZ-EMSL
iface=cfour
uncontract=off
calc=CC(8)
mem=31GB
core=0
itol=18
scftol=13
cctol=7
ccmaxit=999
scfmaxit=9999
scfiguess=ao
scftype=ROHF
rohftype=semicanonical
rest=2
charge=+0
refdet=serialno
1-4
5

symm=5
mult=2
#occ=3,0,0,0,0,1,0,0/1,0,0,0,0,1,0,0
geom
F 

#Li 1 R

#R=3.065

#unit=angstroms

tprint=0.01
verbosity=7
#nstate=4

 
 
 Checking keyword combinations...
 
 Keywords:
 
 active=none
 agrid=ld0006-ld0590
 basis=acvdz-emsl
 basopt=off
 bpcompo=0.985
 bpcompv=0.98
 bpdfo=0.985
 bpocc=0.985
 bppdo=0.985
 bppdv=0.98
 bpedo=0.985
 bpedv=0.98
 calc=cc(8)
 ccmaxit=999
 ccprog=mrcc
 cctol=7
 charge=+0
 cialg=disk
 ciguess=off
 cmpgrp=auto
 core=corr
 corembed=off
 dboc=off
 dendec=cholesky
 dens=0
 dfalg=invsqrt
 dfbasis_cor=none
 dfbasis_scf=none
 dfintran=ovirt
 dft=off
 diag=david
 domrad=10.d0
 drpaalg=fit
 ecp=auto
 edisp=off
 embed=off
 epert=none
 eps=0.975
 excrad=0.d0
 excrad_fin=0.000000000D+00
 freq=off
 gauss=spher
 geom=zmat
 gopt=off
 ghost=none
 gtol=7
 grtol=10
 hamilton=dc
 iface=cfour
 intalg=auto
 itol=18
 lcorthr=loose
 lccrest=off
 lmp2dens=on
 lnoepso=3e-5
 lnoepsv=1e-6
 localcc=off
 locintrf=disk
 maxact=off
 maxex=0
 bfbasis=none
 mem=31gb
 molden=on
 mulmet=0
 mult=2
 nacto=0
 nactv=0
 naf_cor=off
 naf_scf=off
 nafalg=albe
 naftyp=
 nchol=auto
 ndeps=1e-3
 nstate=1
 nsing=0
 ntrip=0
 occ=
 optalg=
 optmaxit=50
 optetol=1e-6
 optgtol=1e-4
 optstol=1e-3
 orblocc=off
 orbloco=off
 orblocv=off
 osveps=1e-3
 ovirt=off
 ovosnorb=80.0
 ptfreq=0.0
 popul=off
 pressure=100000
 qmmm=off
 refdet=serialno
 rest=2
 rgrid=log3
 rohftype=semicanonical
 scspe=1.d0
 scsps=1.2d0
 scspt=0.33333333333333
 scfalg=auto
 scfdamp=off
 scfdiis=on
 scfdiis_end=9999
 scfdiis_start=1
 scfdiis_step=1
 scfdtol=17
 scfext=10
 scfiguess=ao
 scflshift=off
 scfmaxit=9999
 scftype=rohf
 scftol=13
 spairtol=1e-4
 symm=5
 talg=occ
 temp=298.15
 test=off
 tprint=0.01
 uncontract=off
 unit=angs
 verbosity=7
 wpairtol=0.100000000E-05

 ************************ 2019-01-02 00:50:16 *************************
 Executing goldstone...

 Generation of CC equations in terms of H and T...
 Generation of antisymmetrized Goldstone diagrams...
 Number of diagrams in T^1 equations:    15
 Number of diagrams in T^2 equations:    38
 Number of diagrams in T^3 equations:    54
 Number of diagrams in T^4 equations:    81
 Number of diagrams in T^5 equations:   106
 Number of diagrams in T^6 equations:   142
 Number of diagrams in T^7 equations:   175
 Number of diagrams in T^8 equations:   215
 Translation of diagrams to factorized equations...
 Optimizing intermediate calculation...
 Number of floating-point operations per iteration step:   1.5414E+14
 Probable CPU time per iteration step (hours):   1541.43
 Required memory (Mbytes):   82719.3
 Number of intermediates:                                 296
 Number of intermediates to be stored:                    105
 Length of intermediate file (Mbytes):    8392.4

 ************************ 2019-01-02 00:50:17 *************************
 Executing xmrcc...

 **********************************************************************
 CC(                     8 ) calculation 
 
 
 Allocation of****** Mbytes of memory...
 Number of spinorbitals:                    54
 Number of alpha electrons:                        5
 Number of beta electrons:                         4
 Spin multiplicity:                     2
 z-component of spin:  0.5
 Spatial symmetry:                      5
 Convergence criterion:  1.0E-07
 Construction of occupation graphs...
 Number of                     0 -fold excitations:                      1
 Number of                     1 -fold excitations:                     43
 Number of                     2 -fold excitations:                   1973
 Number of                     3 -fold excitations:                  50815
 Number of                     4 -fold excitations:                 718617
 Number of                     5 -fold excitations:                5515395
 Number of                     6 -fold excitations:               23441589
 Number of                     7 -fold excitations:               54424503
 Number of                     8 -fold excitations:               63803364
 Total number of configurations:              147956300
 Calculation of coupling coefficients...
 Length of intermediate file (Mbytes):    4601.3
 
 ======================================================================
 
 Memory requirements /Mbyte/: 
               Minimal        Optimal
 Real*8:      24238.0376     24238.0376
 Integer:        29.2978
 Total:       24267.3354     24267.3354
 

 ************************ 2019-01-02 00:51:07 *************************
 Executing goldstone...

 Generation of CC equations in terms of H and T...
 Generation of antisymmetrized Goldstone diagrams...
 Number of diagrams in T^1 equations:    15
 Number of diagrams in T^2 equations:    34
 Number of diagrams in T^3 equations:     2
 Translation of diagrams to factorized equations...
 Optimizing intermediate calculation...
 Number of floating-point operations per iteration step:   1.2462E+07
 Probable CPU time per iteration step (hours):      0.00
 Required memory (Mbytes):      35.4
 Number of intermediates:                                  49
 Number of intermediates to be stored:                     20
 Length of intermediate file (Mbytes):       1.0

 ************************ 2019-01-02 00:51:08 *************************
 Executing xmrcc...

 **********************************************************************
 CC(2)(3) calculation 
 
 
 Allocation of 100.0 Mbytes of memory...
 Number of spinorbitals:                    54
 Number of alpha electrons:                        5
 Number of beta electrons:                         4
 Spin multiplicity:                     2
 z-component of spin:  0.5
 Spatial symmetry:                      5
 Convergence criterion:  1.0E-07
 Construction of occupation graphs...
 Number of                     0 -fold excitations:                      1
 Number of                     1 -fold excitations:                     43
 Number of                     2 -fold excitations:                   1973
 Total number of configurations:                   2017
 Calculation of coupling coefficients...
 Length of intermediate file (Mbytes):       1.0
 
 ======================================================================
 
 Spin case  1   Alpha:  0   Beta:  3
 Number of excitations:                    870
 Spin case  2   Alpha:  1   Beta:  2
 Number of excitations:                  21103
 Spin case  3   Alpha:  2   Beta:  1
 Number of excitations:                  26910
 Spin case  4   Alpha:  3   Beta:  0
 Number of excitations:                   1932
 Number of                     3 -fold excitations:                  50815
 
 Memory requirements /Mbyte/: 
               Minimal        Optimal
 Real*8:         22.5736        22.5736
 Integer:         3.4736
 Total:          26.0472        26.0472
 

 ************************ 2019-01-02 00:51:09 *************************
 Executing mrcc...

 **********************************************************************
 CCSD(T) calculation                                                    
 
 
 OpenMP parallel version is running.
 Number of CPUs:   2
 Allocation of   22.6 Mbytes of memory...
 Number of spinorbitals:  54
 Number of alpha electrons:  5
 Number of beta  electrons:  4
 Spin multiplicity: 2
 z-component of spin:  0.5
 Spatial symmetry: 5
 Convergence criterion:  1.0E-07
 Construction of occupation graphs...
 Number of 0-fold excitations: 1
 Number of 1-fold excitations: 43
 Number of 2-fold excitations: 1973
 Total number of determinants: 2017
 Calculation of coupling coefficients...
 Initial cluster amplitudes are generated.
 Length of intermediate file (Mbytes):       1.0
 Reading integral list from unit 55...
 Sorting integrals...
 Sorting integrals...
 Sorting integrals...
 Sorting integrals...
 Energy of reference determinant [au]:     -99.377158927733
 Calculation of MP denominators...
 
 Starting CC iteration...
 ======================================================================
 Norm of residual vector:     2.42492222
 CPU time [min]:     0.021                   Wall time [min]:     0.018
 
 Iteration  1  CC energy:   -99.57699059  Energy decrease:   0.19983166
 ======================================================================
 Norm of residual vector:     0.15044092
 CPU time [min]:     0.024                   Wall time [min]:     0.019
 
 Iteration  2  CC energy:   -99.58631970  Energy decrease:   0.00932912
 ======================================================================
 Norm of residual vector:     0.03249415
 CPU time [min]:     0.028                   Wall time [min]:     0.021
 
 Iteration  3  CC energy:   -99.58908540  Energy decrease:   0.00276569
 ======================================================================
 Norm of residual vector:     0.01003360
 CPU time [min]:     0.031                   Wall time [min]:     0.023
 
 Iteration  4  CC energy:   -99.58955755  Energy decrease:   0.00047215
 ======================================================================
 Norm of residual vector:     0.00367374
 CPU time [min]:     0.035                   Wall time [min]:     0.025
 
 Iteration  5  CC energy:   -99.58952239  Energy decrease:   0.00003515
 ======================================================================
 Norm of residual vector:     0.00129040
 CPU time [min]:     0.039                   Wall time [min]:     0.027
 
 Iteration  6  CC energy:   -99.58952784  Energy decrease:   0.00000545
 ======================================================================
 Norm of residual vector:     0.00040131
 CPU time [min]:     0.042                   Wall time [min]:     0.028
 
 Iteration  7  CC energy:   -99.58954207  Energy decrease:   0.00001422
 ======================================================================
 Norm of residual vector:     0.00009527
 CPU time [min]:     0.046                   Wall time [min]:     0.030
 
 Iteration  8  CC energy:   -99.58954212  Energy decrease:   0.00000005
 ======================================================================
 Norm of residual vector:     0.00002365
 CPU time [min]:     0.049                   Wall time [min]:     0.032
 
 Iteration  9  CC energy:   -99.58954205  Energy decrease:   0.00000006
 ======================================================================
 Norm of residual vector:     0.00000635
 CPU time [min]:     0.053                   Wall time [min]:     0.034
 
 Iteration 10  CC energy:   -99.58954203  Energy decrease:   0.00000002
 ======================================================================
 Norm of residual vector:     0.00000178
 CPU time [min]:     0.057                   Wall time [min]:     0.036
 
 Iteration 11  CC energy:   -99.58954201  Energy decrease:   0.00000002
 ======================================================================
 Norm of residual vector:     0.00000048
 CPU time [min]:     0.060                   Wall time [min]:     0.037
 
 Iteration 12  CC energy:   -99.58954201  Energy decrease:   1.8970E-09
 ======================================================================
 Norm of residual vector:     0.00000014
 CPU time [min]:     0.064                   Wall time [min]:     0.039
 
 Iteration 13  CC energy:   -99.58954201  Energy decrease:   1.3696E-09
 ======================================================================
 Norm of residual vector:     0.00000003
 CPU time [min]:     0.067                   Wall time [min]:     0.041
 
 Iteration 14  CC energy:   -99.58954201  Energy decrease:   1.7806E-11
 ======================================================================
 
 Iteration has converged in 14 steps.
 
 Final results:
 Total CCSD energy [au]:             -99.589542011230
 
 Perturbative corrections are calculated...
 ======================================================================
 Spin case  1   Alpha:  0   Beta:  3
 Number of excitations:        870
 CPU time [min]:     0.070                   Wall time [min]:     0.043
 ======================================================================
 Spin case  2   Alpha:  1   Beta:  2
 Number of excitations:        21103
 CPU time [min]:     0.080                   Wall time [min]:     0.048
 ======================================================================
 Spin case  3   Alpha:  2   Beta:  1
 Number of excitations:        26910
 CPU time [min]:     0.094                   Wall time [min]:     0.054
 ======================================================================
 Spin case  4   Alpha:  3   Beta:  0
 Number of excitations:        1932
 CPU time [min]:     0.096                   Wall time [min]:     0.056
 ======================================================================
 Number of 3-fold excitations: 50815
 
 
 CPU time [min]:     0.096                   Wall time [min]:     0.056
 
 Total CCSD[T] energy [au]:          -99.592318034846
 Total CCSD(T) energy [au]:          -99.592065331367
 
 Dominant cluster amplitudes
 Printing threshold:  1.00E-02
 
    1.000000  Reference determinant                                     
    0.014022  2b -> 7b                                                  
    0.012732  2b -> 13b                                                 
   -0.024434  4b -> 8b                                                  
   -0.024434  3b -> 9b                                                  
   -0.015757  2a -> 10a                                                 
   -0.012203  2a -> 19a                                                 
   -0.011608  5a -> 6a                                                  
    0.011476  2b 4b -> 5b 12b                                           
    0.010998  2b 4b -> 16b 18b                                          
    0.011476  2b 3b -> 5b 11b                                           
    0.010998  2b 3b -> 17b 18b                                          
    0.015452  3b 4b -> 10b 14b                                          
   -0.011791  3b 4b -> 9b 16b                                           
    0.011791  3b 4b -> 8b 17b                                           
    0.020354  3b 4b -> 16b 17b                                          
   -0.016407  2a 2b -> 18a 18b                                          
   -0.013166  4a 4b -> 13a 10b                                          
   -0.010351  4a 4b -> 18a 18b                                          
   -0.013166  3a 3b -> 13a 10b                                          
   -0.010351  3a 3b -> 18a 18b                                          
   -0.015287  4a 4b -> 8a 8b                                            
   -0.020338  4a 4b -> 16a 8b                                           
   -0.019562  4a 4b -> 8a 16b                                           
   -0.038063  4a 4b -> 16a 16b                                          
   -0.015287  3a 3b -> 9a 9b                                            
   -0.020338  3a 3b -> 17a 9b                                           
   -0.019562  3a 3b -> 9a 17b                                           
   -0.038063  3a 3b -> 17a 17b                                          
   -0.013166  4a 4b -> 14a 14b                                          
   -0.013166  3a 3b -> 14a 14b                                          
   -0.013426  4a 4b -> 12a 12b                                          
   -0.013426  3a 3b -> 11a 11b                                          
    0.013108  2a 4b -> 7a 16b                                           
   -0.021436  2a 4b -> 18a 16b                                          
   -0.010206  4a 2b -> 18a 16b                                          
   -0.010020  2a 4b -> 16a 18b                                          
    0.013358  4a 2b -> 16a 7b                                           
   -0.021288  4a 2b -> 16a 18b                                          
    0.020704  4a 2b -> 12a 5b                                           
   -0.014791  4a 2b -> 21a 5b                                           
    0.011886  4a 2b -> 12a 6b                                           
    0.013108  2a 3b -> 7a 17b                                           
   -0.021436  2a 3b -> 18a 17b                                          
   -0.010206  3a 2b -> 18a 17b                                          
   -0.010020  2a 3b -> 17a 18b                                          
    0.013358  3a 2b -> 17a 7b                                           
   -0.021288  3a 2b -> 17a 18b                                          
    0.020704  3a 2b -> 11a 5b                                           
   -0.014791  3a 2b -> 20a 5b                                           
    0.011886  3a 2b -> 11a 6b                                           
   -0.011502  4a 3b -> 8a 9b                                            
   -0.015079  4a 3b -> 16a 9b                                           
   -0.014349  4a 3b -> 8a 17b                                           
   -0.027155  4a 3b -> 16a 17b                                          
   -0.011502  3a 4b -> 9a 8b                                            
   -0.015079  3a 4b -> 17a 8b                                           
   -0.014349  3a 4b -> 9a 16b                                           
   -0.027155  3a 4b -> 17a 16b                                          
    0.010743  5a 2b -> 7a 5b                                            
    0.023805  5a 2b -> 10a 5b                                           
    0.016973  5a 2b -> 19a 5b                                           
    0.013709  5a 2b -> 10a 6b                                           
    0.011284  5a 2b -> 19a 6b                                           
   -0.010893  5a 2b -> 18a 15b                                          
    0.013016  5a 2b -> 15a 7b                                           
   -0.020970  5a 2b -> 15a 18b                                          
   -0.012083  5a 4b -> 8a 5b                                            
   -0.010396  5a 4b -> 6a 8b                                            
   -0.014984  5a 4b -> 15a 8b                                           
   -0.013465  5a 4b -> 6a 16b                                           
   -0.027214  5a 4b -> 15a 16b                                          
   -0.012083  5a 3b -> 9a 5b                                            
   -0.010396  5a 3b -> 6a 9b                                            
   -0.014984  5a 3b -> 15a 9b                                           
   -0.013465  5a 3b -> 6a 17b                                           
   -0.027214  5a 3b -> 15a 17b                                          
    0.011632  2a 4a -> 16a 18a                                          
    0.011632  2a 3a -> 17a 18a                                          
    0.015078  3a 4a -> 13a 14a                                          
   -0.011320  3a 4a -> 9a 16a                                           
    0.011320  3a 4a -> 8a 17a                                           
    0.020762  3a 4a -> 16a 17a                                          
    0.010288  3a 4a -> 22a 23a                                          
    0.011678  2a 5a -> 15a 18a                                          
    0.011992  4a 5a -> 10a 12a                                          
   -0.011542  4a 5a -> 8a 15a                                           
    0.010680  4a 5a -> 6a 16a                                           
    0.021113  4a 5a -> 15a 16a                                          
    0.011992  3a 5a -> 10a 11a                                          
   -0.011542  3a 5a -> 9a 15a                                           
    0.010680  3a 5a -> 6a 17a                                           
    0.021113  3a 5a -> 15a 17a                                          

 ************************ 2019-01-02 00:51:12 *************************
 Executing goldstone...

 Generation of CC equations in terms of H and T...
 Generation of antisymmetrized Goldstone diagrams...
 Number of diagrams in T^1 equations:    15
 Number of diagrams in T^2 equations:    38
 Number of diagrams in T^3 equations:    50
 Number of diagrams in T^4 equations:     5
 Translation of diagrams to factorized equations...
 Optimizing intermediate calculation...
 Number of floating-point operations per iteration step:   8.2124E+08
 Probable CPU time per iteration step (hours):      0.01
 Required memory (Mbytes):      35.4
 Number of intermediates:                                  81
 Number of intermediates to be stored:                     31
 Length of intermediate file (Mbytes):       2.1

 ************************ 2019-01-02 00:51:13 *************************
 Executing xmrcc...

 **********************************************************************
 CC(3)(4) calculation 
 
 
 Allocation of 100.0 Mbytes of memory...
 Number of spinorbitals:                    54
 Number of alpha electrons:                        5
 Number of beta electrons:                         4
 Spin multiplicity:                     2
 z-component of spin:  0.5
 Spatial symmetry:                      5
 Convergence criterion:  1.0E-07
 Construction of occupation graphs...
 Number of                     0 -fold excitations:                      1
 Number of                     1 -fold excitations:                     43
 Number of                     2 -fold excitations:                   1973
 Number of                     3 -fold excitations:                  50815
 Total number of configurations:                  52832
 Calculation of coupling coefficients...
 Length of intermediate file (Mbytes):       1.9
 
 ======================================================================
 
 Spin case  1   Alpha:  0   Beta:  4
 Number of excitations:                   1110
 Spin case  2   Alpha:  1   Beta:  3
 Number of excitations:                  96912
 Spin case  3   Alpha:  2   Beta:  2
 Number of excitations:                 438774
 Spin case  4   Alpha:  3   Beta:  1
 Number of excitations:                 177120
 Spin case  5   Alpha:  4   Beta:  0
 Number of excitations:                   4701
 Number of                     4 -fold excitations:                 718617
 
 Memory requirements /Mbyte/: 
               Minimal        Optimal
 Real*8:         41.4398        41.4398
 Integer:         4.4377
 Total:          45.8775        45.8775
 

 ************************ 2019-01-02 00:51:14 *************************
 Executing mrcc...

 **********************************************************************
 CCSDT(Q) calculation                                                   
 
 
 OpenMP parallel version is running.
 Number of CPUs:   2
 Allocation of   41.4 Mbytes of memory...
 Number of spinorbitals:  54
 Number of alpha electrons:  5
 Number of beta  electrons:  4
 Spin multiplicity: 2
 z-component of spin:  0.5
 Spatial symmetry: 5
 Convergence criterion:  1.0E-07
 Construction of occupation graphs...
 Number of 0-fold excitations: 1
 Number of 1-fold excitations: 43
 Number of 2-fold excitations: 1973
 Number of 3-fold excitations: 50815
 Total number of determinants: 52832
 Calculation of coupling coefficients...
 Initial cluster amplitudes are read from unit 16.
 Length of intermediate file (Mbytes):       1.9
 Reading integral list from unit 55...
 Sorting integrals...
 Sorting integrals...
 Sorting integrals...
 Sorting integrals...
 Energy of reference determinant [au]:     -99.377158927733
 Calculation of MP denominators...
 
 Starting CC iteration...
 ======================================================================
 Norm of residual vector:     0.17403907
 CPU time [min]:     0.059                   Wall time [min]:     0.037
 
 Iteration  1  CC energy:   -99.58954201  Energy decrease:   2.2922E-11
 ======================================================================
 Norm of residual vector:     0.02613834
 CPU time [min]:     0.095                   Wall time [min]:     0.056
 
 Iteration  2  CC energy:   -99.59161940  Energy decrease:   0.00207739
 ======================================================================
 Norm of residual vector:     0.00969964
 CPU time [min]:     0.132                   Wall time [min]:     0.074
 
 Iteration  3  CC energy:   -99.59216506  Energy decrease:   0.00054565
 ======================================================================
 Norm of residual vector:     0.00243819
 CPU time [min]:     0.168                   Wall time [min]:     0.092
 
 Iteration  4  CC energy:   -99.59221823  Energy decrease:   0.00005318
 ======================================================================
 Norm of residual vector:     0.00120664
 CPU time [min]:     0.205                   Wall time [min]:     0.111
 
 Iteration  5  CC energy:   -99.59226428  Energy decrease:   0.00004605
 ======================================================================
 Norm of residual vector:     0.00056438
 CPU time [min]:     0.242                   Wall time [min]:     0.129
 
 Iteration  6  CC energy:   -99.59227196  Energy decrease:   0.00000768
 ======================================================================
 Norm of residual vector:     0.00020720
 CPU time [min]:     0.279                   Wall time [min]:     0.148
 
 Iteration  7  CC energy:   -99.59227177  Energy decrease:   0.00000019
 ======================================================================
 Norm of residual vector:     0.00006318
 CPU time [min]:     0.317                   Wall time [min]:     0.167
 
 Iteration  8  CC energy:   -99.59227149  Energy decrease:   0.00000029
 ======================================================================
 Norm of residual vector:     0.00001992
 CPU time [min]:     0.356                   Wall time [min]:     0.187
 
 Iteration  9  CC energy:   -99.59227138  Energy decrease:   0.00000011
 ======================================================================
 Norm of residual vector:     0.00000747
 CPU time [min]:     0.402                   Wall time [min]:     0.215
 
 Iteration 10  CC energy:   -99.59227138  Energy decrease:   1.8703E-09
 ======================================================================
 Norm of residual vector:     0.00000291
 CPU time [min]:     0.441                   Wall time [min]:     0.234
 
 Iteration 11  CC energy:   -99.59227138  Energy decrease:   3.9419E-09
 ======================================================================
 Norm of residual vector:     0.00000093
 CPU time [min]:     0.479                   Wall time [min]:     0.254
 
 Iteration 12  CC energy:   -99.59227138  Energy decrease:   8.6453E-10
 ======================================================================
 Norm of residual vector:     0.00000034
 CPU time [min]:     0.518                   Wall time [min]:     0.273
 
 Iteration 13  CC energy:   -99.59227138  Energy decrease:   1.6348E-10
 ======================================================================
 Norm of residual vector:     0.00000011
 CPU time [min]:     0.556                   Wall time [min]:     0.292
 
 Iteration 14  CC energy:   -99.59227138  Energy decrease:   5.4868E-11
 ======================================================================
 Norm of residual vector:     0.00000003
 CPU time [min]:     0.592                   Wall time [min]:     0.310
 
 Iteration 15  CC energy:   -99.59227138  Energy decrease:   3.5706E-10
 ======================================================================
 
 Iteration has converged in 15 steps.
 
 Final results:
 Total CCSDT energy [au]:            -99.592271382434
 
 Perturbative corrections are calculated...
 ======================================================================
 Spin case  1   Alpha:  0   Beta:  4
 Number of excitations:        1110
 CPU time [min]:     0.614                   Wall time [min]:     0.321
 ======================================================================
 Spin case  2   Alpha:  1   Beta:  3
 Number of excitations:        96912
 CPU time [min]:     0.911                   Wall time [min]:     0.470
 ======================================================================
 Spin case  3   Alpha:  2   Beta:  2
 Number of excitations:        438774
 CPU time [min]:     1.583                   Wall time [min]:     0.806
 ======================================================================
 Spin case  4   Alpha:  3   Beta:  1
 Number of excitations:        177120
 CPU time [min]:     1.962                   Wall time [min]:     0.995
 ======================================================================
 Spin case  5   Alpha:  4   Beta:  0
 Number of excitations:        4701
 CPU time [min]:     1.987                   Wall time [min]:     1.008
 ======================================================================
 Number of 4-fold excitations: 718617
 
 T_2^+ contribution:               0.000003151528
 T_3^+ contribution:              -0.000082453677
 T_1^+ * T_2^+ contribution:       0.000016333325
 T_1^+ * <ab||ij> contribution:    0.000010665796
 T_2^+ * f_ai contribution:        0.000000191781
 
 CPU time [min]:     1.990                   Wall time [min]:     1.009
 
 Total CCSDT[Q] energy [au]:         -99.592268230906
 Total CCSDT(Q)/A energy [au]:       -99.592334351258
 Total CCSDT(Q)/B energy [au]:       -99.592339827006
 
 Dominant cluster amplitudes
 Printing threshold:  1.00E-02
 
    1.000000  Reference determinant                                     
    0.013126  2b -> 7b                                                  
    0.012698  2b -> 13b                                                 
   -0.022510  4b -> 8b                                                  
   -0.022510  3b -> 9b                                                  
   -0.015794  2a -> 10a                                                 
   -0.012212  2a -> 19a                                                 
    0.011984  2b 4b -> 5b 12b                                           
    0.011089  2b 4b -> 16b 18b                                          
    0.011984  2b 3b -> 5b 11b                                           
    0.011089  2b 3b -> 17b 18b                                          
    0.011418  3b 4b -> 8b 9b                                            
    0.016294  3b 4b -> 10b 14b                                          
   -0.012310  3b 4b -> 9b 16b                                           
    0.012310  3b 4b -> 8b 17b                                           
    0.020678  3b 4b -> 16b 17b                                          
   -0.016406  2a 2b -> 18a 18b                                          
   -0.013542  4a 4b -> 13a 10b                                          
   -0.010425  4a 4b -> 18a 18b                                          
   -0.013542  3a 3b -> 13a 10b                                          
   -0.010425  3a 3b -> 18a 18b                                          
   -0.016720  4a 4b -> 8a 8b                                            
   -0.020859  4a 4b -> 16a 8b                                           
   -0.020087  4a 4b -> 8a 16b                                           
   -0.038371  4a 4b -> 16a 16b                                          
   -0.016720  3a 3b -> 9a 9b                                            
   -0.020859  3a 3b -> 17a 9b                                           
   -0.020087  3a 3b -> 9a 17b                                           
   -0.038371  3a 3b -> 17a 17b                                          
   -0.013542  4a 4b -> 14a 14b                                          
   -0.013542  3a 3b -> 14a 14b                                          
   -0.013851  4a 4b -> 12a 12b                                          
   -0.010010  4a 4b -> 21a 21b                                          
   -0.013851  3a 3b -> 11a 11b                                          
   -0.010010  3a 3b -> 20a 20b                                          
   -0.010060  2a 4b -> 18a 8b                                           
    0.013380  2a 4b -> 7a 16b                                           
   -0.021524  2a 4b -> 18a 16b                                          
   -0.010255  4a 2b -> 18a 16b                                          
   -0.010064  2a 4b -> 16a 18b                                          
    0.013681  4a 2b -> 16a 7b                                           
   -0.021419  4a 2b -> 16a 18b                                          
    0.021559  4a 2b -> 12a 5b                                           
   -0.014903  4a 2b -> 21a 5b                                           
    0.012250  4a 2b -> 12a 6b                                           
   -0.010060  2a 3b -> 18a 9b                                           
    0.013380  2a 3b -> 7a 17b                                           
   -0.021524  2a 3b -> 18a 17b                                          
   -0.010255  3a 2b -> 18a 17b                                          
   -0.010064  2a 3b -> 17a 18b                                          
    0.013681  3a 2b -> 17a 7b                                           
   -0.021419  3a 2b -> 17a 18b                                          
    0.021559  3a 2b -> 11a 5b                                           
   -0.014903  3a 2b -> 20a 5b                                           
    0.012250  3a 2b -> 11a 6b                                           
   -0.012956  4a 3b -> 8a 9b                                            
   -0.015616  4a 3b -> 16a 9b                                           
   -0.014868  4a 3b -> 8a 17b                                           
   -0.027482  4a 3b -> 16a 17b                                          
   -0.012956  3a 4b -> 9a 8b                                            
   -0.015616  3a 4b -> 17a 8b                                           
   -0.014868  3a 4b -> 9a 16b                                           
   -0.027482  3a 4b -> 17a 16b                                          
   -0.010090  4a 3b -> 12a 11b                                          
   -0.010090  3a 4b -> 11a 12b                                          
    0.011347  5a 2b -> 7a 5b                                            
    0.024732  5a 2b -> 10a 5b                                           
    0.017072  5a 2b -> 19a 5b                                           
    0.014092  5a 2b -> 10a 6b                                           
    0.011362  5a 2b -> 19a 6b                                           
   -0.011070  5a 2b -> 18a 15b                                          
    0.013405  5a 2b -> 15a 7b                                           
   -0.021134  5a 2b -> 15a 18b                                          
   -0.014195  5a 4b -> 8a 5b                                            
   -0.011624  5a 4b -> 6a 8b                                            
   -0.015531  5a 4b -> 15a 8b                                           
   -0.013920  5a 4b -> 6a 16b                                           
   -0.027537  5a 4b -> 15a 16b                                          
   -0.014195  5a 3b -> 9a 5b                                            
   -0.011624  5a 3b -> 6a 9b                                            
   -0.015531  5a 3b -> 15a 9b                                           
   -0.013920  5a 3b -> 6a 17b                                           
   -0.027537  5a 3b -> 15a 17b                                          
    0.011660  2a 4a -> 16a 18a                                          
    0.011660  2a 3a -> 17a 18a                                          
[...]
    0.011985  2b 3b -> 5b 11b                                           
    0.011108  2b 3b -> 17b 18b                                          
    0.011434  3b 4b -> 8b 9b                                            
    0.016285  3b 4b -> 10b 14b                                          
   -0.012312  3b 4b -> 9b 16b                                           
    0.012312  3b 4b -> 8b 17b                                           
    0.020725  3b 4b -> 16b 17b                                          
    0.010004  3b 4b -> 19b 23b                                          
   -0.016418  2a 2b -> 18a 18b                                          
   -0.013524  4a 4b -> 13a 10b                                          
   -0.010430  4a 4b -> 18a 18b                                          
   -0.013524  3a 3b -> 13a 10b                                          
   -0.010430  3a 3b -> 18a 18b                                          
   -0.016666  4a 4b -> 8a 8b                                            
   -0.020843  4a 4b -> 16a 8b                                           
   -0.020071  4a 4b -> 8a 16b                                           
   -0.038428  4a 4b -> 16a 16b                                          
   -0.016666  3a 3b -> 9a 9b                                            
   -0.020843  3a 3b -> 17a 9b                                           
   -0.020071  3a 3b -> 9a 17b                                           
   -0.038428  3a 3b -> 17a 17b                                          
   -0.013524  4a 4b -> 14a 14b                                          
   -0.013524  3a 3b -> 14a 14b                                          
   -0.013834  4a 4b -> 12a 12b                                          
   -0.010015  4a 4b -> 21a 21b                                          
   -0.013834  3a 3b -> 11a 11b                                          
   -0.010015  3a 3b -> 20a 20b                                          
   -0.010047  2a 4b -> 18a 8b                                           
    0.013376  2a 4b -> 7a 16b                                           
   -0.021547  2a 4b -> 18a 16b                                          
   -0.010259  4a 2b -> 18a 16b                                          
   -0.010068  2a 4b -> 16a 18b                                          
    0.013674  4a 2b -> 16a 7b                                           
   -0.021442  4a 2b -> 16a 18b                                          
    0.021556  4a 2b -> 12a 5b                                           
   -0.014914  4a 2b -> 21a 5b                                           
    0.012255  4a 2b -> 12a 6b                                           
   -0.010047  2a 3b -> 18a 9b                                           
    0.013376  2a 3b -> 7a 17b                                           
   -0.021547  2a 3b -> 18a 17b                                          
   -0.010259  3a 2b -> 18a 17b                                          
   -0.010068  2a 3b -> 17a 18b                                          
    0.013674  3a 2b -> 17a 7b                                           
   -0.021442  3a 2b -> 17a 18b                                          
    0.021556  3a 2b -> 11a 5b                                           
   -0.014914  3a 2b -> 20a 5b                                           
    0.012255  3a 2b -> 11a 6b                                           
   -0.012945  4a 3b -> 8a 9b                                            
   -0.015608  4a 3b -> 16a 9b                                           
   -0.014864  4a 3b -> 8a 17b                                           
   -0.027532  4a 3b -> 16a 17b                                          
   -0.012945  3a 4b -> 9a 8b                                            
   -0.015608  3a 4b -> 17a 8b                                           
   -0.014864  3a 4b -> 9a 16b                                           
   -0.027532  3a 4b -> 17a 16b                                          
   -0.010082  4a 3b -> 12a 11b                                          
   -0.010082  3a 4b -> 11a 12b                                          
    0.011351  5a 2b -> 7a 5b                                            
    0.024721  5a 2b -> 10a 5b                                           
    0.017086  5a 2b -> 19a 5b                                           
    0.014094  5a 2b -> 10a 6b                                           
    0.011372  5a 2b -> 19a 6b                                           
   -0.011077  5a 2b -> 18a 15b                                          
    0.013395  5a 2b -> 15a 7b                                           
   -0.021154  5a 2b -> 15a 18b                                          
   -0.014193  5a 4b -> 8a 5b                                            
   -0.011603  5a 4b -> 6a 8b                                            
   -0.015517  5a 4b -> 15a 8b                                           
   -0.013914  5a 4b -> 6a 16b                                           
   -0.027582  5a 4b -> 15a 16b                                          
   -0.014193  5a 3b -> 9a 5b                                            
   -0.011603  5a 3b -> 6a 9b                                            
   -0.015517  5a 3b -> 15a 9b                                           
   -0.013914  5a 3b -> 6a 17b                                           
   -0.027582  5a 3b -> 15a 17b                                          
    0.011679  2a 4a -> 16a 18a                                          
    0.011679  2a 3a -> 17a 18a                                          
    0.015825  3a 4a -> 13a 14a                                          
   -0.011785  3a 4a -> 9a 16a                                           
    0.011785  3a 4a -> 8a 17a                                           
    0.021119  3a 4a -> 16a 17a                                          
    0.010321  3a 4a -> 22a 23a                                          
    0.011743  2a 5a -> 15a 18a                                          
    0.012561  4a 5a -> 10a 12a                                          
   -0.012050  4a 5a -> 8a 15a                                           
    0.011079  4a 5a -> 6a 16a                                           
    0.021472  4a 5a -> 15a 16a                                          
    0.012561  3a 5a -> 10a 11a                                          
   -0.012050  3a 5a -> 9a 15a                                           
    0.011079  3a 5a -> 6a 17a                                           
    0.021472  3a 5a -> 15a 17a                                          

 ************************ 2019-01-14 02:04:53 *************************
 Executing goldstone...

 Generation of CC equations in terms of H and T...
 Generation of antisymmetrized Goldstone diagrams...
 Number of diagrams in T^1 equations:    15
 Number of diagrams in T^2 equations:    38
 Number of diagrams in T^3 equations:    54
 Number of diagrams in T^4 equations:    81
 Number of diagrams in T^5 equations:   106
 Number of diagrams in T^6 equations:   142
 Number of diagrams in T^7 equations:   175
 Number of diagrams in T^8 equations:   215
 Translation of diagrams to factorized equations...
 Optimizing intermediate calculation...
 Number of floating-point operations per iteration step:   1.5414E+14
 Probable CPU time per iteration step (hours):   1541.43
 Required memory (Mbytes):   82719.3
 Number of intermediates:                                 296
 Number of intermediates to be stored:                    105
 Length of intermediate file (Mbytes):    8392.4

 ************************ 2019-01-14 02:04:58 *************************
 Executing xmrcc...

 **********************************************************************
 CC(                     8 ) calculation 
 
 
 Allocation of****** Mbytes of memory...
 Number of spinorbitals:                    54
 Number of alpha electrons:                        5
 Number of beta electrons:                         4
 Spin multiplicity:                     2
 z-component of spin:  0.5
 Spatial symmetry:                      5
 Convergence criterion:  1.0E-07
 Construction of occupation graphs...
 Number of                     0 -fold excitations:                      1
 Number of                     1 -fold excitations:                     43
 Number of                     2 -fold excitations:                   1973
 Number of                     3 -fold excitations:                  50815
 Number of                     4 -fold excitations:                 718617
 Number of                     5 -fold excitations:                5515395
 Number of                     6 -fold excitations:               23441589
 Number of                     7 -fold excitations:               54424503
 Number of                     8 -fold excitations:               63803364
 Total number of configurations:              147956300
 Calculation of coupling coefficients...
 Length of intermediate file (Mbytes):    4601.3
 
 ======================================================================
 
 Memory requirements /Mbyte/: 
               Minimal        Optimal
 Real*8:      24238.0376     24238.0376
 Integer:        29.2978
 Total:       24267.3354     24267.3354
 

 ************************ 2019-01-14 02:05:52 *************************
 Executing mrcc...

 **********************************************************************
 CC(8) calculation                                                      
 
 
 OpenMP parallel version is running.
 Number of CPUs:   2
 Allocation of24238.0 Mbytes of memory...
 Number of spinorbitals:  54
 Number of alpha electrons:  5
 Number of beta  electrons:  4
 Spin multiplicity: 2
 z-component of spin:  0.5
 Spatial symmetry: 5
 Convergence criterion:  1.0E-07
 Construction of occupation graphs...
 Number of 0-fold excitations: 1
 Number of 1-fold excitations: 43
 Number of 2-fold excitations: 1973
 Number of 3-fold excitations: 50815
 Number of 4-fold excitations: 718617
 Number of 5-fold excitations: 5515395
 Number of 6-fold excitations: 23441589
 Number of 7-fold excitations: 54424503
 Number of 8-fold excitations: 63803364
 Total number of determinants: 147956300
 Calculation of coupling coefficients...
 Initial cluster amplitudes are read from unit 16.
 Length of intermediate file (Mbytes):    4601.3
 Reading integral list from unit 55...
 Sorting integrals...
 Sorting integrals...
 Sorting integrals...
 Sorting integrals...
 Energy of reference determinant [au]:     -99.377158927733
 Calculation of MP denominators...
 
 Starting CC iteration...
 ======================================================================
 Norm of residual vector:     0.00001773
 CPU time [min]:  3674.999                   Wall time [min]:  2081.596
 
 Iteration  1  CC energy:   -99.59234934  Energy decrease:   1.0620E-10
 ======================================================================
 Norm of residual vector:     0.00000110
 CPU time [min]:  7379.651                   Wall time [min]:  4154.954
 
 Iteration  2  CC energy:   -99.59234934  Energy decrease:   5.2935E-11
 ======================================================================
 Norm of residual vector:     0.00000018
 CPU time [min]: 11110.808                   Wall time [min]:  6138.033
 
 Iteration  3  CC energy:   -99.59234934  Energy decrease:   4.4849E-11
 ======================================================================
 Norm of residual vector:     0.00000003
 CPU time [min]: 14851.804                   Wall time [min]:  8164.523
 
 Iteration  4  CC energy:   -99.59234934  Energy decrease:   1.3671E-11
 ======================================================================
 
 Iteration has converged in  4 steps.
 
 Final results:
 Total CC(8) energy [au]:            -99.592349336280
 
 Dominant cluster amplitudes
 Printing threshold:  1.00E-02
 
    1.000000  Reference determinant                                     
    0.013052  2b -> 7b                                                  
    0.012700  2b -> 13b                                                 
   -0.022263  4b -> 8b                                                  
   -0.022263  3b -> 9b                                                  
   -0.015796  2a -> 10a                                                 
   -0.012211  2a -> 19a                                                 
    0.011985  2b 4b -> 5b 12b                                           
    0.011108  2b 4b -> 16b 18b                                          
    0.011985  2b 3b -> 5b 11b                                           
    0.011108  2b 3b -> 17b 18b                                          
    0.011434  3b 4b -> 8b 9b                                            
    0.016285  3b 4b -> 10b 14b                                          
   -0.012312  3b 4b -> 9b 16b                                           
    0.012312  3b 4b -> 8b 17b                                           
    0.020725  3b 4b -> 16b 17b                                          
    0.010004  3b 4b -> 19b 23b                                          
   -0.016418  2a 2b -> 18a 18b                                          
   -0.013524  4a 4b -> 13a 10b                                          
   -0.010430  4a 4b -> 18a 18b                                          
   -0.013524  3a 3b -> 13a 10b                                          
   -0.010430  3a 3b -> 18a 18b                                          
   -0.016666  4a 4b -> 8a 8b                                            
   -0.020843  4a 4b -> 16a 8b                                           
   -0.020071  4a 4b -> 8a 16b                                           
   -0.038428  4a 4b -> 16a 16b                                          
   -0.016666  3a 3b -> 9a 9b                                            
   -0.020843  3a 3b -> 17a 9b                                           
   -0.020071  3a 3b -> 9a 17b                                           
   -0.038428  3a 3b -> 17a 17b                                          
   -0.013524  4a 4b -> 14a 14b                                          
   -0.013524  3a 3b -> 14a 14b                                          
   -0.013834  4a 4b -> 12a 12b                                          
   -0.010015  4a 4b -> 21a 21b                                          
   -0.013834  3a 3b -> 11a 11b                                          
   -0.010015  3a 3b -> 20a 20b                                          
   -0.010047  2a 4b -> 18a 8b                                           
    0.013376  2a 4b -> 7a 16b                                           
   -0.021547  2a 4b -> 18a 16b                                          
   -0.010259  4a 2b -> 18a 16b                                          
   -0.010068  2a 4b -> 16a 18b                                          
    0.013674  4a 2b -> 16a 7b                                           
   -0.021442  4a 2b -> 16a 18b                                          
    0.021556  4a 2b -> 12a 5b                                           
   -0.014914  4a 2b -> 21a 5b                                           
    0.012255  4a 2b -> 12a 6b                                           
   -0.010047  2a 3b -> 18a 9b                                           
    0.013376  2a 3b -> 7a 17b                                           
   -0.021547  2a 3b -> 18a 17b                                          
   -0.010259  3a 2b -> 18a 17b                                          
   -0.010068  2a 3b -> 17a 18b                                          
    0.013674  3a 2b -> 17a 7b                                           
   -0.021442  3a 2b -> 17a 18b                                          
    0.021556  3a 2b -> 11a 5b                                           
   -0.014914  3a 2b -> 20a 5b                                           
    0.012255  3a 2b -> 11a 6b                                           
   -0.012945  4a 3b -> 8a 9b                                            
   -0.015608  4a 3b -> 16a 9b                                           
   -0.014864  4a 3b -> 8a 17b                                           
   -0.027532  4a 3b -> 16a 17b                                          
   -0.012945  3a 4b -> 9a 8b                                            
   -0.015608  3a 4b -> 17a 8b                                           
   -0.014864  3a 4b -> 9a 16b                                           
   -0.027532  3a 4b -> 17a 16b                                          
   -0.010082  4a 3b -> 12a 11b                                          
   -0.010082  3a 4b -> 11a 12b                                          
    0.011351  5a 2b -> 7a 5b                                            
    0.024721  5a 2b -> 10a 5b                                           
    0.017086  5a 2b -> 19a 5b                                           
    0.014094  5a 2b -> 10a 6b                                           
    0.011372  5a 2b -> 19a 6b                                           
   -0.011077  5a 2b -> 18a 15b                                          
    0.013395  5a 2b -> 15a 7b                                           
   -0.021154  5a 2b -> 15a 18b                                          
   -0.014193  5a 4b -> 8a 5b                                            
   -0.011603  5a 4b -> 6a 8b                                            
   -0.015517  5a 4b -> 15a 8b                                           
   -0.013914  5a 4b -> 6a 16b                                           
   -0.027582  5a 4b -> 15a 16b                                          
   -0.014193  5a 3b -> 9a 5b                                            
   -0.011603  5a 3b -> 6a 9b                                            
   -0.015517  5a 3b -> 15a 9b                                           
   -0.013914  5a 3b -> 6a 17b                                           
   -0.027582  5a 3b -> 15a 17b                                          
    0.011679  2a 4a -> 16a 18a                                          
    0.011679  2a 3a -> 17a 18a                                          
    0.015825  3a 4a -> 13a 14a                                          
   -0.011785  3a 4a -> 9a 16a                                           
    0.011785  3a 4a -> 8a 17a                                           
    0.021119  3a 4a -> 16a 17a                                          
    0.010321  3a 4a -> 22a 23a                                          
    0.011743  2a 5a -> 15a 18a                                          
    0.012561  4a 5a -> 10a 12a                                          
   -0.012050  4a 5a -> 8a 15a                                           
    0.011079  4a 5a -> 6a 16a                                           
    0.021472  4a 5a -> 15a 16a                                          
    0.012561  3a 5a -> 10a 11a                                          
   -0.012050  3a 5a -> 9a 15a                                           
    0.011079  3a 5a -> 6a 17a                                           
    0.021472  3a 5a -> 15a 17a                                          
 
 ************************ 2019-01-19 18:10:44 *************************
                      Normal termination of mrcc.
 **********************************************************************
--executable dmrcc finished with status     0 in  1531229.75 seconds (walltime).
  The final electronic energy is       -99.592349336279852 a.u. 
  This computation required                      1531236.88 seconds (walltime).
--- SharcNET Job Epilogue ---
Job completed successfully.
               jobid: 1652357
               resid: 3131485
         exit status: 0
      allocated time: 1531240
           user time: 2946040
         system time: 7325.21
peak rss=33125453824; peak vsz=36165382144 (bytes)
atime=1531240; utime=2946040; stime=7325.21; exit=0
