 --invoking executable--
/home/nike/cfour_v2.00beta/cfour_v2.00beta/bin/xjoda


   *************************************************************************
         <<<     CCCCCC     CCCCCC   |||     CCCCCC     CCCCCC   >>>
       <<<      CCC        CCC       |||    CCC        CCC         >>>
      <<<      CCC        CCC        |||   CCC        CCC            >>>
    <<<        CCC        CCC        |||   CCC        CCC              >>>
      <<<      CCC        CCC        |||   CCC        CCC            >>>
       <<<      CCC        CCC       |||    CCC        CCC         >>>
         <<<     CCCCCC     CCCCCC   |||     CCCCCC     CCCCCC   >>>
   *************************************************************************

     ****************************************************************
     * CFOUR Coupled-Cluster techniques for Computational Chemistry *
     ****************************************************************
 

   Department of Chemistry                Institut fuer Physikalische Chemie
   University of Texas at Austin          Universitaet Mainz
   Austin, TX  78712, USA                 D-55099 Mainz, Germany
 
                       Version 2.00beta
 
                     blg8126.int.ets1.calculquebec.ca                  
                     Mo 2. Mär 21:17:39 EST 2020                      
                     integer*8 version is running
 
********************************************************************************
*                          Input from ZMAT file                                *
********************************************************************************
TITLE                                                                           
C                                                                               
S 1 R                                                                           
X 1 RDUM 2 A90                                                                  
S 1 R 3 A90 2 D180                                                              
                                                                                
R=2.93398878109                                                                 
RDUM=1                                                                          
A90=90                                                                          
D180=180                                                                        
                                                                                
*ACES2(CALC=CCSD(T)                                                             
UNITS=BOHR                                                                      
#GEOM=1.5526*10/5.29177210903                                                   
#COORD=CARTESIAN                                                                
COORD=INTERNAL                                                                  
PRINT=4                                                                         
JODA_PRINT=4                                                                    
INPUT_MRCC=OFF                                                                  
#CC_PROG=MRCC                                                                   
#FROZEN_CORE=ON                                                                 
DROPMO=1>11                                                                     
CONTRACTION=GENERAL                                                             
#CONTRACTION=SEGMENTED                                                          
RELATIVISTIC=OFF                                                                
#EXCITE=EOMEE                                                                   
#ESTATE_CONV=5                                                                  
#ESTATE_SYM=2/2/2/2/2/2/2/2                                                     
XFORM_TOL=18                                                                    
SAVE_INTS=ON                                                                    
SCF_EXPORDER=6                                                                  
SCF_EXPSTART=5                                                                  
#SCF_DAMPING=1000                                                               
SCF_EXTRAPOLATION=ON                                                            
SCF_CONV=11                                                                     
SCF_MAXCYC=99999                                                                
CC_CONV=9                                                                       
CC_MAXCYC=999                                                                   
T3_EXTRAPOL=ON                                                                  
REFERENCE=RHF                                                                   
#SYMMETRY=OFF                                                                   
#HFSTABILITY=FOLLOW                                                             
CHARGE=+0                                                                       
MULT=1                                                                          
ABCDTYPE=STANDARD                                                               
#OCCUPATION=3-2-2-0-1-0-0-0/3-1-1-0-1-0-0-0                                     
MEM=12                                                                          
MEM_UNIT=GB                                                                     
BASIS=SPECIAL)                                                                  
                                                                                
C:def2-TZVPP                                                                    
S:def2-TZVPP                                                                    
S:def2-TZVPP                                                                    
                                                                                
********************************************************************************
  @GTFLGS-W, Keyword #GEOM not known and is ignored.
  @GTFLGS-W, Keyword #COORD not known and is ignored.
  @GTFLGS-W, Keyword #CC_PROG not known and is ignored.
  @GTFLGS-W, Keyword #FROZEN_CORE not known and is ignored.
  @GTFLGS-W, Keyword #CONTRACTION not known and is ignored.
  @GTFLGS-W, Keyword #EXCITE not known and is ignored.
  @GTFLGS-W, Keyword #ESTATE_CONV not known and is ignored.
  @GTFLGS-W, Keyword #ESTATE_SYM not known and is ignored.
  @GTFLGS-W, Keyword #SCF_DAMPING not known and is ignored.
  @GTFLGS-W, Keyword #SYMMETRY not known and is ignored.
  @GTFLGS-W, Keyword #HFSTABILITY not known and is ignored.
  @GTFLGS-W, Keyword #OCCUPATION not known and is ignored.
    -------------------------------------------------------------------
                    CFOUR Control Parameters 
    -------------------------------------------------------------------
        External           Internal           Value            Units
          Name               Name
    -------------------------------------------------------------------
       ABCDTYPE             IABCDT         STANDARD     [  0]   ***   
       ANHARMONIC           IANHAR         OFF          [  0]   ***   
       ANH_ALGORIT          IANALG         STANDARD     [  0]   ***   
       ANH_DERIVAT          IANDER         SECOND       [  1]   ***   
       ANH_STEPSIZ          ICUBST             50000          x 10-6  
       ANH_SYMMETR          IANHSM         ABELIAN      [  0]   ***   
       AO_LADDERS           IAOLAD         SINGLEPASS   [  1]   ***   
       BASIS                IBASIS         SPECIAL      [  0]   ***   
       BREIT                IBREIT         OFF          [  0]   ***   
       BRUCK_CONV           IBRTOL          10D-  4             ***   
       BRUECKNER            IBRKNR             OFF      [  0]   ***   
       BUFFERSIZE           IBUFFS            600               ***   
       CACHE_RECS           ICHREC             10               ***   
       CALCLEVEL            ICLLVL           CCSD(T)    [ 22]   ***   
       CCORBOPT             ICCORB             OFF      [  0] x 0.01  
       CC_CONV              ICCCNV          10D-  9             ***   
       CC_EXPORDER          ICCEOR              5               ***   
       CC_EXTRAPOL          ICCEXT             DIIS     [  1]   ***   
       CC_MAXCYC            ICCCYC            999              cycles 
       CC_PROGRAM           ICCPRO         VCC          [  0]   ***   
       CHARGE               ICHRGE              0               ***   
       CHOLESKY             ICHOLE         OFF          [  0]   ***   
       CIS_CONV             ICISTL              5               ***   
       COMM_SIZE            IPSIZE            ***               ***   
       CONSTANT             ICONST         OLD          [  1]   ***   
       CONTINUUM            ICONTU         NONE         [  0]   ***   
       CONTRACTION          ICNTYP          GENERAL     [  1]   ***   
       COORDINATES          ICOORD         INTERNAL     [  0]   ***   
       CPHF_CONVER          ICPHFT          10D- 16             ***   
       CPHF_MAXCYC          ICPHFC             64              cycles 
       CUBIC                ICUBIC         OFF          [  0]   ***   
       CURVILINEAR          ICURVY            OFF       [  0]   ***   
       DBOC                 IDBOC          OFF          [  0]   ***   
       DCT                  IDCT           OFF          [  0]   ***   
       DERIV_LEV            IDRLVL            ZERO      [  0]   ***   
       DIAG_MRCC            IEOMST          10D-  0             ***   
       DIFF_TYPE            IDIFTY         RELAXED      [  0]   ***   
       DIRECT               IDIRCT         OFF          [  0]   ***   
       DROPMO               IDRPMO   1,  2,  3,  4,  5,  6,  7,  8,
                                     9, 10, 11,
       ECP                  IECP           OFF          [  0]   ***   
       EIGENVECTOR          IVEC                1               ***   
       EL_ANHARM            IELANH         OFF          [  0]   ***   
       EOMFOLLOW            IEOMSR         ENERGY       [  0]   ***   
       EOM_MRCC             IMRCCE         NEW          [  1]   ***   
       EOM_NONIT            EOMNON         OFF          [  0]   ***   
       EOM_NSING            IEOMSI          10D-  0             ***   
       EOM_NSTATES          IMRCCD         DAVIDSON     [  0]   ***   
       EOM_NTRIP            IEOMTR          10D-  0             ***   
       EOM_ORDER            IEXORD         ENERGY       [  0]   ***   
       ESTATE_CONV          IEXTOL          10D-  5             ***   
       ESTATE_DIAG          IEXDIG         ITERATIVE    [  0]   ***   
       ESTATE_LOCK          IESLOC         ON           [  1]   ***   
       ESTATE_MAXC          IEXMXC             20               ***   
       ESTATE_PROP          IEXPRP         OFF          [  0]   ***   
       EVAL_HESS            IRECAL              0            # of cyc.
       EXCITATION           IEXCIT              0               ***   
       EXCITE               IEXCIT         NONE         [  0]   ***   
       FCGRADNEW            IFCGNW         OFF          [  0]   ***   
       FC_FIELD             IFINFC              0             x 10-6  
       FD_CALTYPE           IFDCAL         GRADONLY     [  0]   ***   
       FD_PROJECT           IFDPRJ         OFF          [  1]   ***   
       FD_STEPSIZE          IDISFD              0            10-4 bohr
       FD_USEGROUP          IFDGRP         FULL         [  0]   ***   
       FILE_RECSIZ          IFLREC              4096           words  
       FINITE_PERT          IFIPER              0             x 10-6  
       FIXGEOM              IFIXGM         OFF          [  0]   ***   
       FOCK                 IFOCK          AO           [  1]   ***   
       FREQ_ALGORI          IVIALG         STANDARD     [  0]   ***   
       FROZEN_CORE          IFROCO         OFF          [  0]   ***   
       FROZEN_VIRT          IFROVI         OFF          [  0]   ***   
       GAMMA_ABCD           IGABCD         STORE        [  0]   ***   
       GAMMA_ABCI           IGABCI         STORE        [  0]   ***   
       GENBAS_1             IGNBS1              0               ***   
       GENBAS_2             IGNBS2              0               ***   
       GENBAS_3             IGNBS3              0               ***   
       GENBAS_4             IGNBS4              0               ***   
       GEO_CONV             ICONTL              5              H/bohr 
       GEO_MAXCYC           IOPTCY             50               ***   
       GEO_MAXSTEP          IMXSTP            300            millibohr
       GEO_METHOD           INR            SINGLE_POINT [  5]   ***   
       GIAO                 IGIAO          OFF          [  1]   ***   
       GIMIC                IGIMIC         OFF          [  0]   ***   
       GRID                 IGRID          OFF          [  0]   ***   
       GRID_ALGO            IGALGO         SERIAL       [  0]   ***   
       GUESS                IGUESS            MOREAD    [  0]   ***   
       HBAR                 IHBAR              OFF      [  0]   ***   
       HESS_TYPE            IHESTP         SCF          [  0]   ***   
       HF2_FILE             IHF2Fl         USE          [  1]   ***   
       HFSTABILITY          ISTABL         OFF          [  0]   ***   
       INCORE               INCORE             OFF      [  0]   ***   
       INPUT_MRCC           IMRCC          OFF          [  0]   ***   
       INTEGRALS            INTTYP             VMOL     [  1]   ***   
       JODA_PRINT           IJPRNT              4               ***   
       LINDEP_TOL           ILINDP              8               ***   
       LINEQ_CONV           IZTACN          10D-  7           cycles  
       LINEQ_EXPOR          ILMAXD              5               ***   
       LINEQ_MAXCY          ILMAXC             50               ***   
       LINEQ_TYPE           ILTYPE         DIIS         [  1]   ***   
       LOCK_ORBOCC          ILOCOC             OFF      [  0]   ***   
       MEMORY_SIZE          IMEMSZ         *********           words  
       MEM_UNIT             IMEMU          GB           [  3]   ***   
       MRCC                 IMRCCC         OFF          [  0]   ***   
       MULTIPLICTY          IMULTP              1               ***   
       NEGEVAL              IDIE             ABORT      [  0]   ***   
       NEWNORM              INEWNO         OFF          [  0]   ***   
       NON-HF               INONHF             OFF      [  0]   ***   
       NTOP_TAMP            ITOPT2             15               ***   
       NUC_MODEL            INUCMO         POINT        [  0]   ***   
       OCCUPATION           IOCCU   ESTIMATED BY SCF 
       OPEN-SHELL           IOPEN          SPIN-ORBITAL [  0]   ***   
       ORBITALS             IORBTP           STANDARD   [  0]   ***   
       PARALLEL             IPARAL         ON           [  1]   ***   
       PARA_INT             IPINTS         ON           [  1]   ***   
       PARA_PRINT           IPPRIN              0               ***   
       PERT_ORB             IPTORB         STANDARD     [  0]   ***   
       POINTS               IGRDFD              0               ***   
       PRINT                IPRNT               4               ***   
       PROPS                IPROPS             OFF      [  0]   ***   
       PROP_INTEGR          IINTYP         INTERNAL     [  0]   ***   
       PSI                  IPSI           OFF          [  0]   ***   
       QUARTIC              IQUART         OFF          [  0]   ***   
       RAMAN_INT            IRAMIN         OFF          [  0]   ***   
       RAMAN_ORB            IRAMRE         UNRELAXED    [  0]   ***   
       RDO                  IRDOFM             OFF      [  0]   ***   
       REFERENCE            IREFNC             RHF      [  0]   ***   
       RELATIVIST           IRELAT         OFF          [  0]   ***   
       RELAX_DENS           IRDENS             OFF      [  0]   ***   
       RESET_FLAGS          IRESET             OFF      [  0]   ***   
       RESTART_CC           ICCRES         OFF          [  0]   ***   
       ROT_EVEC             ROTVEC              0               ***   
       SAVE_INTS            ISVINT              ON      [  1]   ***   
       SCALE_ON             ISTCRT              0               ***   
       SCF_CONV             ISCFCV          10D- 11             ***   
       SCF_DAMPING          IDAMP               0             x 10-3  
       SCF_EXPORDE          IRPPOR              6               ***   
       SCF_EXPSTAR          IRPPLS              5               ***   
       SCF_EXTRAPO          IRPP                ON      [  1]   ***   
       SCF_MAXCYC           ISCFCY            ***              cycles 
       SCF_NOSTOP           ISCFST         OFF          [  0]   ***   
       SCF_PRINT            ISCFPR              0               ***   
       SD_FIELD             IFINSD              0             x 10-6  
       SEQUENCE             ISEQUE         OFF          [  0]   ***   
       SOPERT               IPERSO         OFF          [  0]   ***   
       SPHERICAL            IDFGHI             ON       [  1]   ***   
       SPINORBIT            ISOCAL         OFF          [  0]   ***   
       SPINROTATIO          ISRCON         OFF          [  0]   ***   
       SPIN_FLIP            ISPFLP         OFF          [  0]   ***   
       SPIN_ORBIT           ISPORB         OFF          [  0]   ***   
       SPIN_SCAL            ISCSMP         OFF          [  0]   ***   
       SUBGROUP             ISUBGP         DEFAULT      [  0]   ***   
       SUBGRPAXIS           ISBXYZ         X            [  0]   ***   
       SYMMETRY             ISYM             ON         [  0]   ***   
       SYM_CHECK            ISYMCK         OVERRIDE     [  1]   ***   
       T3_EXTRAPOL          IT3EXT         ON           [  1]   ***   
       TAMP_SUM             IEVERY              5               ***   
       TESTSUITE            ITESTS         OFF          [  0]   ***   
       THERMOCH             ITHERM         OFF          [  0]   ***   
       TOL_CHOLESK          ITOLCH          10D-  4             ***   
       TRANGRAD             IRESRM         OFF          [  0]   ***   
       TRANS_INV            ITRAIN         USE          [  0]   ***   
       TREAT_PERT           ITREAT         SIMULTANEOUS [  0]   ***   
       UIJ_THRESHO          IUIJTH              1               ***   
       UNITS                IUNITS         BOHR         [  1]   ***   
       UNOS                 IUNOS          OFF          [  0]   ***   
       UPDATE_HESS          IHUPDT         ON           [  1]   ***   
       VIBPHASE             ISETPH         STANDARD     [  0]   ***   
       VIBRATION            IVIB              NO        [  0]   ***   
       VIB_ALGORIT          IGEALG         STANDARD     [  0]   ***   
       VNATORB              IVNORB         OFF          [  0]   ***   
       VTRAN                IVTRAN         FULL/PARTIAL [  0]   ***   
       XFIELD               IXEFLD              0             x 10-6  
       XFORM_TOL            IXFTOL          10D- 18             ***   
       YFIELD               IYEFLD              0             x 10-6  
       ZFIELD               IZEFLD              0             x 10-6  
    -------------------------------------------------------------------
   4 entries found in Z-matrix 
   Job Title : TITLE                                                                           
 Variable names read by FETCHZ
  1           
  2           
  3           
  4 R         
  5           
  6           
  7 RDUM      
  8 A90       
  9           
 10 R         
 11 A90       
 12 D180      
 Atomic symbols read by FETCHZ
  1 C    
  2 S    
  3 X    
  4 S    
 Connectivity matrix read by FETCHZ
  1   0
  2   0
  3   0
  4   1
  5   0
  6   0
  7   1
  8   2
  9   0
 10   1
 11   3
 12   2
   There are  4 unique internal coordinates.
   Of these,  0 will be optimized.
   User supplied Z-matrix: 
--------------------------------------------------------------------------------
       SYMBOL    BOND      LENGTH    ANGLE     ANGLE     DIHED     ANGLE
                  TO      (ANGST)    WRT      (DEG)      WRT      (DEG)
--------------------------------------------------------------------------------
        C    
        S          1         R    
        X          1         RDUM       2        A90  
        S          1         R          3        A90        2        D180 
                  *Initial values for internal coordinates* 
                      Name             Value
                        R               2.9339887811
                        RDUM            1.0000000000
                        A90            90.0000000000
                        D180          180.0000000000
--------------------------------------------------------------------------------
  1  C          6    12.00000
  2  S         16    31.97207
  3  X          0     0.00000
  4  S         16    31.97207
   12.0000000000
   31.9720707000
    0.0000000000
   31.9720707000
 After translation to center of mass coordinates 
       -0.000000000000   -0.000000000000    0.000000000000
       -0.000000000000   -0.000000000000    2.933988781090
        1.000000000000   -0.000000000000    0.000000000000
        0.000000000000    0.000000000000   -2.933988781090
  Inertia tensor (amu*bohr**2)
  550.44972   -0.00000    0.00000
   -0.00000  550.44972    0.00000
    0.00000    0.00000    0.00000
    Inertia tensor:
      550.449723686813   -0.000000000000    0.000000000000
       -0.000000000000  550.449723686813    0.000000000000
        0.000000000000    0.000000000000    0.000000000000
    Principal axis orientation for molecular system: 
        0.000000000000   -0.000000000000    0.000000000000
        0.000000000000   -0.000000000000   -2.933988781090
        0.707106781187    0.707106781187   -0.000000000000
       -0.000000000000    0.000000000000    2.933988781090
    Diagonalized inertia tensor:
      550.449723686813    0.000000000000    0.000000000000
        0.000000000000  550.449723686813    0.000000000000
        0.000000000000    0.000000000000    0.000000000000
    Eigenvectors of inertia tensor: 
        0.707106781187    0.707106781187    0.000000000000
       -0.707106781187    0.707106781187   -0.000000000000
        0.000000000000    0.000000000000   -1.000000000000
 factor:   60.1997200000000     
   Rotational constants (in cm-1): 
          0.1093646112             0.1093646112
   Rotational constants (in MHz): 
       3278.6690194377          3278.6690194377
  @SYMMETRY-I, Handedness of inertial frame:-1.00000
  @SYMMETRY-I, Sense of inertial frame y-axis will be changed.
  @SYMMETRY-I, The symmetry group is 2-fold degenerate.
  @SYMMETRY-I, The molecule belongs to a point group with doubly degenerate representations.
  @SYMMETRY-I, The molecule is linear.
   Principal axis orientation for molecule:
        0.000000000000    0.000000000000    0.000000000000
        0.000000000000    0.000000000000   -2.933988781090
        0.707106781187   -0.707106781187   -0.000000000000
       -0.000000000000   -0.000000000000    2.933988781090
   Reflection in plane  3 is a valid symmetry operation.
   Rotation about  3 is a valid symmetry operation 
   Reflection in plane  2 is a valid symmetry operation.
   Rotation about  2 is a valid symmetry operation 
   Reflection in plane  1 is a valid symmetry operation.
   Rotation about  1 is a valid symmetry operation 
   The molecule possesses an inversion center. 
  Symmetry bits:    7   7   1
********************************************************************************
   The full molecular point group is DXh .
   The largest Abelian subgroup of the full molecular point group is D2h .
   The computational point group is D2h .
********************************************************************************
--------------------------------------------------------------------------------
   Analysis of internal coordinates specified by Z-matrix 
--------------------------------------------------------------------------------
   *The nuclear repulsion energy is  109.066538380258379 a.u.
   *There are   2 degrees of freedom within the tot. symm. molecular subspace.
   *Z-matrix requests optimization of   0 coordinates.
   *The optimization is constrained.
   *The following   1 parameters can have non-zero 
    derivatives within the totally symmetric subspace:
             R    [ 1]
   *The following   0 parameters are to be optimized:

   *The following coordinates must be varied in an  unconstrained optimization.
             R    [ 1]
--------------------------------------------------------------------------------
 ----------------------------------------------------------------
 Z-matrix   Atomic            Coordinates (in bohr)
  Symbol    Number           X              Y              Z
 ----------------------------------------------------------------
     C         6         0.00000000     0.00000000     0.00000000
     S        16         0.00000000     0.00000000    -2.93398878
     X         0         0.70710678    -0.70710678    -0.00000000
     S        16        -0.00000000    -0.00000000     2.93398878
 ----------------------------------------------------------------
   Interatomic distance matrix (Angstroms) 
 
                 C             S             X             S    
                [ 1]        [ 2]        [ 3]        [ 4]
  C    [ 1]     0.00000
  S    [ 2]     1.55260     0.00000
  X    [ 3]     0.52918     1.64030     0.00000
  S    [ 4]     1.55260     3.10520     1.64030     0.00000
  Inertia tensor (amu*bohr**2)
  550.44972   -0.00000    0.00000
   -0.00000  550.44972    0.00000
    0.00000    0.00000    0.00000
   Rotational constants (in cm-1): 
          0.1093646112             0.0000000000
   Rotational constants (in MHz): 
       3278.6690194377             0.0000000000
  @GTFLGS-W, Keyword #GEOM not known and is ignored.
  @GTFLGS-W, Keyword #COORD not known and is ignored.
  @GTFLGS-W, Keyword #CC_PROG not known and is ignored.
  @GTFLGS-W, Keyword #FROZEN_CORE not known and is ignored.
  @GTFLGS-W, Keyword #CONTRACTION not known and is ignored.
  @GTFLGS-W, Keyword #EXCITE not known and is ignored.
  @GTFLGS-W, Keyword #ESTATE_CONV not known and is ignored.
  @GTFLGS-W, Keyword #ESTATE_SYM not known and is ignored.
  @GTFLGS-W, Keyword #SCF_DAMPING not known and is ignored.
  @GTFLGS-W, Keyword #SYMMETRY not known and is ignored.
  @GTFLGS-W, Keyword #HFSTABILITY not known and is ignored.
  @GTFLGS-W, Keyword #OCCUPATION not known and is ignored.
  There are  115 basis functions.
 @GEOPT-W, Archive file not created for single-point calculation.
  @CHECKOUT-I, Total execution time (CPU/WALL):        0.58/       1.23 seconds.
--executable xjoda finished with status     0 in        4.10 seconds (walltime).
 --invoking executable--
/home/nike/cfour_v2.00beta/cfour_v2.00beta/bin/xvmol
 Serial version of molecule started
********************************************************************************
                    Input from MOL file
********************************************************************************
INTGRL        1    0    1    0    0    0    0    0    0                         
         *** CFOUR Program System (Release V0.1) ***                            
TITLE                                                                           
    2    3 X  Y   Z   0.10E-08              0    0                              
   9999.00      3.00                                                            
          6.00000000    1    4    1    1    1    1                              
C #1   0.000000000000000   0.000000000000000   0.000000000000000                
   11    5                                                                      
   13575.3496820000       2.224581435200000E-004  0.000000000000000E+000        
  0.000000000000000E+000  0.000000000000000E+000  0.000000000000000E+000        
   2035.23336800000       1.723273825200000E-003  0.000000000000000E+000        
  0.000000000000000E+000  0.000000000000000E+000  0.000000000000000E+000        
   463.225623590000       8.925571531400001E-003  0.000000000000000E+000        
  0.000000000000000E+000  0.000000000000000E+000  0.000000000000000E+000        
   131.200195980000       3.572798450200000E-002  0.000000000000000E+000        
  0.000000000000000E+000  0.000000000000000E+000  0.000000000000000E+000        
   42.8530158910000       0.110762599310000       0.000000000000000E+000        
  0.000000000000000E+000  0.000000000000000E+000  0.000000000000000E+000        
   15.5841857660000       0.242956276260000       0.000000000000000E+000        
  0.000000000000000E+000  0.000000000000000E+000  0.000000000000000E+000        
   6.20671385080000       0.000000000000000E+000  0.414402634480000             
  0.000000000000000E+000  0.000000000000000E+000  0.000000000000000E+000        
   2.57648965270000       0.000000000000000E+000  0.237449686550000             
  0.000000000000000E+000  0.000000000000000E+000  0.000000000000000E+000        
  0.576963394190000       0.000000000000000E+000  0.000000000000000E+000        
   1.00000000000000       0.000000000000000E+000  0.000000000000000E+000        
  0.229728313580000       0.000000000000000E+000  0.000000000000000E+000        
  0.000000000000000E+000   1.00000000000000       0.000000000000000E+000        
  9.516444002799999E-002  0.000000000000000E+000  0.000000000000000E+000        
  0.000000000000000E+000  0.000000000000000E+000   1.00000000000000             
    6    3                                                                      
   34.6972322440000       5.333365780500000E-003  0.000000000000000E+000        
  0.000000000000000E+000                                                        
   7.95826228260000       3.586410909200000E-002  0.000000000000000E+000        
  0.000000000000000E+000                                                        
   2.37808268830000       0.142158733290000       0.000000000000000E+000        
  0.000000000000000E+000                                                        
  0.814332081830000       0.342704718450000       0.000000000000000E+000        
  0.000000000000000E+000                                                        
  0.288875472530000       0.000000000000000E+000  0.464458224330000             
  0.000000000000000E+000                                                        
  0.100568236710000       0.000000000000000E+000  0.000000000000000E+000        
  0.249557898740000                                                             
    2    2                                                                      
   1.09700000000000        1.00000000000000       0.000000000000000E+000        
  0.318000000000000       0.000000000000000E+000   1.00000000000000             
    1    1                                                                      
  0.761000000000000        1.00000000000000                                     
         16.00000000    1    4    1    1    1    1                              
S #2   0.000000000000000   0.000000000000000  -2.933988781090000                
   14    5                                                                      
   60700.9281040000       5.469594422500000E-004  0.000000000000000E+000        
  0.000000000000000E+000  0.000000000000000E+000  0.000000000000000E+000        
   9102.61068540000       4.229722455700000E-003  0.000000000000000E+000        
  0.000000000000000E+000  0.000000000000000E+000  0.000000000000000E+000        
   2071.41660090000       2.174782415900000E-002  0.000000000000000E+000        
  0.000000000000000E+000  0.000000000000000E+000  0.000000000000000E+000        
   586.024768210000       8.510005358900000E-002  0.000000000000000E+000        
  0.000000000000000E+000  0.000000000000000E+000  0.000000000000000E+000        
   190.553950210000       0.247991284590000       0.000000000000000E+000        
  0.000000000000000E+000  0.000000000000000E+000  0.000000000000000E+000        
   67.6303842600000       0.467036404060000       0.000000000000000E+000        
  0.000000000000000E+000  0.000000000000000E+000  0.000000000000000E+000        
   25.1273069050000       0.364345875500000       0.000000000000000E+000        
  0.000000000000000E+000  0.000000000000000E+000  0.000000000000000E+000        
   112.574630100000       0.000000000000000E+000  2.167004024000000E-002        
  0.000000000000000E+000  0.000000000000000E+000  0.000000000000000E+000        
   34.7955542170000       0.000000000000000E+000  9.360230176000001E-002        
  0.000000000000000E+000  0.000000000000000E+000  0.000000000000000E+000        
   6.51155562150000       0.000000000000000E+000 -0.260680014220000             
  0.000000000000000E+000  0.000000000000000E+000  0.000000000000000E+000        
   3.23990322610000       0.000000000000000E+000  0.000000000000000E+000        
   1.28420894350000       0.000000000000000E+000  0.000000000000000E+000        
   1.54771608810000       0.000000000000000E+000  0.000000000000000E+000        
  0.660364165840000       0.000000000000000E+000  0.000000000000000E+000        
  0.405410301120000       0.000000000000000E+000  0.000000000000000E+000        
  0.000000000000000E+000   1.00000000000000       0.000000000000000E+000        
  0.145506510590000       0.000000000000000E+000  0.000000000000000E+000        
  0.000000000000000E+000  0.000000000000000E+000   1.00000000000000             
    9    5                                                                      
   564.367160270000       2.479679631700000E-003  0.000000000000000E+000        
  0.000000000000000E+000  0.000000000000000E+000  0.000000000000000E+000        
   133.426243790000       1.967793025000000E-002  0.000000000000000E+000        
  0.000000000000000E+000  0.000000000000000E+000  0.000000000000000E+000        
   42.4682711890000       8.998000825800000E-002  0.000000000000000E+000        
  0.000000000000000E+000  0.000000000000000E+000  0.000000000000000E+000        
   15.6165275800000       0.257058805750000       0.000000000000000E+000        
  0.000000000000000E+000  0.000000000000000E+000  0.000000000000000E+000        
   6.10939884690000       0.435151672920000       0.000000000000000E+000        
  0.000000000000000E+000  0.000000000000000E+000  0.000000000000000E+000        
   2.44041601980000       0.000000000000000E+000  0.348832405950000             
  0.000000000000000E+000  0.000000000000000E+000  0.000000000000000E+000        
  0.838822012960000       0.000000000000000E+000  0.000000000000000E+000        
   1.00000000000000       0.000000000000000E+000  0.000000000000000E+000        
  0.312887469000000       0.000000000000000E+000  0.000000000000000E+000        
  0.000000000000000E+000   1.00000000000000       0.000000000000000E+000        
  0.107701090040000       0.000000000000000E+000  0.000000000000000E+000        
  0.000000000000000E+000  0.000000000000000E+000   1.00000000000000             
    3    3                                                                      
  0.273000000000000        1.00000000000000       0.000000000000000E+000        
  0.000000000000000E+000                                                        
   3.75600000000000       0.000000000000000E+000   1.00000000000000             
  0.000000000000000E+000                                                        
  0.812000000000000       0.000000000000000E+000  0.000000000000000E+000        
   1.00000000000000                                                             
    1    1                                                                      
  0.557000000000000        1.00000000000000                                     
FINISH                                                                          
 
********************************************************************************
 One- and two-electron integrals over symmetry-adapted AOs are calculated.

  Spherical harmonics are used.
  
   2 types of atoms
   3 symmetry operations

   Reflection in the YZ-plane
   Reflection in the XZ-plane
   Reflection in the XY-plane
  
  Integrals less than  0.10E-13 are neglected.

  Atomic type number  1 :
  -----------------------

    Nuclear charge:                        6
    number of symmetry independent atoms:  1
    highest orbital type:                  f

      1 groups of CGTOs of s type
      1 groups of CGTOs of p type
      1 groups of CGTOs of d type
      1 groups of CGTOs of f type

    nuclear coordinates (in a.u.) are :

    C #1        0.000000000000000        0.000000000000000        0.000000000000000
  
   Basis function not normalized: 
   Center (as ordered in MOL file):   1
   Angular Momentum type          : s
   Offset within angular momentum :  1
   <chi|chi>                      :    2.7261534527
   Basis function not normalized: 
   Center (as ordered in MOL file):   1
   Angular Momentum type          : s
   Offset within angular momentum :  2
   <chi|chi>                      :    1.5828883092
   Basis function not normalized: 
   Center (as ordered in MOL file):   1
   Angular Momentum type          : p
   Offset within angular momentum :  1
   <chi|chi>                      :    2.1238408295
   Basis function not normalized: 
   Center (as ordered in MOL file):   1
   Angular Momentum type          : p
   Offset within angular momentum :  2
   <chi|chi>                      :    2.1530461678
   Basis function not normalized: 
   Center (as ordered in MOL file):   1
   Angular Momentum type          : p
   Offset within angular momentum :  3
   <chi|chi>                      :    4.0070861513
  Atomic type number  2 :
  -----------------------

    Nuclear charge:                       16
    number of symmetry independent atoms:  1
    highest orbital type:                  f

      1 groups of CGTOs of s type
      1 groups of CGTOs of p type
      1 groups of CGTOs of d type
      1 groups of CGTOs of f type

    nuclear coordinates (in a.u.) are :

    S #2        0.000000000000000        0.000000000000000       -2.933988781090000
  
   Basis function not normalized: 
   Center (as ordered in MOL file):   2
   Angular Momentum type          : s
   Offset within angular momentum :  1
   <chi|chi>                      :    0.9576592130
   Basis function not normalized: 
   Center (as ordered in MOL file):   2
   Angular Momentum type          : s
   Offset within angular momentum :  2
   <chi|chi>                      :    4.6356950771
   Basis function not normalized: 
   Center (as ordered in MOL file):   2
   Angular Momentum type          : s
   Offset within angular momentum :  3
   <chi|chi>                      :    0.5256008359
   Basis function not normalized: 
   Center (as ordered in MOL file):   2
   Angular Momentum type          : p
   Offset within angular momentum :  1
   <chi|chi>                      :    1.4069125377
   Basis function not normalized: 
   Center (as ordered in MOL file):   2
   Angular Momentum type          : p
   Offset within angular momentum :  2
   <chi|chi>                      :    2.8667061401
   Internuclear distances (A) :

     for atom C #1 (coordinates :   0.00000   0.00000   0.00000)

     S #2   1     distance is  1.553

     for atom S #2 (coordinates :   0.00000   0.00000  -2.93399)

     S #2   5     distance is  3.105

   Group multiplication table :

         1   2   3   4   5   6   7   8
         2   1   4   3   6   5   8   7
         3   4   1   2   7   8   5   6
         4   3   2   1   8   7   6   5
         5   6   7   8   1   2   3   4
         6   5   8   7   2   1   4   3
         7   8   5   6   3   4   1   2
         8   7   6   5   4   3   2   1

   Gaussian basis information :

   atom                 exponent      coefficients

 C #1  1    S   
+                 1   13575.349682   0.0002225   0.0000000   0.0000000   0.0000000   0.0000000
                  2    2035.233368   0.0017233   0.0000000   0.0000000   0.0000000   0.0000000
                  3     463.225624   0.0089256   0.0000000   0.0000000   0.0000000   0.0000000
                  4     131.200196   0.0357280   0.0000000   0.0000000   0.0000000   0.0000000
                  5      42.853016   0.1107626   0.0000000   0.0000000   0.0000000   0.0000000
                  6      15.584186   0.2429563   0.0000000   0.0000000   0.0000000   0.0000000
                  7       6.206714   0.0000000   0.4144026   0.0000000   0.0000000   0.0000000
                  8       2.576490   0.0000000   0.2374497   0.0000000   0.0000000   0.0000000
                  9       0.576963   0.0000000   0.0000000   1.0000000   0.0000000   0.0000000
                 10       0.229728   0.0000000   0.0000000   0.0000000   1.0000000   0.0000000
                 11       0.095164   0.0000000   0.0000000   0.0000000   0.0000000   1.0000000

 C #1  1    X   
+                12      34.697232   0.0053334   0.0000000   0.0000000
                 13       7.958262   0.0358641   0.0000000   0.0000000
                 14       2.378083   0.1421587   0.0000000   0.0000000
                 15       0.814332   0.3427047   0.0000000   0.0000000
                 16       0.288875   0.0000000   0.4644582   0.0000000
                 17       0.100568   0.0000000   0.0000000   0.2495579

 C #1  1    Y   
+                18      34.697232   0.0053334   0.0000000   0.0000000
                 19       7.958262   0.0358641   0.0000000   0.0000000
                 20       2.378083   0.1421587   0.0000000   0.0000000
                 21       0.814332   0.3427047   0.0000000   0.0000000
                 22       0.288875   0.0000000   0.4644582   0.0000000
                 23       0.100568   0.0000000   0.0000000   0.2495579

 C #1  1    Z   
+                24      34.697232   0.0053334   0.0000000   0.0000000
                 25       7.958262   0.0358641   0.0000000   0.0000000
                 26       2.378083   0.1421587   0.0000000   0.0000000
                 27       0.814332   0.3427047   0.0000000   0.0000000
                 28       0.288875   0.0000000   0.4644582   0.0000000
                 29       0.100568   0.0000000   0.0000000   0.2495579

 C #1  1    XX  
+                30       1.097000   1.0000000   0.0000000
                 31       0.318000   0.0000000   1.0000000

 C #1  1    XY  
+                32       1.097000   1.0000000   0.0000000
                 33       0.318000   0.0000000   1.0000000

 C #1  1    XZ  
+                34       1.097000   1.0000000   0.0000000
                 35       0.318000   0.0000000   1.0000000

 C #1  1    YY  
+                36       1.097000   1.0000000   0.0000000
                 37       0.318000   0.0000000   1.0000000

 C #1  1    YZ  
+                38       1.097000   1.0000000   0.0000000
                 39       0.318000   0.0000000   1.0000000

 C #1  1    ZZ  
+                40       1.097000   1.0000000   0.0000000
                 41       0.318000   0.0000000   1.0000000

 C #1  1    F300
+                42       0.761000   1.0000000

 C #1  1    F210
+                43       0.761000   1.0000000

 C #1  1    F201
+                44       0.761000   1.0000000

 C #1  1    F120
+                45       0.761000   1.0000000

 C #1  1    F111
+                46       0.761000   1.0000000

 C #1  1    F102
+                47       0.761000   1.0000000

 C #1  1    F030
+                48       0.761000   1.0000000

 C #1  1    F021
+                49       0.761000   1.0000000

 C #1  1    F012
+                50       0.761000   1.0000000

 C #1  1    F003
+                51       0.761000   1.0000000

 S #2  1    S   
+                52   60700.928104   0.0005470   0.0000000   0.0000000   0.0000000   0.0000000
                 53    9102.610685   0.0042297   0.0000000   0.0000000   0.0000000   0.0000000
                 54    2071.416601   0.0217478   0.0000000   0.0000000   0.0000000   0.0000000
                 55     586.024768   0.0851001   0.0000000   0.0000000   0.0000000   0.0000000
                 56     190.553950   0.2479913   0.0000000   0.0000000   0.0000000   0.0000000
                 57      67.630384   0.4670364   0.0000000   0.0000000   0.0000000   0.0000000
                 58      25.127307   0.3643459   0.0000000   0.0000000   0.0000000   0.0000000
                 59     112.574630   0.0000000   0.0216700   0.0000000   0.0000000   0.0000000
                 60      34.795554   0.0000000   0.0936023   0.0000000   0.0000000   0.0000000
                 61       6.511556   0.0000000  -0.2606800   0.0000000   0.0000000   0.0000000
                 62       3.239903   0.0000000   0.0000000   1.2842089   0.0000000   0.0000000
                 63       1.547716   0.0000000   0.0000000   0.6603642   0.0000000   0.0000000
                 64       0.405410   0.0000000   0.0000000   0.0000000   1.0000000   0.0000000
                 65       0.145507   0.0000000   0.0000000   0.0000000   0.0000000   1.0000000

 S #2  5    S   
+                66   60700.928104   0.0005470   0.0000000   0.0000000   0.0000000   0.0000000
                 67    9102.610685   0.0042297   0.0000000   0.0000000   0.0000000   0.0000000
                 68    2071.416601   0.0217478   0.0000000   0.0000000   0.0000000   0.0000000
                 69     586.024768   0.0851001   0.0000000   0.0000000   0.0000000   0.0000000
                 70     190.553950   0.2479913   0.0000000   0.0000000   0.0000000   0.0000000
                 71      67.630384   0.4670364   0.0000000   0.0000000   0.0000000   0.0000000
                 72      25.127307   0.3643459   0.0000000   0.0000000   0.0000000   0.0000000
                 73     112.574630   0.0000000   0.0216700   0.0000000   0.0000000   0.0000000
                 74      34.795554   0.0000000   0.0936023   0.0000000   0.0000000   0.0000000
                 75       6.511556   0.0000000  -0.2606800   0.0000000   0.0000000   0.0000000
                 76       3.239903   0.0000000   0.0000000   1.2842089   0.0000000   0.0000000
                 77       1.547716   0.0000000   0.0000000   0.6603642   0.0000000   0.0000000
                 78       0.405410   0.0000000   0.0000000   0.0000000   1.0000000   0.0000000
                 79       0.145507   0.0000000   0.0000000   0.0000000   0.0000000   1.0000000

 S #2  1    X   
+                80     564.367160   0.0024797   0.0000000   0.0000000   0.0000000   0.0000000
                 81     133.426244   0.0196779   0.0000000   0.0000000   0.0000000   0.0000000
                 82      42.468271   0.0899800   0.0000000   0.0000000   0.0000000   0.0000000
                 83      15.616528   0.2570588   0.0000000   0.0000000   0.0000000   0.0000000
                 84       6.109399   0.4351517   0.0000000   0.0000000   0.0000000   0.0000000
                 85       2.440416   0.0000000   0.3488324   0.0000000   0.0000000   0.0000000
                 86       0.838822   0.0000000   0.0000000   1.0000000   0.0000000   0.0000000
                 87       0.312887   0.0000000   0.0000000   0.0000000   1.0000000   0.0000000
                 88       0.107701   0.0000000   0.0000000   0.0000000   0.0000000   1.0000000

 S #2  5    X   
+                89     564.367160   0.0024797   0.0000000   0.0000000   0.0000000   0.0000000
                 90     133.426244   0.0196779   0.0000000   0.0000000   0.0000000   0.0000000
                 91      42.468271   0.0899800   0.0000000   0.0000000   0.0000000   0.0000000
                 92      15.616528   0.2570588   0.0000000   0.0000000   0.0000000   0.0000000
                 93       6.109399   0.4351517   0.0000000   0.0000000   0.0000000   0.0000000
                 94       2.440416   0.0000000   0.3488324   0.0000000   0.0000000   0.0000000
                 95       0.838822   0.0000000   0.0000000   1.0000000   0.0000000   0.0000000
                 96       0.312887   0.0000000   0.0000000   0.0000000   1.0000000   0.0000000
                 97       0.107701   0.0000000   0.0000000   0.0000000   0.0000000   1.0000000

 S #2  1    Y   
+                98     564.367160   0.0024797   0.0000000   0.0000000   0.0000000   0.0000000
                 99     133.426244   0.0196779   0.0000000   0.0000000   0.0000000   0.0000000
                100      42.468271   0.0899800   0.0000000   0.0000000   0.0000000   0.0000000
                101      15.616528   0.2570588   0.0000000   0.0000000   0.0000000   0.0000000
                102       6.109399   0.4351517   0.0000000   0.0000000   0.0000000   0.0000000
                103       2.440416   0.0000000   0.3488324   0.0000000   0.0000000   0.0000000
                104       0.838822   0.0000000   0.0000000   1.0000000   0.0000000   0.0000000
                105       0.312887   0.0000000   0.0000000   0.0000000   1.0000000   0.0000000
                106       0.107701   0.0000000   0.0000000   0.0000000   0.0000000   1.0000000

 S #2  5    Y   
+               107     564.367160   0.0024797   0.0000000   0.0000000   0.0000000   0.0000000
                108     133.426244   0.0196779   0.0000000   0.0000000   0.0000000   0.0000000
                109      42.468271   0.0899800   0.0000000   0.0000000   0.0000000   0.0000000
                110      15.616528   0.2570588   0.0000000   0.0000000   0.0000000   0.0000000
                111       6.109399   0.4351517   0.0000000   0.0000000   0.0000000   0.0000000
                112       2.440416   0.0000000   0.3488324   0.0000000   0.0000000   0.0000000
                113       0.838822   0.0000000   0.0000000   1.0000000   0.0000000   0.0000000
                114       0.312887   0.0000000   0.0000000   0.0000000   1.0000000   0.0000000
                115       0.107701   0.0000000   0.0000000   0.0000000   0.0000000   1.0000000

 S #2  1    Z   
+               116     564.367160   0.0024797   0.0000000   0.0000000   0.0000000   0.0000000
                117     133.426244   0.0196779   0.0000000   0.0000000   0.0000000   0.0000000
                118      42.468271   0.0899800   0.0000000   0.0000000   0.0000000   0.0000000
                119      15.616528   0.2570588   0.0000000   0.0000000   0.0000000   0.0000000
                120       6.109399   0.4351517   0.0000000   0.0000000   0.0000000   0.0000000
                121       2.440416   0.0000000   0.3488324   0.0000000   0.0000000   0.0000000
                122       0.838822   0.0000000   0.0000000   1.0000000   0.0000000   0.0000000
                123       0.312887   0.0000000   0.0000000   0.0000000   1.0000000   0.0000000
                124       0.107701   0.0000000   0.0000000   0.0000000   0.0000000   1.0000000

 S #2  5    Z   
+               125     564.367160   0.0024797   0.0000000   0.0000000   0.0000000   0.0000000
                126     133.426244   0.0196779   0.0000000   0.0000000   0.0000000   0.0000000
                127      42.468271   0.0899800   0.0000000   0.0000000   0.0000000   0.0000000
                128      15.616528   0.2570588   0.0000000   0.0000000   0.0000000   0.0000000
                129       6.109399   0.4351517   0.0000000   0.0000000   0.0000000   0.0000000
                130       2.440416   0.0000000   0.3488324   0.0000000   0.0000000   0.0000000
                131       0.838822   0.0000000   0.0000000   1.0000000   0.0000000   0.0000000
                132       0.312887   0.0000000   0.0000000   0.0000000   1.0000000   0.0000000
                133       0.107701   0.0000000   0.0000000   0.0000000   0.0000000   1.0000000

 S #2  1    XX  
+               134       0.273000   1.0000000   0.0000000   0.0000000
                135       3.756000   0.0000000   1.0000000   0.0000000
                136       0.812000   0.0000000   0.0000000   1.0000000

 S #2  5    XX  
+               137       0.273000   1.0000000   0.0000000   0.0000000
                138       3.756000   0.0000000   1.0000000   0.0000000
                139       0.812000   0.0000000   0.0000000   1.0000000

 S #2  1    XY  
+               140       0.273000   1.0000000   0.0000000   0.0000000
                141       3.756000   0.0000000   1.0000000   0.0000000
                142       0.812000   0.0000000   0.0000000   1.0000000

 S #2  5    XY  
+               143       0.273000   1.0000000   0.0000000   0.0000000
                144       3.756000   0.0000000   1.0000000   0.0000000
                145       0.812000   0.0000000   0.0000000   1.0000000

 S #2  1    XZ  
+               146       0.273000   1.0000000   0.0000000   0.0000000
                147       3.756000   0.0000000   1.0000000   0.0000000
                148       0.812000   0.0000000   0.0000000   1.0000000

 S #2  5    XZ  
+               149       0.273000   1.0000000   0.0000000   0.0000000
                150       3.756000   0.0000000   1.0000000   0.0000000
                151       0.812000   0.0000000   0.0000000   1.0000000

 S #2  1    YY  
+               152       0.273000   1.0000000   0.0000000   0.0000000
                153       3.756000   0.0000000   1.0000000   0.0000000
                154       0.812000   0.0000000   0.0000000   1.0000000

 S #2  5    YY  
+               155       0.273000   1.0000000   0.0000000   0.0000000
                156       3.756000   0.0000000   1.0000000   0.0000000
                157       0.812000   0.0000000   0.0000000   1.0000000

 S #2  1    YZ  
+               158       0.273000   1.0000000   0.0000000   0.0000000
                159       3.756000   0.0000000   1.0000000   0.0000000
                160       0.812000   0.0000000   0.0000000   1.0000000

 S #2  5    YZ  
+               161       0.273000   1.0000000   0.0000000   0.0000000
                162       3.756000   0.0000000   1.0000000   0.0000000
                163       0.812000   0.0000000   0.0000000   1.0000000

 S #2  1    ZZ  
+               164       0.273000   1.0000000   0.0000000   0.0000000
                165       3.756000   0.0000000   1.0000000   0.0000000
                166       0.812000   0.0000000   0.0000000   1.0000000

 S #2  5    ZZ  
+               167       0.273000   1.0000000   0.0000000   0.0000000
                168       3.756000   0.0000000   1.0000000   0.0000000
                169       0.812000   0.0000000   0.0000000   1.0000000

 S #2  1    F300
+               170       0.557000   1.0000000

 S #2  5    F300
+               171       0.557000   1.0000000

 S #2  1    F210
+               172       0.557000   1.0000000

 S #2  5    F210
+               173       0.557000   1.0000000

 S #2  1    F201
+               174       0.557000   1.0000000

 S #2  5    F201
+               175       0.557000   1.0000000

 S #2  1    F120
+               176       0.557000   1.0000000

 S #2  5    F120
+               177       0.557000   1.0000000

 S #2  1    F111
+               178       0.557000   1.0000000

 S #2  5    F111
+               179       0.557000   1.0000000

 S #2  1    F102
+               180       0.557000   1.0000000

 S #2  5    F102
+               181       0.557000   1.0000000

 S #2  1    F030
+               182       0.557000   1.0000000

 S #2  5    F030
+               183       0.557000   1.0000000

 S #2  1    F021
+               184       0.557000   1.0000000

 S #2  5    F021
+               185       0.557000   1.0000000

 S #2  1    F012
+               186       0.557000   1.0000000

 S #2  5    F012
+               187       0.557000   1.0000000

 S #2  1    F003
+               188       0.557000   1.0000000

 S #2  5    F003
+               189       0.557000   1.0000000
132115
  1  2  3  4  5  6  7  8  9****** 10 11 12 13 14 15 16 17 18 19 20 21 22 23
 24 25********* 26 27*** 28 29 30 31 32*** 33 34 35 36 37 38 39 40 41 42***
 43 44 45 46 47*** 48 49 50 51 52 53 54 55 56 57*** 58 59 60 61 62 63 64 65
 66 67 68*** 69 70 71 72 73 74 75 76 77 78 79 80 81 82 83 84********* 85 86
*** 87 88 89 90 91 92 93 94 95 96 97 98*** 99100101102103104105106107108109
110***111112113114115
1

             SYMMETRY TRANSFORMATION INFO
            115 SYMMETRY ADAPTED BASIS FUNCTIONS 


          irreducible representation number 1

    1    1  C #1     1s     1   1   1.0
    2    2  C #1     1s     1   2   1.0
    3    3  C #1     1s     1   3   1.0
    4    4  C #1     1s     1   4   1.0
    5    5  C #1     1s     1   5   1.0
    6    6  C #1     3d2-   3  15  -1.0  21  -1.0  25   2.0
    7    7  C #1     3d2-   3  16  -1.0  22  -1.0  26   2.0
    8    8  C #1     3d1+   2  15   1.0  21  -1.0
    9    9  C #1     3d1+   2  16   1.0  22  -1.0
   10   10  S #2     1s     2  37   1.0  38   1.0
   11   11  S #2     1s     2  39   1.0  40   1.0
   12   12  S #2     1s     2  41   1.0  42   1.0
   13   13  S #2     1s     2  43   1.0  44   1.0
   14   14  S #2     1s     2  45   1.0  46   1.0
   15   15  S #2     2pz    2  67   1.0  68  -1.0
   16   16  S #2     2pz    2  69   1.0  70  -1.0
   17   17  S #2     2pz    2  71   1.0  72  -1.0
   18   18  S #2     2pz    2  73   1.0  74  -1.0
   19   19  S #2     2pz    2  75   1.0  76  -1.0
   20   20  S #2     3d2-   6  77  -1.0  95  -1.0 107   2.0  78  -1.0  96  -1.0 108   2.0
   21   21  S #2     3d2-   6  79  -1.0  97  -1.0 109   2.0  80  -1.0  98  -1.0 110   2.0
   22   22  S #2     3d2-   6  81  -1.0  99  -1.0 111   2.0  82  -1.0 100  -1.0 112   2.0
   23   23  S #2     3d1+   4  77   1.0  95  -1.0  78   1.0  96  -1.0
   24   24  S #2     3d1+   4  79   1.0  97  -1.0  80   1.0  98  -1.0
   25   25  S #2     3d1+   4  81   1.0  99  -1.0  82   1.0 100  -1.0
   26   26  S #2     4f1-   6 117  -3.0 127  -3.0 131   2.0 118   3.0 128   3.0 132  -2.0
   27   27  S #2     4f3+   4 117   1.0 127  -1.0 118  -1.0 128   1.0


          irreducible representation number 2

   28    1  C #1     2px    1   6   1.0
   29    2  C #1     2px    1   7   1.0
   30    3  C #1     2px    1   8   1.0
   31    4  C #1     4f3-   3  27  -1.0  30  -1.0  32   4.0
   32    5  C #1     4f0    2  27   1.0  30  -3.0
   33    6  S #2     2px    2  47   1.0  48   1.0
   34    7  S #2     2px    2  49   1.0  50   1.0
   35    8  S #2     2px    2  51   1.0  52   1.0
   36    9  S #2     2px    2  53   1.0  54   1.0
   37   10  S #2     2px    2  55   1.0  56   1.0
   38   11  S #2     3d0    2  89   1.0  90  -1.0
   39   12  S #2     3d0    2  91   1.0  92  -1.0
   40   13  S #2     3d0    2  93   1.0  94  -1.0
   41   14  S #2     4f3-   6 113  -1.0 119  -1.0 123   4.0 114  -1.0 120  -1.0 124   4.0
   42   15  S #2     4f0    4 113   1.0 119  -3.0 114   1.0 120  -3.0


          irreducible representation number 3

   43    1  C #1     2py    1   9   1.0
   44    2  C #1     2py    1  10   1.0
   45    3  C #1     2py    1  11   1.0
   46    4  C #1     4f2-   3  28  -1.0  33  -1.0  35   4.0
   47    5  C #1     4f2+   2  28   3.0  33  -1.0
   48    6  S #2     2py    2  57   1.0  58   1.0
   49    7  S #2     2py    2  59   1.0  60   1.0
   50    8  S #2     2py    2  61   1.0  62   1.0
   51    9  S #2     2py    2  63   1.0  64   1.0
   52   10  S #2     2py    2  65   1.0  66   1.0
   53   11  S #2     3d2+   2 101   1.0 102  -1.0
   54   12  S #2     3d2+   2 103   1.0 104  -1.0
   55   13  S #2     3d2+   2 105   1.0 106  -1.0
   56   14  S #2     4f2-   6 115  -1.0 125  -1.0 129   4.0 116  -1.0 126  -1.0 130   4.0
   57   15  S #2     4f2+   4 115   3.0 125  -1.0 116   3.0 126  -1.0


          irreducible representation number 4

   58    1  C #1     3d1-   1  17   1.0
   59    2  C #1     3d1-   1  18   1.0
   60    3  S #2     3d1-   2  83   1.0  84   1.0
   61    4  S #2     3d1-   2  85   1.0  86   1.0
   62    5  S #2     3d1-   2  87   1.0  88   1.0
   63    6  S #2     4f1+   2 121   1.0 122  -1.0


          irreducible representation number 5

   64    1  C #1     2pz    1  12   1.0
   65    2  C #1     2pz    1  13   1.0
   66    3  C #1     2pz    1  14   1.0
   67    4  C #1     4f1-   3  29  -3.0  34  -3.0  36   2.0
   68    5  C #1     4f3+   2  29   1.0  34  -1.0
   69    6  S #2     1s     2  37   1.0  38  -1.0
   70    7  S #2     1s     2  39   1.0  40  -1.0
   71    8  S #2     1s     2  41   1.0  42  -1.0
   72    9  S #2     1s     2  43   1.0  44  -1.0
   73   10  S #2     1s     2  45   1.0  46  -1.0
   74   11  S #2     2pz    2  67   1.0  68   1.0
   75   12  S #2     2pz    2  69   1.0  70   1.0
   76   13  S #2     2pz    2  71   1.0  72   1.0
   77   14  S #2     2pz    2  73   1.0  74   1.0
   78   15  S #2     2pz    2  75   1.0  76   1.0
   79   16  S #2     3d2-   6  77  -1.0  95  -1.0 107   2.0  78   1.0  96   1.0 108  -2.0
   80   17  S #2     3d2-   6  79  -1.0  97  -1.0 109   2.0  80   1.0  98   1.0 110  -2.0
   81   18  S #2     3d2-   6  81  -1.0  99  -1.0 111   2.0  82   1.0 100   1.0 112  -2.0
   82   19  S #2     3d1+   4  77   1.0  95  -1.0  78  -1.0  96   1.0
   83   20  S #2     3d1+   4  79   1.0  97  -1.0  80  -1.0  98   1.0
   84   21  S #2     3d1+   4  81   1.0  99  -1.0  82  -1.0 100   1.0
   85   22  S #2     4f1-   6 117  -3.0 127  -3.0 131   2.0 118  -3.0 128  -3.0 132   2.0
   86   23  S #2     4f3+   4 117   1.0 127  -1.0 118   1.0 128  -1.0


          irreducible representation number 6

   87    1  C #1     3d0    1  19   1.0
   88    2  C #1     3d0    1  20   1.0
   89    3  S #2     2px    2  47   1.0  48  -1.0
   90    4  S #2     2px    2  49   1.0  50  -1.0
   91    5  S #2     2px    2  51   1.0  52  -1.0
   92    6  S #2     2px    2  53   1.0  54  -1.0
   93    7  S #2     2px    2  55   1.0  56  -1.0
   94    8  S #2     3d0    2  89   1.0  90   1.0
   95    9  S #2     3d0    2  91   1.0  92   1.0
   96   10  S #2     3d0    2  93   1.0  94   1.0
   97   11  S #2     4f3-   6 113  -1.0 119  -1.0 123   4.0 114   1.0 120   1.0 124  -4.0
   98   12  S #2     4f0    4 113   1.0 119  -3.0 114  -1.0 120   3.0


          irreducible representation number 7

   99    1  C #1     3d2+   1  23   1.0
  100    2  C #1     3d2+   1  24   1.0
  101    3  S #2     2py    2  57   1.0  58  -1.0
  102    4  S #2     2py    2  59   1.0  60  -1.0
  103    5  S #2     2py    2  61   1.0  62  -1.0
  104    6  S #2     2py    2  63   1.0  64  -1.0
  105    7  S #2     2py    2  65   1.0  66  -1.0
  106    8  S #2     3d2+   2 101   1.0 102   1.0
  107    9  S #2     3d2+   2 103   1.0 104   1.0
  108   10  S #2     3d2+   2 105   1.0 106   1.0
  109   11  S #2     4f2-   6 115  -1.0 125  -1.0 129   4.0 116   1.0 126   1.0 130  -4.0
  110   12  S #2     4f2+   4 115   3.0 125  -1.0 116  -3.0 126   1.0


          irreducible representation number 8

  111    1  C #1     4f1+   1  31   1.0
  112    2  S #2     3d1-   2  83   1.0  84  -1.0
  113    3  S #2     3d1-   2  85   1.0  86  -1.0
  114    4  S #2     3d1-   2  87   1.0  88  -1.0
  115    5  S #2     4f1+   2 121   1.0 122   1.0
  Nuclear repulsion energy :  109.0665383803 a.u.
  required memory for a1 array                5411750  words 
  required memory for a2 array                2269589  words 
 @GETMEM-I,  Allocated      73 MB of main memory.
  @MOLECU-I, One electron integrals (CPU/WALL):        0.04/       0.05 seconds.
  @TWOEL-I,      81314 integrals of symmetry type  I I I I
  @TWOEL-I,     657516 integrals of symmetry type  I J I J
  @TWOEL-I,     372239 integrals of symmetry type  I I J J
  @TWOEL-I,    1309929 integrals of symmetry type  I J K L
  @TWOEL-I, Total number of 2-e integrals    2420998.
  @MOLECU-I, Two electron integrals (CPU/WALL):        1.60/       1.62 seconds.
  @CHECKOUT-I, Total execution time (CPU/WALL):        2.04/       2.27 seconds.
--executable xvmol finished with status     0 in        2.37 seconds (walltime).
 --invoking executable--
/home/nike/cfour_v2.00beta/cfour_v2.00beta/bin/xvmol2ja
 @GETMEM-I,  Allocated   11444 MB of main memory.
  @CHECKOUT-I, Total execution time (CPU/WALL):        0.02/       0.03 seconds.
--executable xvmol2ja finished with status     0 in        0.10 seconds (walltime).
 --invoking executable--
/home/nike/cfour_v2.00beta/cfour_v2.00beta/bin/xvscf
  There are  115 functions in the AO basis.

  There are 8 irreducible representations.

       Irrep        # of functions
         1                 27
         2                 15
         3                 15
         4                  6
         5                 23
         6                 12
         7                 12
         8                  5


  Parameters for SCF calculation: 
        SCF reference function:  RHF  
  Maximum number of iterations: ****
     Full symmetry point group: DXh 
     Computational point group: D2h 
        Initial density matrix: MOREAD                 
     SCF convergence tolerance: 10**(-11)
  DIIS convergence acceleration:  ON
          Latest start for DIIS:   5
                     DIIS order:   6

  Memory information:     589230 words required.
  Fock matrices are constructed from AO integral file.
 @GETMEM-I,  Allocated       4 MB of main memory.
  Initialization and symmetry analysis required      0.026 seconds.

  @INITGES-I, Occupancies from core Hamiltonian:

          Alpha population by irrep:   5    2    2    0    5    2    2    1
           Beta population by irrep:   5    2    2    0    5    2    2    1


 total no. of electrons in initial guess :  0.000000000000000E+000
  --------------------------------------------------------------------
  Iteration         Total Energy            Largest Density Difference
  --------------------------------------------------------------------
       0           109.066538380258379              0.0000000000D+00
   current occupation vector 
     5  2  2  0  5  2  2  1
     5  2  2  0  5  2  2  1
  processed                  81314  ao basis integrals from 
                   136  buffers.
  processed                 372239  ao basis integrals from 
                   621  buffers.
  processed                 657516  ao basis integrals from 
                  1096  buffers.
       1          -718.347255030311544              0.4190092412D+01
   current occupation vector 
     5  2  2  0  5  2  2  1
     5  2  2  0  5  2  2  1
  processed                  81314  ao basis integrals from 
                   136  buffers.
  processed                 372239  ao basis integrals from 
                   621  buffers.
  processed                 657516  ao basis integrals from 
                  1096  buffers.
       2          -742.407712491742132              0.4166980203D+02
   current occupation vector 
     7  3  3  0  4  1  1  0
     7  3  3  0  4  1  1  0
  processed                  81314  ao basis integrals from 
                   136  buffers.
  processed                 372239  ao basis integrals from 
                   621  buffers.
  processed                 657516  ao basis integrals from 
                  1096  buffers.
       3          -804.498981010344210              0.4167298952D+02
   current occupation vector 
     6  2  2  0  5  2  2  0
     6  2  2  0  5  2  2  0
  processed                  81314  ao basis integrals from 
                   136  buffers.
  processed                 372239  ao basis integrals from 
                   621  buffers.
  processed                 657516  ao basis integrals from 
                  1096  buffers.
       4          -817.589352805655494              0.1726798151D+02
   current occupation vector 
     6  3  3  0  5  1  1  0
     6  3  3  0  5  1  1  0
 
 sum over diagonal and offdiagdiagonal of C(T)*S*C for irrep
                     1
  2.101652185615421E-013 -4.265828796701231E-013
 reorthoganalization of MOs is carried out
 sum over diagonal and offdiagdiagonal of C(T)*S*C for irrep
                     1
  7.349676423018536E-014  1.356174204486443E-013
 
 sum over diagonal and offdiagdiagonal of C(T)*S*C for irrep
                     2
  4.218847493575595E-014 -6.258884544724767E-014
 reorthoganalization of MOs is carried out
 sum over diagonal and offdiagdiagonal of C(T)*S*C for irrep
                     2
  8.881784197001252E-016 -3.138878455379252E-015
 
 sum over diagonal and offdiagdiagonal of C(T)*S*C for irrep
                     3
 -3.208544541166702E-014 -1.187172449431002E-014
 reorthoganalization of MOs is carried out
 sum over diagonal and offdiagdiagonal of C(T)*S*C for irrep
                     3
  2.220446049250313E-016  2.202933730197815E-015
 
 sum over diagonal and offdiagdiagonal of C(T)*S*C for irrep
                     4
  6.439293542825908E-015  2.055462480271120E-015
 reorthoganalization of MOs is carried out
 sum over diagonal and offdiagdiagonal of C(T)*S*C for irrep
                     4
 -2.220446049250313E-016  1.175826432849313E-015
 
 sum over diagonal and offdiagdiagonal of C(T)*S*C for irrep
                     5
  2.946531907355165E-013  1.006365706010082E-012
 reorthoganalization of MOs is carried out
 sum over diagonal and offdiagdiagonal of C(T)*S*C for irrep
                     5
  4.918287999089443E-014  4.998214155842153E-014
 
 sum over diagonal and offdiagdiagonal of C(T)*S*C for irrep
                     6
  2.675637489346627E-014  8.838219014565666E-014
 reorthoganalization of MOs is carried out
 sum over diagonal and offdiagdiagonal of C(T)*S*C for irrep
                     6
 -2.220446049250313E-015 -2.373752135398037E-015
 
 sum over diagonal and offdiagdiagonal of C(T)*S*C for irrep
                     7
  2.287059430727822E-014  2.623655356315344E-014
 reorthoganalization of MOs is carried out
 sum over diagonal and offdiagdiagonal of C(T)*S*C for irrep
                     7
 -1.887379141862766E-015 -8.292038561522951E-016
 
 sum over diagonal and offdiagdiagonal of C(T)*S*C for irrep
                     8
 -9.547918011776346E-015 -3.051352437474050E-015
 reorthoganalization of MOs is carried out
 sum over diagonal and offdiagdiagonal of C(T)*S*C for irrep
                     8
  3.330669073875470E-016  4.826503036713808E-017
  processed                  81314  ao basis integrals from 
                   136  buffers.
  processed                 372239  ao basis integrals from 
                   621  buffers.
  processed                 657516  ao basis integrals from 
                  1096  buffers.
       5          -823.708795795830042              0.1729793501D+02
   current occupation vector 
     6  2  2  0  5  2  2  0
     6  2  2  0  5  2  2  0
  processed                  81314  ao basis integrals from 
                   136  buffers.
  processed                 372239  ao basis integrals from 
                   621  buffers.
  processed                 657516  ao basis integrals from 
                  1096  buffers.
       6          -831.290820450671731              0.9224664973D+00
   current occupation vector 
     6  2  2  0  5  2  2  0
     6  2  2  0  5  2  2  0
  processed                  81314  ao basis integrals from 
                   136  buffers.
  processed                 372239  ao basis integrals from 
                   621  buffers.
  processed                 657516  ao basis integrals from 
                  1096  buffers.
       7          -832.896675938096223              0.3182280228D+00
   current occupation vector 
     6  2  2  0  5  2  2  0
     6  2  2  0  5  2  2  0
  processed                  81314  ao basis integrals from 
                   136  buffers.
  processed                 372239  ao basis integrals from 
                   621  buffers.
  processed                 657516  ao basis integrals from 
                  1096  buffers.
       8          -832.954688693383900              0.9328799784D-01
   current occupation vector 
     6  2  2  0  5  2  2  0
     6  2  2  0  5  2  2  0
  processed                  81314  ao basis integrals from 
                   136  buffers.
  processed                 372239  ao basis integrals from 
                   621  buffers.
  processed                 657516  ao basis integrals from 
                  1096  buffers.
       9          -832.957872342699034              0.1768205623D-01
   current occupation vector 
     6  2  2  0  5  2  2  0
     6  2  2  0  5  2  2  0
 
 sum over diagonal and offdiagdiagonal of C(T)*S*C for irrep
                     1
  2.772226892489016E-013 -2.334181683879398E-013
 reorthoganalization of MOs is carried out
 sum over diagonal and offdiagdiagonal of C(T)*S*C for irrep
                     1
 -1.264544025048053E-013  2.090117318160073E-013
 
 sum over diagonal and offdiagdiagonal of C(T)*S*C for irrep
                     2
  3.608224830031759E-014  8.387094316406349E-014
 reorthoganalization of MOs is carried out
 sum over diagonal and offdiagdiagonal of C(T)*S*C for irrep
                     2
  1.554312234475219E-015 -2.112953746262592E-015
 
 sum over diagonal and offdiagdiagonal of C(T)*S*C for irrep
                     3
 -1.088018564132653E-014 -3.112824266877800E-014
 reorthoganalization of MOs is carried out
 sum over diagonal and offdiagdiagonal of C(T)*S*C for irrep
                     3
  0.000000000000000E+000  8.648449546843310E-016
 
 sum over diagonal and offdiagdiagonal of C(T)*S*C for irrep
                     4
 -1.110223024625157E-015  1.609158116711517E-015
 reorthoganalization of MOs is carried out
 sum over diagonal and offdiagdiagonal of C(T)*S*C for irrep
                     4
 -1.110223024625157E-016  3.748427862144863E-016
 
 sum over diagonal and offdiagdiagonal of C(T)*S*C for irrep
                     5
  2.963185252724543E-013 -2.410251745769546E-013
 reorthoganalization of MOs is carried out
 sum over diagonal and offdiagdiagonal of C(T)*S*C for irrep
                     5
  3.330669073875470E-014 -5.121430501360371E-014
 
 sum over diagonal and offdiagdiagonal of C(T)*S*C for irrep
                     6
  1.953992523340276E-014  1.554766166229980E-014
 reorthoganalization of MOs is carried out
 sum over diagonal and offdiagdiagonal of C(T)*S*C for irrep
                     6
 -2.109423746787797E-015  4.765402166726721E-015
 
 sum over diagonal and offdiagdiagonal of C(T)*S*C for irrep
                     7
  1.720845688168993E-014 -1.425152154343234E-014
 reorthoganalization of MOs is carried out
 sum over diagonal and offdiagdiagonal of C(T)*S*C for irrep
                     7
 -1.887379141862766E-015  6.817309972791587E-016
 
 sum over diagonal and offdiagdiagonal of C(T)*S*C for irrep
                     8
 -1.876276911616515E-014 -1.873887153496177E-015
 reorthoganalization of MOs is carried out
 sum over diagonal and offdiagdiagonal of C(T)*S*C for irrep
                     8
  4.440892098500626E-016  5.850048684613987E-017
  processed                  81314  ao basis integrals from 
                   136  buffers.
  processed                 372239  ao basis integrals from 
                   621  buffers.
  processed                 657516  ao basis integrals from 
                  1096  buffers.
      10          -832.958383024903924              0.5999852573D-02
   current occupation vector 
     6  2  2  0  5  2  2  0
     6  2  2  0  5  2  2  0
  processed                  81314  ao basis integrals from 
                   136  buffers.
  processed                 372239  ao basis integrals from 
                   621  buffers.
  processed                 657516  ao basis integrals from 
                  1096  buffers.
      11          -832.958392981033853              0.1311921099D-02
   current occupation vector 
     6  2  2  0  5  2  2  0
     6  2  2  0  5  2  2  0
  processed                  81314  ao basis integrals from 
                   136  buffers.
  processed                 372239  ao basis integrals from 
                   621  buffers.
  processed                 657516  ao basis integrals from 
                  1096  buffers.
      12          -832.958393174753951              0.9349934909D-04
   current occupation vector 
     6  2  2  0  5  2  2  0
     6  2  2  0  5  2  2  0
  processed                  81314  ao basis integrals from 
                   136  buffers.
  processed                 372239  ao basis integrals from 
                   621  buffers.
  processed                 657516  ao basis integrals from 
                  1096  buffers.
      13          -832.958393191622690              0.6277797264D-04
   current occupation vector 
     6  2  2  0  5  2  2  0
     6  2  2  0  5  2  2  0
  processed                  81314  ao basis integrals from 
                   136  buffers.
  processed                 372239  ao basis integrals from 
                   621  buffers.
  processed                 657516  ao basis integrals from 
                  1096  buffers.
      14          -832.958393192205563              0.8315604328D-05
   current occupation vector 
     6  2  2  0  5  2  2  0
     6  2  2  0  5  2  2  0
 
 sum over diagonal and offdiagdiagonal of C(T)*S*C for irrep
                     1
  2.969846590872294E-013 -1.562892459930887E-013
 reorthoganalization of MOs is carried out
 sum over diagonal and offdiagdiagonal of C(T)*S*C for irrep
                     1
 -1.670885652060861E-013  4.885669494407665E-014
 
 sum over diagonal and offdiagdiagonal of C(T)*S*C for irrep
                     2
  4.585221091701897E-014  7.905788279834094E-014
 reorthoganalization of MOs is carried out
 sum over diagonal and offdiagdiagonal of C(T)*S*C for irrep
                     2
 -3.330669073875470E-016  6.863440983869420E-015
 
 sum over diagonal and offdiagdiagonal of C(T)*S*C for irrep
                     3
 -2.908784324517910E-014 -3.635728196011680E-014
 reorthoganalization of MOs is carried out
 sum over diagonal and offdiagdiagonal of C(T)*S*C for irrep
                     3
  4.107825191113079E-015  6.342506843017332E-016
 
 sum over diagonal and offdiagdiagonal of C(T)*S*C for irrep
                     4
  2.109423746787797E-015  4.764658366027770E-015
 reorthoganalization of MOs is carried out
 sum over diagonal and offdiagdiagonal of C(T)*S*C for irrep
                     4
 -1.110223024625157E-016  1.003884955466766E-015
 
 sum over diagonal and offdiagdiagonal of C(T)*S*C for irrep
                     5
  2.924327446862662E-013 -2.595003344621578E-013
 reorthoganalization of MOs is carried out
 sum over diagonal and offdiagdiagonal of C(T)*S*C for irrep
                     5
 -1.720845688168993E-014  2.116210482707106E-014
 
 sum over diagonal and offdiagdiagonal of C(T)*S*C for irrep
                     6
  7.882583474838611E-015  1.284491154403082E-014
 reorthoganalization of MOs is carried out
 sum over diagonal and offdiagdiagonal of C(T)*S*C for irrep
                     6
 -8.881784197001252E-016 -1.550206718263386E-015
 
 sum over diagonal and offdiagdiagonal of C(T)*S*C for irrep
                     7
  1.310063169057685E-014 -2.438381868249985E-015
 reorthoganalization of MOs is carried out
 sum over diagonal and offdiagdiagonal of C(T)*S*C for irrep
                     7
 -1.110223024625157E-016  5.742312694085001E-016
 
 sum over diagonal and offdiagdiagonal of C(T)*S*C for irrep
                     8
 -4.329869796038111E-015 -1.610806926025195E-015
 reorthoganalization of MOs is carried out
 sum over diagonal and offdiagdiagonal of C(T)*S*C for irrep
                     8
  1.110223024625157E-016  1.746433401017671E-016
  processed                  81314  ao basis integrals from 
                   136  buffers.
  processed                 372239  ao basis integrals from 
                   621  buffers.
  processed                 657516  ao basis integrals from 
                  1096  buffers.
[...]
   The total correlation energy is -0.507105432618 a.u.
   The total correlation energy is -0.507105432618 a.u.
  Current DIIS expansion coefficients : 
 [   1]-0.1795048972 [   2] 1.2875623728 [   3] 0.0024249938 [   4] 0.0279445807
 [   5]-0.1384270501
  Convergence information after    12 iterations: 
  Largest element of residual vector :  0.18149086E-06.
  Largest element of DIIS residual   : -0.82114928E-07.
  W(mnij) AB contribution =  0.0877570857 a.u.
  W(abef) AB contribution =  0.1236657865 a.u.
  W(mbej) AB contribution = -0.2875142160 a.u.
   After  13 iterations, amplitude changes are:
    -------------------------------------------------------------------
                 Spin      RMS          Max.      Max. change for
     Amplitude   Case     Change       Change       i    j    a    b
    -------------------------------------------------------------------
        T1        AA    0.0000000008 0.0000000635    4        43
        T2        AA    0.0000000000 0.0000000096    4    3   43   30
        T2        AB    0.0000000000-0.0000000393    8    8   43   43
    -------------------------------------------------------------------
   The AA contribution to the correlation energy is:   -0.0573802 a.u.
   The AB contribution to the correlation energy is:   -0.3923451 a.u.
   The total correlation energy is -0.507105432764 a.u.
   The total correlation energy is -0.507105432764 a.u.
  Current DIIS expansion coefficients : 
 [   1]-0.0832226274 [   2]-0.0189702239 [   3] 1.0939197267 [   4] 0.0044882108
 [   5] 0.0037849139
  Convergence information after    13 iterations: 
  Largest element of residual vector :  0.63494400E-07.
  Largest element of DIIS residual   :  0.41396818E-07.
  W(mnij) AB contribution =  0.0877570926 a.u.
  W(abef) AB contribution =  0.1236657933 a.u.
  W(mbej) AB contribution = -0.2875142412 a.u.
   After  14 iterations, amplitude changes are:
    -------------------------------------------------------------------
                 Spin      RMS          Max.      Max. change for
     Amplitude   Case     Change       Change       i    j    a    b
    -------------------------------------------------------------------
        T1        AA    0.0000000002 0.0000000118    4        43
        T2        AA    0.0000000000-0.0000000020    8    7   43   30
        T2        AB    0.0000000000-0.0000000094    8    8   43   43
    -------------------------------------------------------------------
   The AA contribution to the correlation energy is:   -0.0573802 a.u.
   The AB contribution to the correlation energy is:   -0.3923451 a.u.
   The total correlation energy is -0.507105441853 a.u.
   The total correlation energy is -0.507105441853 a.u.
  Current DIIS expansion coefficients : 
 [   1] 0.0047286820 [   2]-0.0065999198 [   3]-0.2522172219 [   4] 1.2514669120
 [   5] 0.0026215477
  Convergence information after    14 iterations: 
  Largest element of residual vector :  0.11807855E-07.
  Largest element of DIIS residual   : -0.11049947E-07.
  W(mnij) AB contribution =  0.0877570938 a.u.
  W(abef) AB contribution =  0.1236657956 a.u.
  W(mbej) AB contribution = -0.2875142437 a.u.
   After  15 iterations, amplitude changes are:
    -------------------------------------------------------------------
                 Spin      RMS          Max.      Max. change for
     Amplitude   Case     Change       Change       i    j    a    b
    -------------------------------------------------------------------
        T1        AA    0.0000000001 0.0000000114    4        43
        T2        AA    0.0000000000-0.0000000006    8    4   91   43
        T2        AB    0.0000000000 0.0000000044    4    4   43   43
    -------------------------------------------------------------------
   The AA contribution to the correlation energy is:   -0.0573802 a.u.
   The AB contribution to the correlation energy is:   -0.3923451 a.u.
   The total correlation energy is -0.507105441519 a.u.
   The total correlation energy is -0.507105441519 a.u.
  Current DIIS expansion coefficients : 
 [   1]-0.0034493118 [   2] 0.0286408689 [   3]-0.1958717797 [   4] 0.0569093367
 [   5] 1.1137708859
  Convergence information after    15 iterations: 
  Largest element of residual vector :  0.11374268E-07.
  Largest element of DIIS residual   :  0.49718404E-08.
   Largest T1 amplitudes for spin case AA:
   i       a                 i       a                 i       a    
-----------------------------------------------------------------------------
[  3      30    ] 0.04487 [  4      43    ] 0.04487 [  7      81    ]-0.01701
[  8      91    ]-0.01701 [  6      63    ]-0.01469 [  3      32    ] 0.01129
[  4      45    ] 0.01129 [  3      33    ] 0.00945 [  4      46    ] 0.00945
[  3      31    ] 0.00937 [  4      44    ] 0.00937 [  3      34    ] 0.00897
[  4      47    ] 0.00897 [  6      65    ]-0.00801 [  2      13    ] 0.00793
-----------------------------------------------------------------------------
   Norm of T1AA vector (      124 symmetry allowed elements):  0.0788573975.
-----------------------------------------------------------------------------
   Largest T2 amplitudes for spin case AB:
       _       _                 _       _                 _       _
   i   j   a   b             i   j   a   b             i   j   a   b
-----------------------------------------------------------------------------
[  7   7  30  30]-0.07826 [  8   8  43  43]-0.07826 [  4   4  43  43]-0.05771
[  3   3  30  30]-0.05771 [  8   7  43  30]-0.05513 [  7   8  30  43]-0.05513
[  4   3  43  30]-0.03735 [  3   4  30  43]-0.03735 [  2   2  43  43]-0.02920
[  2   2  30  30]-0.02920 [  8   4  91  43]-0.02366 [  4   8  43  91]-0.02366
[  7   3  81  30]-0.02366 [  3   7  30  81]-0.02366 [  6   6  63  63]-0.02227
-----------------------------------------------------------------------------
   Norm of T2AB vector (    76864 symmetry allowed elements):  0.4381475158.
-----------------------------------------------------------------------------
  W(mnij) AB contribution =  0.0877570933 a.u.
  W(abef) AB contribution =  0.1236657949 a.u.
  W(mbej) AB contribution = -0.2875142420 a.u.
   After  16 iterations, amplitude changes are:
    -------------------------------------------------------------------
                 Spin      RMS          Max.      Max. change for
     Amplitude   Case     Change       Change       i    j    a    b
    -------------------------------------------------------------------
        T1        AA    0.0000000000-0.0000000009    2        11
        T2        AA    0.0000000000-0.0000000008    8    7   43   30
        T2        AB    0.0000000000 0.0000000016    4    4   43   43
    -------------------------------------------------------------------
   The AA contribution to the correlation energy is:   -0.0573802 a.u.
   The AB contribution to the correlation energy is:   -0.3923451 a.u.
   The total correlation energy is -0.507105442877 a.u.
   The total correlation energy is -0.507105442877 a.u.
  Current DIIS expansion coefficients : 
 [   1] 1.1343190339 [   2] 0.0035109097 [   3] 0.0098861313 [   4]-0.0398728080
 [   5]-0.1078432670
  Convergence information after    16 iterations: 
  Largest element of residual vector :  0.15601363E-08.
  Largest element of DIIS residual   :  0.10683899E-08.
  W(mnij) AB contribution =  0.0877570928 a.u.
  W(abef) AB contribution =  0.1236657943 a.u.
  W(mbej) AB contribution = -0.2875142401 a.u.
   After  17 iterations, amplitude changes are:
    -------------------------------------------------------------------
                 Spin      RMS          Max.      Max. change for
     Amplitude   Case     Change       Change       i    j    a    b
    -------------------------------------------------------------------
        T1        AA    0.0000000000 0.0000000011    4        43
        T2        AA    0.0000000000-0.0000000003    4    3   43   30
        T2        AB    0.0000000000 0.0000000005    4    4   43   43
    -------------------------------------------------------------------
   The AA contribution to the correlation energy is:   -0.0573802 a.u.
   The AB contribution to the correlation energy is:   -0.3923451 a.u.
   The total correlation energy is -0.507105442756 a.u.
   The total correlation energy is -0.507105442756 a.u.
  Current DIIS expansion coefficients : 
 [   1] 0.1413070193 [   2] 0.9817832911 [   3] 0.0123154742 [   4] 0.0032214034
 [   5]-0.1386271879
  Convergence information after    17 iterations: 
  Largest element of residual vector :  0.10711038E-08.
  Largest element of DIIS residual   : -0.34289489E-09.
  W(mnij) AB contribution =  0.0877570927 a.u.
  W(abef) AB contribution =  0.1236657942 a.u.
  W(mbej) AB contribution = -0.2875142396 a.u.
   After  18 iterations, amplitude changes are:
    -------------------------------------------------------------------
                 Spin      RMS          Max.      Max. change for
     Amplitude   Case     Change       Change       i    j    a    b
    -------------------------------------------------------------------
        T1        AA    0.0000000000 0.0000000002    4        43
        T2        AA    0.0000000000-0.0000000001    4    3   43   30
        T2        AB    0.0000000000 0.0000000001    4    4   43   43
    -------------------------------------------------------------------
   The AA contribution to the correlation energy is:   -0.0573802 a.u.
   The AB contribution to the correlation energy is:   -0.3923451 a.u.
   The total correlation energy is -0.507105442792 a.u.
   The total correlation energy is -0.507105442792 a.u.
  Current DIIS expansion coefficients : 
 [   1]-0.0296715320 [   2]-0.0262383956 [   3] 1.0702362605 [   4] 0.0066451211
 [   5]-0.0209714539
  Convergence information after    18 iterations: 
  Largest element of residual vector :  0.23196822E-09.
  Largest element of DIIS residual   : -0.16028449E-09.
  Amplitude equations converged in    18iterations.
   The AA contribution to the correlation energy is:   -0.0573802 a.u.
   The AB contribution to the correlation energy is:   -0.3923451 a.u.
   The total correlation energy is -0.507105442811 a.u.
   The total correlation energy is -0.507105442811 a.u.
   The CC iterations have converged.

   Largest T1 amplitudes for spin case AA:
   i       a                 i       a                 i       a    
-----------------------------------------------------------------------------
[  3      30    ] 0.04487 [  4      43    ] 0.04487 [  8      91    ]-0.01701
[  7      81    ]-0.01701 [  6      63    ]-0.01469 [  3      32    ] 0.01129
[  4      45    ] 0.01129 [  3      33    ] 0.00945 [  4      46    ] 0.00945
[  3      31    ] 0.00937 [  4      44    ] 0.00937 [  3      34    ] 0.00897
[  4      47    ] 0.00897 [  6      65    ]-0.00801 [  2      13    ] 0.00793
-----------------------------------------------------------------------------
   Norm of T1AA vector (      124 symmetry allowed elements):  0.0788573991.
-----------------------------------------------------------------------------
   Largest T2 amplitudes for spin case AB:
       _       _                 _       _                 _       _
   i   j   a   b             i   j   a   b             i   j   a   b
-----------------------------------------------------------------------------
[  7   7  30  30]-0.07826 [  8   8  43  43]-0.07826 [  4   4  43  43]-0.05771
[  3   3  30  30]-0.05771 [  8   7  43  30]-0.05513 [  7   8  30  43]-0.05513
[  4   3  43  30]-0.03735 [  3   4  30  43]-0.03735 [  2   2  43  43]-0.02920
[  2   2  30  30]-0.02920 [  8   4  91  43]-0.02366 [  4   8  43  91]-0.02366
[  7   3  81  30]-0.02366 [  3   7  30  81]-0.02366 [  6   6  63  63]-0.02227
-----------------------------------------------------------------------------
   Norm of T2AB vector (    76864 symmetry allowed elements):  0.4381475142.
-----------------------------------------------------------------------------
       Summary of iterative solution of CC equations 
      -----------------------------------------------------------
                       Correlation           Total
       Iteration         Energy              Energy
      -----------------------------------------------------------
            0        -0.494655585290    -833.453048777586  DIIS 
            1        -0.485260598813    -833.443653791110  DIIS 
            2        -0.507581622843    -833.465974815140  DIIS 
            3        -0.504733143275    -833.463126335571  DIIS 
            4        -0.506733856031    -833.465127048328  DIIS 
            5        -0.507077079425    -833.465470271722  DIIS 
            6        -0.507098981901    -833.465492174198  DIIS 
            7        -0.507103953895    -833.465497146191  DIIS 
            8        -0.507103992062    -833.465497184359  DIIS 
            9        -0.507104829229    -833.465498021526  DIIS 
           10        -0.507105375508    -833.465498567804  DIIS 
           11        -0.507105347951    -833.465498540247  DIIS 
           12        -0.507105432618    -833.465498624914  DIIS 
           13        -0.507105432764    -833.465498625060  DIIS 
           14        -0.507105441853    -833.465498634149  DIIS 
           15        -0.507105441519    -833.465498633816  DIIS 
           16        -0.507105442877    -833.465498635174  DIIS 
           17        -0.507105442756    -833.465498635053  DIIS 
           18        -0.507105442811    -833.465498635107  DIIS 
      -----------------------------------------------------------
      A miracle has come to pass. The CC iterations have converged.
 @DIMT3-I, Dimensions of T3 amplitudes : 
               # abc          # ijk       Symmetry    Spin 
                    18368              6     1          1
                    17832              7     2          1
                    17832              7     3          1
                    17253              8     4          1
                    18469              6     5          1
                    17933              7     6          1
                    17933              7     7          1
                    17260              8     8          1
                    57099             32     1          2
                    54731             28     2          2
                    54731             28     3          2
                    52329             24     4          2
                    57117             32     5          2
                    54749             28     6          2
                    54749             28     7          2
                    52255             24     8          2
                    57099             32     1          3
                    54731             28     2          3
                    54731             28     3          3
                    52329             24     4          3
                    57117             32     5          3
                    54749             28     6          3
                    54749             28     7          3
                    52255             24     8          3
                    18368              6     1          4
                    17832              7     2          4
                    17832              7     3          4
                    17253              8     4          4
                    18469              6     5          4
                    17933              7     6          4
                    17933              7     7          4
                    17260              8     8          4
 @DIMT3-I, Dimensions of T3 amplitudes : 
               # abc          # ijk       Symmetry    Spin 
                    18368              6     1          1
                    17832              7     2          1
                    17832              7     3          1
                    17253              8     4          1
                    18469              6     5          1
                    17933              7     6          1
                    17933              7     7          1
                    17260              8     8          1
                    57099             32     1          2
                    54731             28     2          2
                    54731             28     3          2
                    52329             24     4          2
                    57117             32     5          2
                    54749             28     6          2
                    54749             28     7          2
                    52255             24     8          2
                    57099             32     1          3
                    54731             28     2          3
                    54731             28     3          3
                    52329             24     4          3
                    57117             32     5          3
                    54749             28     6          3
                    54749             28     7          3
                    52255             24     8          3
                    18368              6     1          4
                    17832              7     2          4
                    17832              7     3          4
                    17253              8     4          4
                    18469              6     5          4
                    17933              7     6          4
                    17933              7     7          4
                    17260              8     8          4
 @TRPS-I, Welcome to TRPS. Watch your RUs ! 
 @TRPS-I, Method is CCSD(T) 
 @TRPS-I, Calculation type is energy 
 @TRPS-I, Reference function information : 
          Reference function is Hartree-Fock 
          Reference function is RHF Hartree-Fock 
 @TRPS-I, INT1 is true 
 @TRPS-I, INT2 is false 
 @TRPS-I, Lengths of ijka integrals. #1       2800
                                     #2       2800
                                     #3       6592
                                     #4       6592
                                    Max       6592
 @INITRP-I, Initializing W intermediate lists. 
 @SETOOOV-I, Some OOOV lists are being transposed. 
 @TRPS-I, Available memory in integer words   1499959040
          Number of pre-allocated words for TRPS2        48841
          Number of free words for TRPS2   1499910199
 @TRPS2-I, Spin case AAB 
 @TRPS2-I, Number of free integer words 1499910199
           Number of free double  words 1499910199
           Ratio                                 1
 @TRPS2-I, E4TBAA      -0.017400716484
  @TRPS2-I, E4TAAA  -1.017055027394068E-003
 @TRPS2-I, E5ST A    0.000529447921620
 @TRPS2-I, E5ST B    0.000343916867503
 @SETOOOV-I, Some OOOV lists are being transposed. 
 @CCENRG-I, CCSD/QCISD energy will now be evaluated. 
 @CCENRG-I, Correlation energies. ECCAA       -0.057380165649
                                  ECCBB        0.000000000000
                                  ECCAB       -0.392345111513
                                  Total       -0.507105442811
 @CCENRG-I, Reference   energy    -832.958393192296
            CCSD/QCISD energy     -833.465498635107
          E4T (T(CCSD)) = -0.036835543023
          E5ST          =  0.001746729578
          E4ST          =  0.000000000000
          In other words  
          <T3[2](Dagger) D3  T3[2]> = -0.036835543023
          <T1   (Dagger) Q1 WT3[2]> =  0.001746729578
          <T2   (Dagger) Q2 FT3[2]> =  0.000000000000
        E(CCSD)           =    -833.465498635107
        E(CCSD + T(CCSD)) =    -833.502334178130
        E(CCSD(T))        =    -833.500587448552
  @CHECKOUT-I, Total execution time (CPU/WALL):        4.54/       6.47 seconds.
--executable xvcc finished with status     0 in        6.59 seconds (walltime).
  The final electronic energy is      -833.500587448552096 a.u. 
  This computation required                           53.17 seconds (walltime).
