 --invoking executable--
/home/nike/cfour_v2.00beta/cfour_v2.00beta/bin/xjoda


   *************************************************************************
         <<<     CCCCCC     CCCCCC   |||     CCCCCC     CCCCCC   >>>
       <<<      CCC        CCC       |||    CCC        CCC         >>>
      <<<      CCC        CCC        |||   CCC        CCC            >>>
    <<<        CCC        CCC        |||   CCC        CCC              >>>
      <<<      CCC        CCC        |||   CCC        CCC            >>>
       <<<      CCC        CCC       |||    CCC        CCC         >>>
         <<<     CCCCCC     CCCCCC   |||     CCCCCC     CCCCCC   >>>
   *************************************************************************

     ****************************************************************
     * CFOUR Coupled-Cluster techniques for Computational Chemistry *
     ****************************************************************
 

   Department of Chemistry                Institut fuer Physikalische Chemie
   University of Texas at Austin          Universitaet Mainz
   Austin, TX  78712, USA                 D-55099 Mainz, Germany
 
                       Version 2.00beta
 
                     blg8332.int.ets1.calculquebec.ca                  
                     Mo 17. Feb 22:52:34 EST 2020                      
                     integer*8 version is running
 
********************************************************************************
*                          Input from ZMAT file                                *
********************************************************************************
TITLE                                                                           
Cl                                                                              
Cl 1 R                                                                          
                                                                                
R=3.75639759053                                                                 
                                                                                
*ACES2(CALC=CCSD(T)                                                             
UNITS=BOHR                                                                      
#GEOM=1.9878*10/5.29177210903_in9-22ofCRC2016                                   
#COORD=CARTESIAN                                                                
COORD=INTERNAL                                                                  
PRINT=4                                                                         
JODA_PRINT=4                                                                    
INPUT_MRCC=OFF                                                                  
#CC_PROG=MRCC                                                                   
FROZEN_CORE=ON                                                                  
#DROPMO=1>5                                                                     
CONTRACTION=GENERAL                                                             
#CONTRACTION=SEGMENTED                                                          
RELATIVISTIC=OFF                                                                
#EXCITE=EOMEE                                                                   
#ESTATE_CONV=5                                                                  
#ESTATE_SYM=2/2/2/2/2/2/2/2                                                     
XFORM_TOL=18                                                                    
SAVE_INTS=ON                                                                    
SCF_EXPORDER=6                                                                  
SCF_EXPSTART=5                                                                  
#SCF_DAMPING=1000                                                               
SCF_EXTRAPOLATION=ON                                                            
SCF_CONV=14                                                                     
SCF_MAXCYC=9999                                                                 
CC_CONV=9                                                                       
CC_MAXCYC=999                                                                   
T3_EXTRAPOL=ON                                                                  
REFERENCE=RHF                                                                   
CHARGE=+0                                                                       
MULT=1                                                                          
ABCDTYPE=STANDARD                                                               
#OCCUPATION=3-2-2-0-1-0-0-0/3-1-1-0-1-0-0-0                                     
MEM=12                                                                          
MEM_UNIT=GB                                                                     
BASIS=SPECIAL)                                                                  
                                                                                
CL:def2-TZVPP                                                                   
CL:def2-TZVPP                                                                   
                                                                                
********************************************************************************
  @GTFLGS-W, Keyword #GEOM not known and is ignored.
  @GTFLGS-W, Keyword #COORD not known and is ignored.
  @GTFLGS-W, Keyword #CC_PROG not known and is ignored.
  @GTFLGS-W, Keyword #DROPMO not known and is ignored.
  @GTFLGS-W, Keyword #CONTRACTION not known and is ignored.
  @GTFLGS-W, Keyword #EXCITE not known and is ignored.
  @GTFLGS-W, Keyword #ESTATE_CONV not known and is ignored.
  @GTFLGS-W, Keyword #ESTATE_SYM not known and is ignored.
  @GTFLGS-W, Keyword #SCF_DAMPING not known and is ignored.
  @GTFLGS-W, Keyword #OCCUPATION not known and is ignored.
    -------------------------------------------------------------------
                    CFOUR Control Parameters 
    -------------------------------------------------------------------
        External           Internal           Value            Units
          Name               Name
    -------------------------------------------------------------------
       ABCDTYPE             IABCDT         STANDARD     [  0]   ***   
       ANHARMONIC           IANHAR         OFF          [  0]   ***   
       ANH_ALGORIT          IANALG         STANDARD     [  0]   ***   
       ANH_DERIVAT          IANDER         SECOND       [  1]   ***   
       ANH_STEPSIZ          ICUBST             50000          x 10-6  
       ANH_SYMMETR          IANHSM         ABELIAN      [  0]   ***   
       AO_LADDERS           IAOLAD         SINGLEPASS   [  1]   ***   
       BASIS                IBASIS         SPECIAL      [  0]   ***   
       BREIT                IBREIT         OFF          [  0]   ***   
       BRUCK_CONV           IBRTOL          10D-  4             ***   
       BRUECKNER            IBRKNR             OFF      [  0]   ***   
       BUFFERSIZE           IBUFFS            600               ***   
       CACHE_RECS           ICHREC             10               ***   
       CALCLEVEL            ICLLVL           CCSD(T)    [ 22]   ***   
       CCORBOPT             ICCORB             OFF      [  0] x 0.01  
       CC_CONV              ICCCNV          10D-  9             ***   
       CC_EXPORDER          ICCEOR              5               ***   
       CC_EXTRAPOL          ICCEXT             DIIS     [  1]   ***   
       CC_MAXCYC            ICCCYC            999              cycles 
       CC_PROGRAM           ICCPRO         VCC          [  0]   ***   
       CHARGE               ICHRGE              0               ***   
       CHOLESKY             ICHOLE         OFF          [  0]   ***   
       CIS_CONV             ICISTL              5               ***   
       COMM_SIZE            IPSIZE            ***               ***   
       CONSTANT             ICONST         OLD          [  1]   ***   
       CONTINUUM            ICONTU         NONE         [  0]   ***   
       CONTRACTION          ICNTYP          GENERAL     [  1]   ***   
       COORDINATES          ICOORD         INTERNAL     [  0]   ***   
       CPHF_CONVER          ICPHFT          10D- 16             ***   
       CPHF_MAXCYC          ICPHFC             64              cycles 
       CUBIC                ICUBIC         OFF          [  0]   ***   
       CURVILINEAR          ICURVY            OFF       [  0]   ***   
       DBOC                 IDBOC          OFF          [  0]   ***   
       DCT                  IDCT           OFF          [  0]   ***   
       DERIV_LEV            IDRLVL            ZERO      [  0]   ***   
       DIAG_MRCC            IEOMST          10D-  0             ***   
       DIFF_TYPE            IDIFTY         RELAXED      [  0]   ***   
       DIRECT               IDIRCT         OFF          [  0]   ***   
       DROPMO               IDRPMO      NONE         
       ECP                  IECP           OFF          [  0]   ***   
       EIGENVECTOR          IVEC                1               ***   
       EL_ANHARM            IELANH         OFF          [  0]   ***   
       EOMFOLLOW            IEOMSR         ENERGY       [  0]   ***   
       EOM_MRCC             IMRCCE         NEW          [  1]   ***   
       EOM_NONIT            EOMNON         OFF          [  0]   ***   
       EOM_NSING            IEOMSI          10D-  0             ***   
       EOM_NSTATES          IMRCCD         DAVIDSON     [  0]   ***   
       EOM_NTRIP            IEOMTR          10D-  0             ***   
       EOM_ORDER            IEXORD         ENERGY       [  0]   ***   
       ESTATE_CONV          IEXTOL          10D-  5             ***   
       ESTATE_DIAG          IEXDIG         ITERATIVE    [  0]   ***   
       ESTATE_LOCK          IESLOC         ON           [  1]   ***   
       ESTATE_MAXC          IEXMXC             20               ***   
       ESTATE_PROP          IEXPRP         OFF          [  0]   ***   
       EVAL_HESS            IRECAL              0            # of cyc.
       EXCITATION           IEXCIT              0               ***   
       EXCITE               IEXCIT         NONE         [  0]   ***   
       FCGRADNEW            IFCGNW         OFF          [  0]   ***   
       FC_FIELD             IFINFC              0             x 10-6  
       FD_CALTYPE           IFDCAL         GRADONLY     [  0]   ***   
       FD_PROJECT           IFDPRJ         OFF          [  1]   ***   
       FD_STEPSIZE          IDISFD              0            10-4 bohr
       FD_USEGROUP          IFDGRP         FULL         [  0]   ***   
       FILE_RECSIZ          IFLREC              4096           words  
       FINITE_PERT          IFIPER              0             x 10-6  
       FIXGEOM              IFIXGM         OFF          [  0]   ***   
       FOCK                 IFOCK          AO           [  1]   ***   
       FREQ_ALGORI          IVIALG         STANDARD     [  0]   ***   
       FROZEN_CORE          IFROCO         ON           [  1]   ***   
       FROZEN_VIRT          IFROVI         OFF          [  0]   ***   
       GAMMA_ABCD           IGABCD         STORE        [  0]   ***   
       GAMMA_ABCI           IGABCI         STORE        [  0]   ***   
       GENBAS_1             IGNBS1              0               ***   
       GENBAS_2             IGNBS2              0               ***   
       GENBAS_3             IGNBS3              0               ***   
       GENBAS_4             IGNBS4              0               ***   
       GEO_CONV             ICONTL              5              H/bohr 
       GEO_MAXCYC           IOPTCY             50               ***   
       GEO_MAXSTEP          IMXSTP            300            millibohr
       GEO_METHOD           INR            SINGLE_POINT [  5]   ***   
       GIAO                 IGIAO          OFF          [  1]   ***   
       GIMIC                IGIMIC         OFF          [  0]   ***   
       GRID                 IGRID          OFF          [  0]   ***   
       GRID_ALGO            IGALGO         SERIAL       [  0]   ***   
       GUESS                IGUESS            MOREAD    [  0]   ***   
       HBAR                 IHBAR              OFF      [  0]   ***   
       HESS_TYPE            IHESTP         SCF          [  0]   ***   
       HF2_FILE             IHF2Fl         USE          [  1]   ***   
       HFSTABILITY          ISTABL         OFF          [  0]   ***   
       INCORE               INCORE             OFF      [  0]   ***   
       INPUT_MRCC           IMRCC          OFF          [  0]   ***   
       INTEGRALS            INTTYP             VMOL     [  1]   ***   
       JODA_PRINT           IJPRNT              4               ***   
       LINDEP_TOL           ILINDP              8               ***   
       LINEQ_CONV           IZTACN          10D-  7           cycles  
       LINEQ_EXPOR          ILMAXD              5               ***   
       LINEQ_MAXCY          ILMAXC             50               ***   
       LINEQ_TYPE           ILTYPE         DIIS         [  1]   ***   
       LOCK_ORBOCC          ILOCOC             OFF      [  0]   ***   
       MEMORY_SIZE          IMEMSZ         *********           words  
       MEM_UNIT             IMEMU          GB           [  3]   ***   
       MRCC                 IMRCCC         OFF          [  0]   ***   
       MULTIPLICTY          IMULTP              1               ***   
       NEGEVAL              IDIE             ABORT      [  0]   ***   
       NEWNORM              INEWNO         OFF          [  0]   ***   
       NON-HF               INONHF             OFF      [  0]   ***   
       NTOP_TAMP            ITOPT2             15               ***   
       NUC_MODEL            INUCMO         POINT        [  0]   ***   
       OCCUPATION           IOCCU   ESTIMATED BY SCF 
       OPEN-SHELL           IOPEN          SPIN-ORBITAL [  0]   ***   
       ORBITALS             IORBTP           STANDARD   [  0]   ***   
       PARALLEL             IPARAL         ON           [  1]   ***   
       PARA_INT             IPINTS         ON           [  1]   ***   
       PARA_PRINT           IPPRIN              0               ***   
       PERT_ORB             IPTORB         STANDARD     [  0]   ***   
       POINTS               IGRDFD              0               ***   
       PRINT                IPRNT               4               ***   
       PROPS                IPROPS             OFF      [  0]   ***   
       PROP_INTEGR          IINTYP         INTERNAL     [  0]   ***   
       PSI                  IPSI           OFF          [  0]   ***   
       QUARTIC              IQUART         OFF          [  0]   ***   
       RAMAN_INT            IRAMIN         OFF          [  0]   ***   
       RAMAN_ORB            IRAMRE         UNRELAXED    [  0]   ***   
       RDO                  IRDOFM             OFF      [  0]   ***   
       REFERENCE            IREFNC             RHF      [  0]   ***   
       RELATIVIST           IRELAT         OFF          [  0]   ***   
       RELAX_DENS           IRDENS             OFF      [  0]   ***   
       RESET_FLAGS          IRESET             OFF      [  0]   ***   
       RESTART_CC           ICCRES         OFF          [  0]   ***   
       ROT_EVEC             ROTVEC              0               ***   
       SAVE_INTS            ISVINT              ON      [  1]   ***   
       SCALE_ON             ISTCRT              0               ***   
       SCF_CONV             ISCFCV          10D- 14             ***   
       SCF_DAMPING          IDAMP               0             x 10-3  
       SCF_EXPORDE          IRPPOR              6               ***   
       SCF_EXPSTAR          IRPPLS              5               ***   
       SCF_EXTRAPO          IRPP                ON      [  1]   ***   
       SCF_MAXCYC           ISCFCY            ***              cycles 
       SCF_NOSTOP           ISCFST         OFF          [  0]   ***   
       SCF_PRINT            ISCFPR              0               ***   
       SD_FIELD             IFINSD              0             x 10-6  
       SEQUENCE             ISEQUE         OFF          [  0]   ***   
       SOPERT               IPERSO         OFF          [  0]   ***   
       SPHERICAL            IDFGHI             ON       [  1]   ***   
       SPINORBIT            ISOCAL         OFF          [  0]   ***   
       SPINROTATIO          ISRCON         OFF          [  0]   ***   
       SPIN_FLIP            ISPFLP         OFF          [  0]   ***   
       SPIN_ORBIT           ISPORB         OFF          [  0]   ***   
       SPIN_SCAL            ISCSMP         OFF          [  0]   ***   
       SUBGROUP             ISUBGP         DEFAULT      [  0]   ***   
       SUBGRPAXIS           ISBXYZ         X            [  0]   ***   
       SYMMETRY             ISYM             ON         [  0]   ***   
       SYM_CHECK            ISYMCK         OVERRIDE     [  1]   ***   
       T3_EXTRAPOL          IT3EXT         ON           [  1]   ***   
       TAMP_SUM             IEVERY              5               ***   
       TESTSUITE            ITESTS         OFF          [  0]   ***   
       THERMOCH             ITHERM         OFF          [  0]   ***   
       TOL_CHOLESK          ITOLCH          10D-  4             ***   
       TRANGRAD             IRESRM         OFF          [  0]   ***   
       TRANS_INV            ITRAIN         USE          [  0]   ***   
       TREAT_PERT           ITREAT         SIMULTANEOUS [  0]   ***   
       UIJ_THRESHO          IUIJTH              1               ***   
       UNITS                IUNITS         BOHR         [  1]   ***   
       UNOS                 IUNOS          OFF          [  0]   ***   
       UPDATE_HESS          IHUPDT         ON           [  1]   ***   
       VIBPHASE             ISETPH         STANDARD     [  0]   ***   
       VIBRATION            IVIB              NO        [  0]   ***   
       VIB_ALGORIT          IGEALG         STANDARD     [  0]   ***   
       VNATORB              IVNORB         OFF          [  0]   ***   
       VTRAN                IVTRAN         FULL/PARTIAL [  0]   ***   
       XFIELD               IXEFLD              0             x 10-6  
       XFORM_TOL            IXFTOL          10D- 18             ***   
       YFIELD               IYEFLD              0             x 10-6  
       ZFIELD               IZEFLD              0             x 10-6  
    -------------------------------------------------------------------
   2 entries found in Z-matrix 
   Job Title : TITLE                                                                           
 Variable names read by FETCHZ
  1           
  2           
  3           
  4 R         
  5           
  6           
 Atomic symbols read by FETCHZ
  1 Cl   
  2 Cl   
 Connectivity matrix read by FETCHZ
  1   0
  2   0
  3   0
  4   1
  5   0
  6   0
   There are  1 unique internal coordinates.
   Of these,  0 will be optimized.
   User supplied Z-matrix: 
--------------------------------------------------------------------------------
       SYMBOL    BOND      LENGTH    ANGLE     ANGLE     DIHED     ANGLE
                  TO      (ANGST)    WRT      (DEG)      WRT      (DEG)
--------------------------------------------------------------------------------
        Cl   
        Cl         1         R    
                  *Initial values for internal coordinates* 
                      Name             Value
                        R               3.7563975905
--------------------------------------------------------------------------------
  1  CL        17    34.96885
  2  CL        17    34.96885
   34.9688527210
   34.9688527210
 After translation to center of mass coordinates 
        0.000000000000    0.000000000000   -1.878198795265
        0.000000000000    0.000000000000    1.878198795265
  Inertia tensor (amu*bohr**2)
  246.71440    0.00000    0.00000
    0.00000  246.71440    0.00000
    0.00000    0.00000    0.00000
    Inertia tensor:
      246.714397821294    0.000000000000    0.000000000000
        0.000000000000  246.714397821294    0.000000000000
        0.000000000000    0.000000000000    0.000000000000
    Principal axis orientation for molecular system: 
       -0.000000000000    0.000000000000    1.878198795265
        0.000000000000    0.000000000000   -1.878198795265
    Diagonalized inertia tensor:
      246.714397821294    0.000000000000    0.000000000000
        0.000000000000  246.714397821294    0.000000000000
        0.000000000000    0.000000000000    0.000000000000
    Eigenvectors of inertia tensor: 
        1.000000000000    0.000000000000    0.000000000000
        0.000000000000    1.000000000000    0.000000000000
        0.000000000000    0.000000000000   -1.000000000000
 factor:   60.1997200000000     
   Rotational constants (in cm-1): 
          0.2440057027             0.2440057027
   Rotational constants (in MHz): 
       7315.1079618679          7315.1079618679
  @SYMMETRY-I, Handedness of inertial frame:-1.00000
  @SYMMETRY-I, Sense of inertial frame y-axis will be changed.
  @SYMMETRY-I, The symmetry group is 2-fold degenerate.
  @SYMMETRY-I, The molecule belongs to a point group with doubly degenerate representations.
  @SYMMETRY-I, The molecule is linear.
   Principal axis orientation for molecule:
       -0.000000000000    0.000000000000    1.878198795265
        0.000000000000    0.000000000000   -1.878198795265
   Reflection in plane  3 is a valid symmetry operation.
   Rotation about  3 is a valid symmetry operation 
   Reflection in plane  2 is a valid symmetry operation.
   Rotation about  2 is a valid symmetry operation 
   Reflection in plane  1 is a valid symmetry operation.
   Rotation about  1 is a valid symmetry operation 
   The molecule possesses an inversion center. 
  Symmetry bits:    7   7   1
********************************************************************************
   The full molecular point group is DXh .
   The largest Abelian subgroup of the full molecular point group is D2h .
   The computational point group is D2h .
********************************************************************************
--------------------------------------------------------------------------------
   Analysis of internal coordinates specified by Z-matrix 
--------------------------------------------------------------------------------
   *The nuclear repulsion energy is   76.935412994774126 a.u.
   *There is   1 degree of freedom within the tot. symm. molecular subspace.
   *Z-matrix requests optimization of   0 coordinates.
   *The optimization is constrained.
   *The following   1 parameters can have non-zero 
    derivatives within the totally symmetric subspace:
             R    [ 1]
   *The following   0 parameters are to be optimized:

   *The following coordinates must be varied in an  unconstrained optimization.
             R    [ 1]
--------------------------------------------------------------------------------
 ----------------------------------------------------------------
 Z-matrix   Atomic            Coordinates (in bohr)
  Symbol    Number           X              Y              Z
 ----------------------------------------------------------------
     CL       17        -0.00000000     0.00000000     1.87819880
     CL       17         0.00000000     0.00000000    -1.87819880
 ----------------------------------------------------------------
   Interatomic distance matrix (Angstroms) 
 
                 CL            CL   
                [ 1]        [ 2]
  CL   [ 1]     0.00000
  CL   [ 2]     1.98780     0.00000
  Inertia tensor (amu*bohr**2)
  246.71440    0.00000    0.00000
    0.00000  246.71440    0.00000
    0.00000    0.00000    0.00000
   Rotational constants (in cm-1): 
          0.2440057027             0.0000000000
   Rotational constants (in MHz): 
       7315.1079618679             0.0000000000
  @GTFLGS-W, Keyword #GEOM not known and is ignored.
  @GTFLGS-W, Keyword #COORD not known and is ignored.
  @GTFLGS-W, Keyword #CC_PROG not known and is ignored.
  @GTFLGS-W, Keyword #DROPMO not known and is ignored.
  @GTFLGS-W, Keyword #CONTRACTION not known and is ignored.
  @GTFLGS-W, Keyword #EXCITE not known and is ignored.
  @GTFLGS-W, Keyword #ESTATE_CONV not known and is ignored.
  @GTFLGS-W, Keyword #ESTATE_SYM not known and is ignored.
  @GTFLGS-W, Keyword #SCF_DAMPING not known and is ignored.
  @GTFLGS-W, Keyword #OCCUPATION not known and is ignored.
  There are  10 frozen-core orbitals.
  There are   84 basis functions.
 @GEOPT-W, Archive file not created for single-point calculation.
  @CHECKOUT-I, Total execution time (CPU/WALL):        0.49/       1.29 seconds.
--executable xjoda finished with status     0 in        3.79 seconds (walltime).
 --invoking executable--
/home/nike/cfour_v2.00beta/cfour_v2.00beta/bin/xvmol
 Serial version of molecule started
********************************************************************************
                    Input from MOL file
********************************************************************************
INTGRL        1    0    1    0    0    0    0    0    0                         
         *** CFOUR Program System (Release V0.1) ***                            
TITLE                                                                           
    1    3 X  Y   Z   0.10E-08              0    0                              
   9999.00      3.00                                                            
         17.00000000    1    4    1    1    1    1                              
CL#1  -0.000000000000000   0.000000000000000   1.878198795265000                
   14    5                                                                      
   69507.9909450000       5.431489749700000E-004  0.000000000000000E+000        
  0.000000000000000E+000  0.000000000000000E+000  0.000000000000000E+000        
   10426.1568800000       4.199046396100000E-003  0.000000000000000E+000        
  0.000000000000000E+000  0.000000000000000E+000  0.000000000000000E+000        
   2373.23340610000       2.159214167900000E-002  0.000000000000000E+000        
  0.000000000000000E+000  0.000000000000000E+000  0.000000000000000E+000        
   671.564200710000       8.459885009400001E-002  0.000000000000000E+000        
  0.000000000000000E+000  0.000000000000000E+000  0.000000000000000E+000        
   218.419997900000       0.247572497240000       0.000000000000000E+000        
  0.000000000000000E+000  0.000000000000000E+000  0.000000000000000E+000        
   77.5722497140000       0.470169302280000       0.000000000000000E+000        
  0.000000000000000E+000  0.000000000000000E+000  0.000000000000000E+000        
   28.8888152770000       0.374363707160000       0.000000000000000E+000        
  0.000000000000000E+000  0.000000000000000E+000  0.000000000000000E+000        
   127.105271850000       0.000000000000000E+000  2.518216660300000E-002        
  0.000000000000000E+000  0.000000000000000E+000  0.000000000000000E+000        
   39.3395829610000       0.000000000000000E+000  0.107861124560000             
  0.000000000000000E+000  0.000000000000000E+000  0.000000000000000E+000        
   7.67406799890000       0.000000000000000E+000 -0.274088215740000             
  0.000000000000000E+000  0.000000000000000E+000  0.000000000000000E+000        
   3.87456276300000       0.000000000000000E+000  0.000000000000000E+000        
   1.32138750140000       0.000000000000000E+000  0.000000000000000E+000        
   1.83858325730000       0.000000000000000E+000  0.000000000000000E+000        
  0.686369553680000       0.000000000000000E+000  0.000000000000000E+000        
  0.502290575420000       0.000000000000000E+000  0.000000000000000E+000        
  0.000000000000000E+000   1.00000000000000       0.000000000000000E+000        
  0.179627234200000       0.000000000000000E+000  0.000000000000000E+000        
  0.000000000000000E+000  0.000000000000000E+000   1.00000000000000             
    9    5                                                                      
   666.504232840000       2.363266383600000E-003  0.000000000000000E+000        
  0.000000000000000E+000  0.000000000000000E+000  0.000000000000000E+000        
   157.642416900000       1.887930037400000E-002  0.000000000000000E+000        
  0.000000000000000E+000  0.000000000000000E+000  0.000000000000000E+000        
   50.2625209780000       8.720634127300000E-002  0.000000000000000E+000        
  0.000000000000000E+000  0.000000000000000E+000  0.000000000000000E+000        
   18.5360781050000       0.252856129700000       0.000000000000000E+000        
  0.000000000000000E+000  0.000000000000000E+000  0.000000000000000E+000        
   7.29405327770000       0.435071548200000       0.000000000000000E+000        
  0.000000000000000E+000  0.000000000000000E+000  0.000000000000000E+000        
   2.94332489950000       0.000000000000000E+000  0.350265131650000             
  0.000000000000000E+000  0.000000000000000E+000  0.000000000000000E+000        
   1.04049708180000       0.000000000000000E+000  0.000000000000000E+000        
   1.00000000000000       0.000000000000000E+000  0.000000000000000E+000        
  0.384564150800000       0.000000000000000E+000  0.000000000000000E+000        
  0.000000000000000E+000   1.00000000000000       0.000000000000000E+000        
  0.130696427320000       0.000000000000000E+000  0.000000000000000E+000        
  0.000000000000000E+000  0.000000000000000E+000   1.00000000000000             
    3    3                                                                      
  0.339000000000000        1.00000000000000       0.000000000000000E+000        
  0.000000000000000E+000                                                        
   4.61000000000000       0.000000000000000E+000   1.00000000000000             
  0.000000000000000E+000                                                        
   1.01100000000000       0.000000000000000E+000  0.000000000000000E+000        
   1.00000000000000                                                             
    1    1                                                                      
  0.706000000000000        1.00000000000000                                     
FINISH                                                                          
 
********************************************************************************
 One- and two-electron integrals over symmetry-adapted AOs are calculated.

  Spherical harmonics are used.
  
   1 types of atoms
   3 symmetry operations

   Reflection in the YZ-plane
   Reflection in the XZ-plane
   Reflection in the XY-plane
  
  Integrals less than  0.10E-13 are neglected.

  Atomic type number  1 :
  -----------------------

    Nuclear charge:                       17
    number of symmetry independent atoms:  1
    highest orbital type:                  f

      1 groups of CGTOs of s type
      1 groups of CGTOs of p type
      1 groups of CGTOs of d type
      1 groups of CGTOs of f type

    nuclear coordinates (in a.u.) are :

    CL#1        0.000000000000000        0.000000000000000        1.878198795265000
  
   Basis function not normalized: 
   Center (as ordered in MOL file):   1
   Angular Momentum type          : s
   Offset within angular momentum :  1
   <chi|chi>                      :    0.9473899799
   Basis function not normalized: 
   Center (as ordered in MOL file):   1
   Angular Momentum type          : s
   Offset within angular momentum :  2
   <chi|chi>                      :    4.4847960196
   Basis function not normalized: 
   Center (as ordered in MOL file):   1
   Angular Momentum type          : s
   Offset within angular momentum :  3
   <chi|chi>                      :    0.5092890735
   Basis function not normalized: 
   Center (as ordered in MOL file):   1
   Angular Momentum type          : p
   Offset within angular momentum :  1
   <chi|chi>                      :    1.4176357109
   Basis function not normalized: 
   Center (as ordered in MOL file):   1
   Angular Momentum type          : p
   Offset within angular momentum :  2
   <chi|chi>                      :    2.8549801554
   Internuclear distances (A) :

     for atom CL#1 (coordinates :   0.00000   0.00000   1.87820)

     CL#1   5     distance is  1.988

   Group multiplication table :

         1   2   3   4   5   6   7   8
         2   1   4   3   6   5   8   7
         3   4   1   2   7   8   5   6
         4   3   2   1   8   7   6   5
         5   6   7   8   1   2   3   4
         6   5   8   7   2   1   4   3
         7   8   5   6   3   4   1   2
         8   7   6   5   4   3   2   1

   Gaussian basis information :

   atom                 exponent      coefficients

 CL#1  1    S   
+                 1   69507.990945   0.0005431   0.0000000   0.0000000   0.0000000   0.0000000
                  2   10426.156880   0.0041990   0.0000000   0.0000000   0.0000000   0.0000000
                  3    2373.233406   0.0215921   0.0000000   0.0000000   0.0000000   0.0000000
                  4     671.564201   0.0845989   0.0000000   0.0000000   0.0000000   0.0000000
                  5     218.419998   0.2475725   0.0000000   0.0000000   0.0000000   0.0000000
                  6      77.572250   0.4701693   0.0000000   0.0000000   0.0000000   0.0000000
                  7      28.888815   0.3743637   0.0000000   0.0000000   0.0000000   0.0000000
                  8     127.105272   0.0000000   0.0251822   0.0000000   0.0000000   0.0000000
                  9      39.339583   0.0000000   0.1078611   0.0000000   0.0000000   0.0000000
                 10       7.674068   0.0000000  -0.2740882   0.0000000   0.0000000   0.0000000
                 11       3.874563   0.0000000   0.0000000   1.3213875   0.0000000   0.0000000
                 12       1.838583   0.0000000   0.0000000   0.6863696   0.0000000   0.0000000
                 13       0.502291   0.0000000   0.0000000   0.0000000   1.0000000   0.0000000
                 14       0.179627   0.0000000   0.0000000   0.0000000   0.0000000   1.0000000

 CL#1  5    S   
+                15   69507.990945   0.0005431   0.0000000   0.0000000   0.0000000   0.0000000
                 16   10426.156880   0.0041990   0.0000000   0.0000000   0.0000000   0.0000000
                 17    2373.233406   0.0215921   0.0000000   0.0000000   0.0000000   0.0000000
                 18     671.564201   0.0845989   0.0000000   0.0000000   0.0000000   0.0000000
                 19     218.419998   0.2475725   0.0000000   0.0000000   0.0000000   0.0000000
                 20      77.572250   0.4701693   0.0000000   0.0000000   0.0000000   0.0000000
                 21      28.888815   0.3743637   0.0000000   0.0000000   0.0000000   0.0000000
                 22     127.105272   0.0000000   0.0251822   0.0000000   0.0000000   0.0000000
                 23      39.339583   0.0000000   0.1078611   0.0000000   0.0000000   0.0000000
                 24       7.674068   0.0000000  -0.2740882   0.0000000   0.0000000   0.0000000
                 25       3.874563   0.0000000   0.0000000   1.3213875   0.0000000   0.0000000
                 26       1.838583   0.0000000   0.0000000   0.6863696   0.0000000   0.0000000
                 27       0.502291   0.0000000   0.0000000   0.0000000   1.0000000   0.0000000
                 28       0.179627   0.0000000   0.0000000   0.0000000   0.0000000   1.0000000

 CL#1  1    X   
+                29     666.504233   0.0023633   0.0000000   0.0000000   0.0000000   0.0000000
                 30     157.642417   0.0188793   0.0000000   0.0000000   0.0000000   0.0000000
                 31      50.262521   0.0872063   0.0000000   0.0000000   0.0000000   0.0000000
                 32      18.536078   0.2528561   0.0000000   0.0000000   0.0000000   0.0000000
                 33       7.294053   0.4350715   0.0000000   0.0000000   0.0000000   0.0000000
                 34       2.943325   0.0000000   0.3502651   0.0000000   0.0000000   0.0000000
                 35       1.040497   0.0000000   0.0000000   1.0000000   0.0000000   0.0000000
                 36       0.384564   0.0000000   0.0000000   0.0000000   1.0000000   0.0000000
                 37       0.130696   0.0000000   0.0000000   0.0000000   0.0000000   1.0000000

 CL#1  5    X   
+                38     666.504233   0.0023633   0.0000000   0.0000000   0.0000000   0.0000000
                 39     157.642417   0.0188793   0.0000000   0.0000000   0.0000000   0.0000000
                 40      50.262521   0.0872063   0.0000000   0.0000000   0.0000000   0.0000000
                 41      18.536078   0.2528561   0.0000000   0.0000000   0.0000000   0.0000000
                 42       7.294053   0.4350715   0.0000000   0.0000000   0.0000000   0.0000000
                 43       2.943325   0.0000000   0.3502651   0.0000000   0.0000000   0.0000000
                 44       1.040497   0.0000000   0.0000000   1.0000000   0.0000000   0.0000000
                 45       0.384564   0.0000000   0.0000000   0.0000000   1.0000000   0.0000000
                 46       0.130696   0.0000000   0.0000000   0.0000000   0.0000000   1.0000000

 CL#1  1    Y   
+                47     666.504233   0.0023633   0.0000000   0.0000000   0.0000000   0.0000000
                 48     157.642417   0.0188793   0.0000000   0.0000000   0.0000000   0.0000000
                 49      50.262521   0.0872063   0.0000000   0.0000000   0.0000000   0.0000000
                 50      18.536078   0.2528561   0.0000000   0.0000000   0.0000000   0.0000000
                 51       7.294053   0.4350715   0.0000000   0.0000000   0.0000000   0.0000000
                 52       2.943325   0.0000000   0.3502651   0.0000000   0.0000000   0.0000000
                 53       1.040497   0.0000000   0.0000000   1.0000000   0.0000000   0.0000000
                 54       0.384564   0.0000000   0.0000000   0.0000000   1.0000000   0.0000000
                 55       0.130696   0.0000000   0.0000000   0.0000000   0.0000000   1.0000000

 CL#1  5    Y   
+                56     666.504233   0.0023633   0.0000000   0.0000000   0.0000000   0.0000000
                 57     157.642417   0.0188793   0.0000000   0.0000000   0.0000000   0.0000000
                 58      50.262521   0.0872063   0.0000000   0.0000000   0.0000000   0.0000000
                 59      18.536078   0.2528561   0.0000000   0.0000000   0.0000000   0.0000000
                 60       7.294053   0.4350715   0.0000000   0.0000000   0.0000000   0.0000000
                 61       2.943325   0.0000000   0.3502651   0.0000000   0.0000000   0.0000000
                 62       1.040497   0.0000000   0.0000000   1.0000000   0.0000000   0.0000000
                 63       0.384564   0.0000000   0.0000000   0.0000000   1.0000000   0.0000000
                 64       0.130696   0.0000000   0.0000000   0.0000000   0.0000000   1.0000000

 CL#1  1    Z   
+                65     666.504233   0.0023633   0.0000000   0.0000000   0.0000000   0.0000000
                 66     157.642417   0.0188793   0.0000000   0.0000000   0.0000000   0.0000000
                 67      50.262521   0.0872063   0.0000000   0.0000000   0.0000000   0.0000000
                 68      18.536078   0.2528561   0.0000000   0.0000000   0.0000000   0.0000000
                 69       7.294053   0.4350715   0.0000000   0.0000000   0.0000000   0.0000000
                 70       2.943325   0.0000000   0.3502651   0.0000000   0.0000000   0.0000000
                 71       1.040497   0.0000000   0.0000000   1.0000000   0.0000000   0.0000000
                 72       0.384564   0.0000000   0.0000000   0.0000000   1.0000000   0.0000000
                 73       0.130696   0.0000000   0.0000000   0.0000000   0.0000000   1.0000000

 CL#1  5    Z   
+                74     666.504233   0.0023633   0.0000000   0.0000000   0.0000000   0.0000000
                 75     157.642417   0.0188793   0.0000000   0.0000000   0.0000000   0.0000000
                 76      50.262521   0.0872063   0.0000000   0.0000000   0.0000000   0.0000000
                 77      18.536078   0.2528561   0.0000000   0.0000000   0.0000000   0.0000000
                 78       7.294053   0.4350715   0.0000000   0.0000000   0.0000000   0.0000000
                 79       2.943325   0.0000000   0.3502651   0.0000000   0.0000000   0.0000000
                 80       1.040497   0.0000000   0.0000000   1.0000000   0.0000000   0.0000000
                 81       0.384564   0.0000000   0.0000000   0.0000000   1.0000000   0.0000000
                 82       0.130696   0.0000000   0.0000000   0.0000000   0.0000000   1.0000000

 CL#1  1    XX  
+                83       0.339000   1.0000000   0.0000000   0.0000000
                 84       4.610000   0.0000000   1.0000000   0.0000000
                 85       1.011000   0.0000000   0.0000000   1.0000000

 CL#1  5    XX  
+                86       0.339000   1.0000000   0.0000000   0.0000000
                 87       4.610000   0.0000000   1.0000000   0.0000000
                 88       1.011000   0.0000000   0.0000000   1.0000000

 CL#1  1    XY  
+                89       0.339000   1.0000000   0.0000000   0.0000000
                 90       4.610000   0.0000000   1.0000000   0.0000000
                 91       1.011000   0.0000000   0.0000000   1.0000000

 CL#1  5    XY  
+                92       0.339000   1.0000000   0.0000000   0.0000000
                 93       4.610000   0.0000000   1.0000000   0.0000000
                 94       1.011000   0.0000000   0.0000000   1.0000000

 CL#1  1    XZ  
+                95       0.339000   1.0000000   0.0000000   0.0000000
                 96       4.610000   0.0000000   1.0000000   0.0000000
                 97       1.011000   0.0000000   0.0000000   1.0000000

 CL#1  5    XZ  
+                98       0.339000   1.0000000   0.0000000   0.0000000
                 99       4.610000   0.0000000   1.0000000   0.0000000
                100       1.011000   0.0000000   0.0000000   1.0000000

 CL#1  1    YY  
+               101       0.339000   1.0000000   0.0000000   0.0000000
                102       4.610000   0.0000000   1.0000000   0.0000000
                103       1.011000   0.0000000   0.0000000   1.0000000

 CL#1  5    YY  
+               104       0.339000   1.0000000   0.0000000   0.0000000
                105       4.610000   0.0000000   1.0000000   0.0000000
                106       1.011000   0.0000000   0.0000000   1.0000000

 CL#1  1    YZ  
+               107       0.339000   1.0000000   0.0000000   0.0000000
                108       4.610000   0.0000000   1.0000000   0.0000000
                109       1.011000   0.0000000   0.0000000   1.0000000

 CL#1  5    YZ  
+               110       0.339000   1.0000000   0.0000000   0.0000000
                111       4.610000   0.0000000   1.0000000   0.0000000
                112       1.011000   0.0000000   0.0000000   1.0000000

 CL#1  1    ZZ  
+               113       0.339000   1.0000000   0.0000000   0.0000000
                114       4.610000   0.0000000   1.0000000   0.0000000
                115       1.011000   0.0000000   0.0000000   1.0000000

 CL#1  5    ZZ  
+               116       0.339000   1.0000000   0.0000000   0.0000000
                117       4.610000   0.0000000   1.0000000   0.0000000
                118       1.011000   0.0000000   0.0000000   1.0000000

 CL#1  1    F300
+               119       0.706000   1.0000000

 CL#1  5    F300
+               120       0.706000   1.0000000

 CL#1  1    F210
+               121       0.706000   1.0000000

 CL#1  5    F210
+               122       0.706000   1.0000000

 CL#1  1    F201
+               123       0.706000   1.0000000

 CL#1  5    F201
+               124       0.706000   1.0000000

 CL#1  1    F120
+               125       0.706000   1.0000000

 CL#1  5    F120
+               126       0.706000   1.0000000

 CL#1  1    F111
+               127       0.706000   1.0000000

 CL#1  5    F111
+               128       0.706000   1.0000000

 CL#1  1    F102
+               129       0.706000   1.0000000

 CL#1  5    F102
+               130       0.706000   1.0000000

 CL#1  1    F030
+               131       0.706000   1.0000000

 CL#1  5    F030
+               132       0.706000   1.0000000

 CL#1  1    F021
+               133       0.706000   1.0000000

 CL#1  5    F021
+               134       0.706000   1.0000000

 CL#1  1    F012
+               135       0.706000   1.0000000

 CL#1  5    F012
+               136       0.706000   1.0000000

 CL#1  1    F003
+               137       0.706000   1.0000000

 CL#1  5    F003
+               138       0.706000   1.0000000
 96 84
  1  2  3  4  5  6  7  8  9 10 11 12 13 14 15 16********* 17 18*** 19 20 21
 22 23 24 25 26 27 28*** 29 30 31 32 33 34 35 36 37 38*** 39 40 41 42 43 44
 45 46 47 48 49 50 51 52 53 54 55 56 57 58********* 59 60*** 61 62 63 64 65
 66 67 68 69 70*** 71 72 73 74 75 76 77 78 79 80*** 81 82 83 84
1

             SYMMETRY TRANSFORMATION INFO
             84 SYMMETRY ADAPTED BASIS FUNCTIONS 


          irreducible representation number 1

    1    1  CL#1     1s     2   1   1.0   2   1.0
    2    2  CL#1     1s     2   3   1.0   4   1.0
    3    3  CL#1     1s     2   5   1.0   6   1.0
    4    4  CL#1     1s     2   7   1.0   8   1.0
    5    5  CL#1     1s     2   9   1.0  10   1.0
    6    6  CL#1     2pz    2  31   1.0  32  -1.0
    7    7  CL#1     2pz    2  33   1.0  34  -1.0
    8    8  CL#1     2pz    2  35   1.0  36  -1.0
    9    9  CL#1     2pz    2  37   1.0  38  -1.0
   10   10  CL#1     2pz    2  39   1.0  40  -1.0
   11   11  CL#1     3d2-   6  41  -1.0  59  -1.0  71   2.0  42  -1.0  60  -1.0  72   2.0
   12   12  CL#1     3d2-   6  43  -1.0  61  -1.0  73   2.0  44  -1.0  62  -1.0  74   2.0
   13   13  CL#1     3d2-   6  45  -1.0  63  -1.0  75   2.0  46  -1.0  64  -1.0  76   2.0
   14   14  CL#1     3d1+   4  41   1.0  59  -1.0  42   1.0  60  -1.0
   15   15  CL#1     3d1+   4  43   1.0  61  -1.0  44   1.0  62  -1.0
   16   16  CL#1     3d1+   4  45   1.0  63  -1.0  46   1.0  64  -1.0
   17   17  CL#1     4f1-   6  81  -3.0  91  -3.0  95   2.0  82   3.0  92   3.0  96  -2.0
   18   18  CL#1     4f3+   4  81   1.0  91  -1.0  82  -1.0  92   1.0


          irreducible representation number 2

   19    1  CL#1     2px    2  11   1.0  12   1.0
   20    2  CL#1     2px    2  13   1.0  14   1.0
   21    3  CL#1     2px    2  15   1.0  16   1.0
   22    4  CL#1     2px    2  17   1.0  18   1.0
   23    5  CL#1     2px    2  19   1.0  20   1.0
   24    6  CL#1     3d0    2  53   1.0  54  -1.0
   25    7  CL#1     3d0    2  55   1.0  56  -1.0
   26    8  CL#1     3d0    2  57   1.0  58  -1.0
   27    9  CL#1     4f3-   6  77  -1.0  83  -1.0  87   4.0  78  -1.0  84  -1.0  88   4.0
   28   10  CL#1     4f0    4  77   1.0  83  -3.0  78   1.0  84  -3.0


          irreducible representation number 3

   29    1  CL#1     2py    2  21   1.0  22   1.0
   30    2  CL#1     2py    2  23   1.0  24   1.0
   31    3  CL#1     2py    2  25   1.0  26   1.0
   32    4  CL#1     2py    2  27   1.0  28   1.0
   33    5  CL#1     2py    2  29   1.0  30   1.0
   34    6  CL#1     3d2+   2  65   1.0  66  -1.0
   35    7  CL#1     3d2+   2  67   1.0  68  -1.0
   36    8  CL#1     3d2+   2  69   1.0  70  -1.0
   37    9  CL#1     4f2-   6  79  -1.0  89  -1.0  93   4.0  80  -1.0  90  -1.0  94   4.0
   38   10  CL#1     4f2+   4  79   3.0  89  -1.0  80   3.0  90  -1.0


          irreducible representation number 4

   39    1  CL#1     3d1-   2  47   1.0  48   1.0
   40    2  CL#1     3d1-   2  49   1.0  50   1.0
   41    3  CL#1     3d1-   2  51   1.0  52   1.0
   42    4  CL#1     4f1+   2  85   1.0  86  -1.0


          irreducible representation number 5

   43    1  CL#1     1s     2   1   1.0   2  -1.0
   44    2  CL#1     1s     2   3   1.0   4  -1.0
   45    3  CL#1     1s     2   5   1.0   6  -1.0
   46    4  CL#1     1s     2   7   1.0   8  -1.0
   47    5  CL#1     1s     2   9   1.0  10  -1.0
   48    6  CL#1     2pz    2  31   1.0  32   1.0
   49    7  CL#1     2pz    2  33   1.0  34   1.0
   50    8  CL#1     2pz    2  35   1.0  36   1.0
   51    9  CL#1     2pz    2  37   1.0  38   1.0
   52   10  CL#1     2pz    2  39   1.0  40   1.0
   53   11  CL#1     3d2-   6  41  -1.0  59  -1.0  71   2.0  42   1.0  60   1.0  72  -2.0
   54   12  CL#1     3d2-   6  43  -1.0  61  -1.0  73   2.0  44   1.0  62   1.0  74  -2.0
   55   13  CL#1     3d2-   6  45  -1.0  63  -1.0  75   2.0  46   1.0  64   1.0  76  -2.0
   56   14  CL#1     3d1+   4  41   1.0  59  -1.0  42  -1.0  60   1.0
   57   15  CL#1     3d1+   4  43   1.0  61  -1.0  44  -1.0  62   1.0
   58   16  CL#1     3d1+   4  45   1.0  63  -1.0  46  -1.0  64   1.0
   59   17  CL#1     4f1-   6  81  -3.0  91  -3.0  95   2.0  82  -3.0  92  -3.0  96   2.0
   60   18  CL#1     4f3+   4  81   1.0  91  -1.0  82   1.0  92  -1.0


          irreducible representation number 6

   61    1  CL#1     2px    2  11   1.0  12  -1.0
   62    2  CL#1     2px    2  13   1.0  14  -1.0
   63    3  CL#1     2px    2  15   1.0  16  -1.0
   64    4  CL#1     2px    2  17   1.0  18  -1.0
   65    5  CL#1     2px    2  19   1.0  20  -1.0
   66    6  CL#1     3d0    2  53   1.0  54   1.0
   67    7  CL#1     3d0    2  55   1.0  56   1.0
   68    8  CL#1     3d0    2  57   1.0  58   1.0
   69    9  CL#1     4f3-   6  77  -1.0  83  -1.0  87   4.0  78   1.0  84   1.0  88  -4.0
   70   10  CL#1     4f0    4  77   1.0  83  -3.0  78  -1.0  84   3.0


          irreducible representation number 7

   71    1  CL#1     2py    2  21   1.0  22  -1.0
   72    2  CL#1     2py    2  23   1.0  24  -1.0
   73    3  CL#1     2py    2  25   1.0  26  -1.0
   74    4  CL#1     2py    2  27   1.0  28  -1.0
   75    5  CL#1     2py    2  29   1.0  30  -1.0
   76    6  CL#1     3d2+   2  65   1.0  66   1.0
   77    7  CL#1     3d2+   2  67   1.0  68   1.0
   78    8  CL#1     3d2+   2  69   1.0  70   1.0
   79    9  CL#1     4f2-   6  79  -1.0  89  -1.0  93   4.0  80   1.0  90   1.0  94  -4.0
   80   10  CL#1     4f2+   4  79   3.0  89  -1.0  80  -3.0  90   1.0


          irreducible representation number 8

   81    1  CL#1     3d1-   2  47   1.0  48  -1.0
   82    2  CL#1     3d1-   2  49   1.0  50  -1.0
   83    3  CL#1     3d1-   2  51   1.0  52  -1.0
   84    4  CL#1     4f1+   2  85   1.0  86   1.0
  Nuclear repulsion energy :   76.9354129948 a.u.
  required memory for a1 array                5411750  words 
  required memory for a2 array                2269589  words 
 @GETMEM-I,  Allocated      73 MB of main memory.
  @MOLECU-I, One electron integrals (CPU/WALL):        0.03/       0.03 seconds.
  @TWOEL-I,      22825 integrals of symmetry type  I I I I
  @TWOEL-I,     188297 integrals of symmetry type  I J I J
  @TWOEL-I,     111124 integrals of symmetry type  I I J J
  @TWOEL-I,     383136 integrals of symmetry type  I J K L
  @TWOEL-I, Total number of 2-e integrals     705382.
  @MOLECU-I, Two electron integrals (CPU/WALL):        4.04/       0.62 seconds.
  @CHECKOUT-I, Total execution time (CPU/WALL):        4.38/       1.03 seconds.
--executable xvmol finished with status     0 in        1.08 seconds (walltime).
 --invoking executable--
/home/nike/cfour_v2.00beta/cfour_v2.00beta/bin/xvmol2ja
 @GETMEM-I,  Allocated   11444 MB of main memory.
  @CHECKOUT-I, Total execution time (CPU/WALL):        0.06/       0.02 seconds.
--executable xvmol2ja finished with status     0 in        0.07 seconds (walltime).
 --invoking executable--
/home/nike/cfour_v2.00beta/cfour_v2.00beta/bin/xvscf
  There are   84 functions in the AO basis.

  There are 8 irreducible representations.

       Irrep        # of functions
         1                 18
         2                 10
         3                 10
         4                  4
         5                 18
         6                 10
         7                 10
         8                  4


  Parameters for SCF calculation: 
        SCF reference function:  RHF  
  Maximum number of iterations: 9999
     Full symmetry point group: DXh 
     Computational point group: D2h 
        Initial density matrix: MOREAD                 
     SCF convergence tolerance: 10**(-14)
  DIIS convergence acceleration:  ON
          Latest start for DIIS:   5
                     DIIS order:   6

  Memory information:     331072 words required.
  Fock matrices are constructed from AO integral file.
 @GETMEM-I,  Allocated       2 MB of main memory.
  Initialization and symmetry analysis required      0.020 seconds.

  @INITGES-I, Occupancies from core Hamiltonian:

          Alpha population by irrep:   4    2    2    0    4    2    2    1
           Beta population by irrep:   4    2    2    0    4    2    2    1


 total no. of electrons in initial guess :  0.000000000000000E+000
  --------------------------------------------------------------------
  Iteration         Total Energy            Largest Density Difference
  --------------------------------------------------------------------
       0            76.935412994774126              0.0000000000D+00
   current occupation vector 
     4  2  2  0  4  2  2  1
     4  2  2  0  4  2  2  1
  processed                  22825  ao basis integrals from 
                    39  buffers.
  processed                 111124  ao basis integrals from 
                   186  buffers.
  processed                 188297  ao basis integrals from 
                   314  buffers.
       1          -819.096346815558491              0.1484260795D+01
   current occupation vector 
     4  2  2  0  4  2  2  1
     4  2  2  0  4  2  2  1
  processed                  22825  ao basis integrals from 
                    39  buffers.
  processed                 111124  ao basis integrals from 
                   186  buffers.
  processed                 188297  ao basis integrals from 
                   314  buffers.
       2          -892.785465214876695              0.2474538211D+01
   current occupation vector 
     5  2  2  0  4  2  2  0
     5  2  2  0  4  2  2  0
  processed                  22825  ao basis integrals from 
                    39  buffers.
  processed                 111124  ao basis integrals from 
                   186  buffers.
  processed                 188297  ao basis integrals from 
                   314  buffers.
       3          -911.988166459050490              0.2470972716D+01
   current occupation vector 
     5  2  2  0  4  2  2  0
     5  2  2  0  4  2  2  0
  processed                  22825  ao basis integrals from 
                    39  buffers.
  processed                 111124  ao basis integrals from 
                   186  buffers.
  processed                 188297  ao basis integrals from 
                   314  buffers.
       4          -916.608182710306664              0.1289421479D+01
   current occupation vector 
     5  2  2  0  4  2  2  0
     5  2  2  0  4  2  2  0
 
 sum over diagonal and offdiagdiagonal of C(T)*S*C for irrep
                     1
  2.231548279496565E-014  5.193108670476447E-014
 reorthoganalization of MOs is carried out
 sum over diagonal and offdiagdiagonal of C(T)*S*C for irrep
                     1
  1.665334536937735E-015 -6.840223755665395E-016
 
 sum over diagonal and offdiagdiagonal of C(T)*S*C for irrep
                     2
 -8.704148513061227E-014  8.560152725094761E-014
 reorthoganalization of MOs is carried out
 sum over diagonal and offdiagdiagonal of C(T)*S*C for irrep
                     2
  6.661338147750939E-016  2.664661496245298E-016
 
 sum over diagonal and offdiagdiagonal of C(T)*S*C for irrep
                     3
  0.000000000000000E+000  2.888467970875973E-014
 reorthoganalization of MOs is carried out
 sum over diagonal and offdiagdiagonal of C(T)*S*C for irrep
                     3
  5.551115123125783E-016  2.160435732352703E-017
 
 sum over diagonal and offdiagdiagonal of C(T)*S*C for irrep
                     4
 -5.773159728050814E-015 -3.479023133979934E-015
 reorthoganalization of MOs is carried out
 sum over diagonal and offdiagdiagonal of C(T)*S*C for irrep
                     4
  1.110223024625157E-015  6.367385357735318E-017
 
 sum over diagonal and offdiagdiagonal of C(T)*S*C for irrep
                     5
 -7.216449660063518E-015 -2.869614362343577E-014
 reorthoganalization of MOs is carried out
 sum over diagonal and offdiagdiagonal of C(T)*S*C for irrep
                     5
  1.665334536937735E-015  8.741483790498412E-015
 
 sum over diagonal and offdiagdiagonal of C(T)*S*C for irrep
                     6
 -6.261657858885883E-014  8.165619396457561E-014
 reorthoganalization of MOs is carried out
 sum over diagonal and offdiagdiagonal of C(T)*S*C for irrep
                     6
 -2.220446049250313E-016 -3.497041576096941E-016
 
 sum over diagonal and offdiagdiagonal of C(T)*S*C for irrep
                     7
  4.263256414560601E-014 -3.627762201455511E-014
 reorthoganalization of MOs is carried out
 sum over diagonal and offdiagdiagonal of C(T)*S*C for irrep
                     7
 -3.330669073875470E-016 -1.439447010791401E-015
 
 sum over diagonal and offdiagdiagonal of C(T)*S*C for irrep
                     8
  3.774758283725532E-015  6.119841790448569E-016
 reorthoganalization of MOs is carried out
 sum over diagonal and offdiagdiagonal of C(T)*S*C for irrep
                     8
 -8.881784197001252E-016  8.162915818692249E-018
  processed                  22825  ao basis integrals from 
                    39  buffers.
  processed                 111124  ao basis integrals from 
                   186  buffers.
  processed                 188297  ao basis integrals from 
                   314  buffers.
       5          -918.300899087029734              0.5644147850D+00
   current occupation vector 
     5  2  2  0  4  2  2  0
     5  2  2  0  4  2  2  0
  processed                  22825  ao basis integrals from 
                    39  buffers.
  processed                 111124  ao basis integrals from 
                   186  buffers.
  processed                 188297  ao basis integrals from 
                   314  buffers.
       6          -918.979787858951340              0.2416695310D+00
   current occupation vector 
     5  2  2  0  4  2  2  0
     5  2  2  0  4  2  2  0
  processed                  22825  ao basis integrals from 
                    39  buffers.
  processed                 111124  ao basis integrals from 
                   186  buffers.
  processed                 188297  ao basis integrals from 
                   314  buffers.
       7          -918.982735139507781              0.2093741177D-01
   current occupation vector 
     5  2  2  0  4  2  2  0
     5  2  2  0  4  2  2  0
  processed                  22825  ao basis integrals from 
                    39  buffers.
  processed                 111124  ao basis integrals from 
                   186  buffers.
  processed                 188297  ao basis integrals from 
                   314  buffers.
       8          -918.982989736231161              0.3113344079D-02
   current occupation vector 
     5  2  2  0  4  2  2  0
     5  2  2  0  4  2  2  0
  processed                  22825  ao basis integrals from 
                    39  buffers.
  processed                 111124  ao basis integrals from 
                   186  buffers.
  processed                 188297  ao basis integrals from 
                   314  buffers.
       9          -918.983003704524776              0.7132621833D-03
   current occupation vector 
     5  2  2  0  4  2  2  0
     5  2  2  0  4  2  2  0
 
 sum over diagonal and offdiagdiagonal of C(T)*S*C for irrep
                     1
  2.975397705995420E-014  5.595747680272213E-014
 reorthoganalization of MOs is carried out
 sum over diagonal and offdiagdiagonal of C(T)*S*C for irrep
                     1
 -1.998401444325282E-015 -3.334219225073329E-015
 
 sum over diagonal and offdiagdiagonal of C(T)*S*C for irrep
                     2
 -8.348877145181177E-014  1.019539852279126E-013
 reorthoganalization of MOs is carried out
 sum over diagonal and offdiagdiagonal of C(T)*S*C for irrep
                     2
 -3.330669073875470E-016  3.878290342482184E-016
 
 sum over diagonal and offdiagdiagonal of C(T)*S*C for irrep
                     3
 -3.219646771412954E-015  2.758700389270825E-014
 reorthoganalization of MOs is carried out
 sum over diagonal and offdiagdiagonal of C(T)*S*C for irrep
                     3
 -1.110223024625157E-016  4.492720197720185E-016
 
 sum over diagonal and offdiagdiagonal of C(T)*S*C for irrep
                     4
 -6.439293542825908E-015 -3.149443049777231E-015
 reorthoganalization of MOs is carried out
 sum over diagonal and offdiagdiagonal of C(T)*S*C for irrep
                     4
  2.220446049250313E-016 -3.960477386315898E-016
 
 sum over diagonal and offdiagdiagonal of C(T)*S*C for irrep
                     5
 -9.325873406851315E-015 -3.247336371497829E-014
 reorthoganalization of MOs is carried out
 sum over diagonal and offdiagdiagonal of C(T)*S*C for irrep
                     5
 -1.665334536937735E-015  2.898107253095886E-015
 
 sum over diagonal and offdiagdiagonal of C(T)*S*C for irrep
                     6
 -6.195044477408373E-014  6.935559129172918E-014
 reorthoganalization of MOs is carried out
 sum over diagonal and offdiagdiagonal of C(T)*S*C for irrep
                     6
  1.221245327087672E-015 -1.951875343020181E-015
 
 sum over diagonal and offdiagdiagonal of C(T)*S*C for irrep
                     7
  4.629630012686903E-014 -4.073906185042485E-014
 reorthoganalization of MOs is carried out
 sum over diagonal and offdiagdiagonal of C(T)*S*C for irrep
                     7
 -2.220446049250313E-016  6.020696339870692E-016
 
 sum over diagonal and offdiagdiagonal of C(T)*S*C for irrep
                     8
  1.776356839400250E-015 -2.614358105786025E-015
 reorthoganalization of MOs is carried out
 sum over diagonal and offdiagdiagonal of C(T)*S*C for irrep
                     8
 -2.220446049250313E-016  5.136708052462377E-016
  processed                  22825  ao basis integrals from 
                    39  buffers.
  processed                 111124  ao basis integrals from 
                   186  buffers.
  processed                 188297  ao basis integrals from 
                   314  buffers.
      10          -918.983004004090162              0.9876322567D-04
   current occupation vector 
     5  2  2  0  4  2  2  0
     5  2  2  0  4  2  2  0
  processed                  22825  ao basis integrals from 
                    39  buffers.
  processed                 111124  ao basis integrals from 
                   186  buffers.
  processed                 188297  ao basis integrals from 
                   314  buffers.
      11          -918.983004010559284              0.1275640526D-04
   current occupation vector 
     5  2  2  0  4  2  2  0
     5  2  2  0  4  2  2  0
  processed                  22825  ao basis integrals from 
                    39  buffers.
  processed                 111124  ao basis integrals from 
                   186  buffers.
  processed                 188297  ao basis integrals from 
                   314  buffers.
      12          -918.983004010937407              0.3868970579D-05
   current occupation vector 
     5  2  2  0  4  2  2  0
     5  2  2  0  4  2  2  0
  processed                  22825  ao basis integrals from 
                    39  buffers.
  processed                 111124  ao basis integrals from 
                   186  buffers.
  processed                 188297  ao basis integrals from 
                   314  buffers.
      13          -918.983004010941613              0.7377534487D-06
   current occupation vector 
     5  2  2  0  4  2  2  0
     5  2  2  0  4  2  2  0
  processed                  22825  ao basis integrals from 
                    39  buffers.
  processed                 111124  ao basis integrals from 
                   186  buffers.
  processed                 188297  ao basis integrals from 
                   314  buffers.
      14          -918.983004010942068              0.7317250739D-07
   current occupation vector 
     5  2  2  0  4  2  2  0
     5  2  2  0  4  2  2  0
 
 sum over diagonal and offdiagdiagonal of C(T)*S*C for irrep
                     1
  2.220446049250313E-014  6.271620970118525E-014
 reorthoganalization of MOs is carried out
 sum over diagonal and offdiagdiagonal of C(T)*S*C for irrep
                     1
  1.665334536937735E-015  3.907239006911364E-015
 
 sum over diagonal and offdiagdiagonal of C(T)*S*C for irrep
                     2
 -9.492406860545088E-014  9.672581676826780E-014
 reorthoganalization of MOs is carried out
 sum over diagonal and offdiagdiagonal of C(T)*S*C for irrep
                     2
 -6.661338147750939E-016  3.047265241926696E-016
 
 sum over diagonal and offdiagdiagonal of C(T)*S*C for irrep
                     3
  2.109423746787797E-015  3.867639089349619E-014
 reorthoganalization of MOs is carried out
 sum over diagonal and offdiagdiagonal of C(T)*S*C for irrep
                     3
 -1.110223024625157E-016 -1.228161352071523E-015
 
 sum over diagonal and offdiagdiagonal of C(T)*S*C for irrep
                     4
 -5.107025913275720E-015 -1.211893271433006E-015
 reorthoganalization of MOs is carried out
 sum over diagonal and offdiagdiagonal of C(T)*S*C for irrep
                     4
  3.330669073875470E-016  2.130402494925862E-016
 
 sum over diagonal and offdiagdiagonal of C(T)*S*C for irrep
                     5
  9.214851104388799E-015 -2.563779536633797E-014
 reorthoganalization of MOs is carried out
 sum over diagonal and offdiagdiagonal of C(T)*S*C for irrep
                     5
  5.107025913275720E-015  3.786400957618668E-015
 
 sum over diagonal and offdiagdiagonal of C(T)*S*C for irrep
                     6
 -6.616929226765933E-014  6.408191828598384E-014
 reorthoganalization of MOs is carried out
 sum over diagonal and offdiagdiagonal of C(T)*S*C for irrep
                     6
  0.000000000000000E+000  1.089468799707519E-015
 
 sum over diagonal and offdiagdiagonal of C(T)*S*C for irrep
                     7
  2.342570581959080E-014 -3.688033973539625E-014
 reorthoganalization of MOs is carried out
 sum over diagonal and offdiagdiagonal of C(T)*S*C for irrep
                     7
  2.220446049250313E-016 -1.181424310682009E-015
 
 sum over diagonal and offdiagdiagonal of C(T)*S*C for irrep
                     8
 -1.554312234475219E-015  1.423443471817218E-015
 reorthoganalization of MOs is carried out
 sum over diagonal and offdiagdiagonal of C(T)*S*C for irrep
                     8
  3.330669073875470E-016  1.998410040989203E-016
  processed                  22825  ao basis integrals from 
                    39  buffers.
  processed                 111124  ao basis integrals from 
                   186  buffers.
  processed                 188297  ao basis integrals from 
                   314  buffers.
      15          -918.983004010941613              0.8871743173D-08
   current occupation vector 
     5  2  2  0  4  2  2  0
     5  2  2  0  4  2  2  0
  processed                  22825  ao basis integrals from 
                    39  buffers.
  processed                 111124  ao basis integrals from 
                   186  buffers.
  processed                 188297  ao basis integrals from 
                   314  buffers.
      16          -918.983004010941613              0.1504345537D-08
   current occupation vector 
     5  2  2  0  4  2  2  0
     5  2  2  0  4  2  2  0
  processed                  22825  ao basis integrals from 
                    39  buffers.
  processed                 111124  ao basis integrals from 
                   186  buffers.
  processed                 188297  ao basis integrals from 
                   314  buffers.
      17          -918.983004010939112              0.4620815952D-09
   current occupation vector 
     5  2  2  0  4  2  2  0
     5  2  2  0  4  2  2  0
  processed                  22825  ao basis integrals from 
                    39  buffers.
  processed                 111124  ao basis integrals from 
                   186  buffers.
  processed                 188297  ao basis integrals from 
                   314  buffers.
      18          -918.983004010940931              0.1316298182D-09
   current occupation vector 
     5  2  2  0  4  2  2  0
     5  2  2  0  4  2  2  0
  processed                  22825  ao basis integrals from 
                    39  buffers.
  processed                 111124  ao basis integrals from 
                   186  buffers.
  processed                 188297  ao basis integrals from 
                   314  buffers.
      19          -918.983004010941499              0.1577915576D-10
   current occupation vector 
     5  2  2  0  4  2  2  0
     5  2  2  0  4  2  2  0
 
 sum over diagonal and offdiagdiagonal of C(T)*S*C for irrep
                     1
 -1.665334536937735E-014  6.440681234572770E-014
 reorthoganalization of MOs is carried out
 sum over diagonal and offdiagdiagonal of C(T)*S*C for irrep
                     1
 -1.887379141862766E-015  1.476791826001708E-015
 
 sum over diagonal and offdiagdiagonal of C(T)*S*C for irrep
                     2
 -9.914291609902648E-014  9.842529888160393E-014
 reorthoganalization of MOs is carried out
 sum over diagonal and offdiagdiagonal of C(T)*S*C for irrep
                     2
 -5.551115123125783E-016  1.176212652188670E-015
 
 sum over diagonal and offdiagdiagonal of C(T)*S*C for irrep
                     3
  1.720845688168993E-014  2.640746780700424E-014
 reorthoganalization of MOs is carried out
 sum over diagonal and offdiagdiagonal of C(T)*S*C for irrep
                     3
 -2.220446049250313E-016  2.071566485251811E-016
 
 sum over diagonal and offdiagdiagonal of C(T)*S*C for irrep
                     4
 -6.328271240363392E-015 -3.574997126900144E-015
 reorthoganalization of MOs is carried out
 sum over diagonal and offdiagdiagonal of C(T)*S*C for irrep
                     4
 -5.551115123125783E-016 -6.645404806549669E-016
 
 sum over diagonal and offdiagdiagonal of C(T)*S*C for irrep
                     5
 -1.187938636348917E-014 -3.092470241970107E-014
 reorthoganalization of MOs is carried out
 sum over diagonal and offdiagdiagonal of C(T)*S*C for irrep
                     5
 -1.332267629550188E-015 -2.839656828769412E-015
 
 sum over diagonal and offdiagdiagonal of C(T)*S*C for irrep
                     6
 -6.727951529228449E-014  7.661523307418950E-014
 reorthoganalization of MOs is carried out
 sum over diagonal and offdiagdiagonal of C(T)*S*C for irrep
                     6
  4.440892098500626E-016  7.963316432880104E-016
 
 sum over diagonal and offdiagdiagonal of C(T)*S*C for irrep
                     7
  3.552713678800501E-014 -3.673960085911875E-014
 reorthoganalization of MOs is carried out
 sum over diagonal and offdiagdiagonal of C(T)*S*C for irrep
                     7
  7.771561172376096E-016  5.504899890919174E-016
 
 sum over diagonal and offdiagdiagonal of C(T)*S*C for irrep
                     8
  1.887379141862766E-015  2.559351146622378E-016
 reorthoganalization of MOs is carried out
 sum over diagonal and offdiagdiagonal of C(T)*S*C for irrep
                     8
 -4.440892098500626E-016  3.226160603194351E-016
  processed                  22825  ao basis integrals from 
                    39  buffers.
  processed                 111124  ao basis integrals from 
                   186  buffers.
  processed                 188297  ao basis integrals from 
                   314  buffers.
      20          -918.983004010940022              0.3568700890D-11
   current occupation vector 
     5  2  2  0  4  2  2  0
     5  2  2  0  4  2  2  0
  processed                  22825  ao basis integrals from 
                    39  buffers.
  processed                 111124  ao basis integrals from 
                   186  buffers.
  processed                 188297  ao basis integrals from 
                   314  buffers.
      21          -918.983004010940363              0.2425559753D-12
   current occupation vector 
     5  2  2  0  4  2  2  0
     5  2  2  0  4  2  2  0
  processed                  22825  ao basis integrals from 
                    39  buffers.
  processed                 111124  ao basis integrals from 
                   186  buffers.
  processed                 188297  ao basis integrals from 
                   314  buffers.
      22          -918.983004010942068              0.9325873407D-13
   current occupation vector 
     5  2  2  0  4  2  2  0
     5  2  2  0  4  2  2  0
  processed                  22825  ao basis integrals from 
                    39  buffers.
  processed                 111124  ao basis integrals from 
                   186  buffers.
  processed                 188297  ao basis integrals from 
                   314  buffers.
      23          -918.983004010939908              0.1547650896D-12
   current occupation vector 
     5  2  2  0  4  2  2  0
     5  2  2  0  4  2  2  0
  processed                  22825  ao basis integrals from 
                    39  buffers.
  processed                 111124  ao basis integrals from 
                   186  buffers.
  processed                 188297  ao basis integrals from 
                   314  buffers.
      24          -918.983004010940704              0.4451994329D-13
   current occupation vector 
     5  2  2  0  4  2  2  0
     5  2  2  0  4  2  2  0
 
 sum over diagonal and offdiagdiagonal of C(T)*S*C for irrep
                     1
  3.186340080674199E-014  6.587912012538167E-014
 reorthoganalization of MOs is carried out
 sum over diagonal and offdiagdiagonal of C(T)*S*C for irrep
                     1
  1.221245327087672E-015  9.046201249123462E-016
 
 sum over diagonal and offdiagdiagonal of C(T)*S*C for irrep
                     2
 -9.714451465470120E-014  9.947175837434806E-014
 reorthoganalization of MOs is carried out
 sum over diagonal and offdiagdiagonal of C(T)*S*C for irrep
                     2
 -9.992007221626409E-016  2.118397323985457E-015
 
 sum over diagonal and offdiagdiagonal of C(T)*S*C for irrep
                     3
  3.774758283725532E-015  3.100049658102581E-014
 reorthoganalization of MOs is carried out
 sum over diagonal and offdiagdiagonal of C(T)*S*C for irrep
                     3
  3.330669073875470E-016  6.708017517753248E-016
 
 sum over diagonal and offdiagdiagonal of C(T)*S*C for irrep
                     4
 -1.221245327087672E-015 -3.408443992722653E-016
 reorthoganalization of MOs is carried out
 sum over diagonal and offdiagdiagonal of C(T)*S*C for irrep
                     4
 -3.330669073875470E-016 -3.265767518143695E-016
 
 sum over diagonal and offdiagdiagonal of C(T)*S*C for irrep
                     5
 -1.088018564132653E-014 -2.931176424615592E-014
 reorthoganalization of MOs is carried out
 sum over diagonal and offdiagdiagonal of C(T)*S*C for irrep
                     5
 -1.443289932012704E-015  7.377670548266736E-016
 
 sum over diagonal and offdiagdiagonal of C(T)*S*C for irrep
                     6
 -5.717648576819556E-014  6.679639561382427E-014
 reorthoganalization of MOs is carried out
 sum over diagonal and offdiagdiagonal of C(T)*S*C for irrep
                     6
 -9.992007221626409E-016 -1.263314310889695E-015
 
 sum over diagonal and offdiagdiagonal of C(T)*S*C for irrep
                     7
  3.275157922644212E-014 -3.371040714529542E-014
 reorthoganalization of MOs is carried out
 sum over diagonal and offdiagdiagonal of C(T)*S*C for irrep
                     7
 -2.220446049250313E-016  6.137133279324071E-017
 
 sum over diagonal and offdiagdiagonal of C(T)*S*C for irrep
                     8
  3.219646771412954E-015 -2.352527187742784E-015
 reorthoganalization of MOs is carried out
 sum over diagonal and offdiagdiagonal of C(T)*S*C for irrep
                     8
  4.440892098500626E-016  1.072698557229134E-016
  processed                  22825  ao basis integrals from 
                    39  buffers.
  processed                 111124  ao basis integrals from 
                   186  buffers.
  processed                 188297  ao basis integrals from 
                   314  buffers.
      25          -918.983004010941386              0.5256906022D-13
   current occupation vector 
     5  2  2  0  4  2  2  0
     5  2  2  0  4  2  2  0
  processed                  22825  ao basis integrals from 
                    39  buffers.
  processed                 111124  ao basis integrals from 
                   186  buffers.
  processed                 188297  ao basis integrals from 
                   314  buffers.
      26          -918.983004010940249              0.1318389842D-12
   current occupation vector 
     5  2  2  0  4  2  2  0
     5  2  2  0  4  2  2  0
  processed                  22825  ao basis integrals from 
                    39  buffers.
  processed                 111124  ao basis integrals from 
                   186  buffers.
  processed                 188297  ao basis integrals from 
                   314  buffers.
      27          -918.983004010940476              0.4979350265D-13
   current occupation vector 
     5  2  2  0  4  2  2  0
     5  2  2  0  4  2  2  0
  processed                  22825  ao basis integrals from 
                    39  buffers.
  processed                 111124  ao basis integrals from 
                   186  buffers.
  processed                 188297  ao basis integrals from 
                   314  buffers.
      28          -918.983004010940249              0.3386180225D-13
   current occupation vector 
     5  2  2  0  4  2  2  0
     5  2  2  0  4  2  2  0
  processed                  22825  ao basis integrals from 
                    39  buffers.
  processed                 111124  ao basis integrals from 
                   186  buffers.
  processed                 188297  ao basis integrals from 
                   314  buffers.
      29          -918.983004010940590              0.1036948305D-12
   current occupation vector 
     5  2  2  0  4  2  2  0
     5  2  2  0  4  2  2  0
 
 sum over diagonal and offdiagdiagonal of C(T)*S*C for irrep
                     1
  4.030109579389318E-014  7.028784670461583E-014
 reorthoganalization of MOs is carried out
 sum over diagonal and offdiagdiagonal of C(T)*S*C for irrep
                     1
  5.551115123125783E-016 -2.064565468888871E-015
 
 sum over diagonal and offdiagdiagonal of C(T)*S*C for irrep
                     2
 -9.015010959956271E-014  9.829121964920532E-014
 reorthoganalization of MOs is carried out
 sum over diagonal and offdiagdiagonal of C(T)*S*C for irrep
                     2
  8.881784197001252E-016  1.976271794981772E-016
 
 sum over diagonal and offdiagdiagonal of C(T)*S*C for irrep
                     3
  1.332267629550188E-015  2.861386157177132E-014
 reorthoganalization of MOs is carried out
 sum over diagonal and offdiagdiagonal of C(T)*S*C for irrep
                     3
  0.000000000000000E+000 -1.046064982076934E-016
 
 sum over diagonal and offdiagdiagonal of C(T)*S*C for irrep
                     4
 -5.995204332975845E-015 -1.801389482073424E-015
 reorthoganalization of MOs is carried out
 sum over diagonal and offdiagdiagonal of C(T)*S*C for irrep
                     4
  4.440892098500626E-016  3.066216283112096E-016
 
[...]
   The AB contribution to the correlation energy is:   -0.3240592 a.u.
   The total correlation energy is -0.412732493555 a.u.
   The total correlation energy is -0.412732493555 a.u.
  Current DIIS expansion coefficients : 
 [   1] 1.1048280208 [   2]-0.0003546986 [   3] 0.0153148797 [   4]-0.0740718950
 [   5]-0.0457163069
  Convergence information after    11 iterations: 
  Largest element of residual vector : -0.15134543E-06.
  Largest element of DIIS residual   : -0.10784854E-06.
  W(mnij) AB contribution =  0.0745509471 a.u.
  W(abef) AB contribution =  0.0966516261 a.u.
  W(mbej) AB contribution = -0.2462486785 a.u.
   After  12 iterations, amplitude changes are:
    -------------------------------------------------------------------
                 Spin      RMS          Max.      Max. change for
     Amplitude   Case     Change       Change       i    j    a    b
    -------------------------------------------------------------------
        T1        AA    0.0000000007-0.0000000426    5        41
        T2        AA    0.0000000000 0.0000000096    7    2   41   30
        T2        AB    0.0000000000-0.0000000493    6    6   41   41
    -------------------------------------------------------------------
   The AA contribution to the correlation energy is:   -0.0443366 a.u.
   The AB contribution to the correlation energy is:   -0.3240592 a.u.
   The total correlation energy is -0.412732500140 a.u.
   The total correlation energy is -0.412732500140 a.u.
  Current DIIS expansion coefficients : 
 [   1]-0.1779030713 [   2] 1.2259668493 [   3] 0.0032470161 [   4] 0.0006721742
 [   5]-0.0519829682
  Convergence information after    12 iterations: 
  Largest element of residual vector : -0.49305861E-07.
  Largest element of DIIS residual   : -0.38080719E-07.
  W(mnij) AB contribution =  0.0745509609 a.u.
  W(abef) AB contribution =  0.0966516407 a.u.
  W(mbej) AB contribution = -0.2462487341 a.u.
   After  13 iterations, amplitude changes are:
    -------------------------------------------------------------------
                 Spin      RMS          Max.      Max. change for
     Amplitude   Case     Change       Change       i    j    a    b
    -------------------------------------------------------------------
        T1        AA    0.0000000003-0.0000000193    5        41
        T2        AA    0.0000000000 0.0000000016    7    1   41   29
        T2        AB    0.0000000000-0.0000000291    6    6   41   41
    -------------------------------------------------------------------
   The AA contribution to the correlation energy is:   -0.0443366 a.u.
   The AB contribution to the correlation energy is:   -0.3240592 a.u.
   The total correlation energy is -0.412732504546 a.u.
   The total correlation energy is -0.412732504546 a.u.
  Current DIIS expansion coefficients : 
 [   1]-0.0652156993 [   2]-0.0581761975 [   3] 1.1140642377 [   4] 0.0012284808
 [   5] 0.0080991783
  Convergence information after    13 iterations: 
  Largest element of residual vector : -0.29090689E-07.
  Largest element of DIIS residual   : -0.25683269E-07.
  W(mnij) AB contribution =  0.0745509631 a.u.
  W(abef) AB contribution =  0.0966516435 a.u.
  W(mbej) AB contribution = -0.2462487435 a.u.
   After  14 iterations, amplitude changes are:
    -------------------------------------------------------------------
                 Spin      RMS          Max.      Max. change for
     Amplitude   Case     Change       Change       i    j    a    b
    -------------------------------------------------------------------
        T1        AA    0.0000000001-0.0000000070    5        41
        T2        AA    0.0000000000 0.0000000009    6    5   56   41
        T2        AB    0.0000000000-0.0000000141    6    6   41   41
    -------------------------------------------------------------------
   The AA contribution to the correlation energy is:   -0.0443366 a.u.
   The AB contribution to the correlation energy is:   -0.3240592 a.u.
   The total correlation energy is -0.412732505109 a.u.
   The total correlation energy is -0.412732505109 a.u.
  Current DIIS expansion coefficients : 
 [   1] 0.0386651490 [   2]-0.1029319248 [   3]-0.5000053119 [   4] 1.5658249583
 [   5]-0.0015528706
  Convergence information after    14 iterations: 
  Largest element of residual vector : -0.14062207E-07.
  Largest element of DIIS residual   : -0.69169643E-08.
  W(mnij) AB contribution =  0.0745509637 a.u.
  W(abef) AB contribution =  0.0966516443 a.u.
  W(mbej) AB contribution = -0.2462487461 a.u.
   After  15 iterations, amplitude changes are:
    -------------------------------------------------------------------
                 Spin      RMS          Max.      Max. change for
     Amplitude   Case     Change       Change       i    j    a    b
    -------------------------------------------------------------------
        T1        AA    0.0000000000-0.0000000008    3        22
        T2        AA    0.0000000000 0.0000000004    6    5   56   41
        T2        AB    0.0000000000-0.0000000051    7    7   41   41
    -------------------------------------------------------------------
   The AA contribution to the correlation energy is:   -0.0443366 a.u.
   The AB contribution to the correlation energy is:   -0.3240592 a.u.
   The total correlation energy is -0.412732505231 a.u.
   The total correlation energy is -0.412732505231 a.u.
  Current DIIS expansion coefficients : 
 [   1]-0.0011472444 [   2] 0.0326701367 [   3]-0.0550431659 [   4]-0.2213264008
 [   5] 1.2448466744
  Convergence information after    15 iterations: 
  Largest element of residual vector : -0.50961275E-08.
  Largest element of DIIS residual   : -0.30925547E-08.
   Largest T1 amplitudes for spin case AA:
   i       a                 i       a                 i       a    
-----------------------------------------------------------------------------
[  2      11    ]-0.01493 [  5      44    ] 0.01077 [  2      10    ] 0.01008
[  2       8    ] 0.00915 [  3      22    ]-0.00879 [  4      30    ]-0.00879
[  3      21    ] 0.00688 [  4      29    ] 0.00688 [  2      15    ] 0.00561
[  7      63    ] 0.00489 [  6      55    ] 0.00489 [  5      41    ] 0.00426
[  1       8    ] 0.00371 [  1      10    ] 0.00336 [  7      67    ] 0.00331
-----------------------------------------------------------------------------
   Norm of T1AA vector (       72 symmetry allowed elements):  0.0309375540.
-----------------------------------------------------------------------------
   Largest T2 amplitudes for spin case AB:
       _       _                 _       _                 _       _
   i   j   a   b             i   j   a   b             i   j   a   b
-----------------------------------------------------------------------------
[  2   2  41  41]-0.09110 [  2   2  42  41] 0.03554 [  2   2  41  42] 0.03554
[  6   2  22  41] 0.03139 [  2   6  41  22] 0.03139 [  7   2  30  41] 0.03139
[  2   7  41  30] 0.03139 [  7   7  41  41]-0.03087 [  6   6  41  41]-0.03087
[  6   6  22  22]-0.02941 [  7   7  30  30]-0.02941 [  5   5  41  41]-0.02399
[  7   7  71  71]-0.02352 [  7   7  43  43]-0.02352 [  6   6  71  71]-0.02352
-----------------------------------------------------------------------------
   Norm of T2AB vector (    28309 symmetry allowed elements):  0.3710602839.
-----------------------------------------------------------------------------
  W(mnij) AB contribution =  0.0745509635 a.u.
  W(abef) AB contribution =  0.0966516440 a.u.
  W(mbej) AB contribution = -0.2462487453 a.u.
   After  16 iterations, amplitude changes are:
    -------------------------------------------------------------------
                 Spin      RMS          Max.      Max. change for
     Amplitude   Case     Change       Change       i    j    a    b
    -------------------------------------------------------------------
        T1        AA    0.0000000000-0.0000000006    2         8
        T2        AA    0.0000000000-0.0000000003    6    2   41   22
        T2        AB    0.0000000000-0.0000000016    7    7   41   41
    -------------------------------------------------------------------
   The AA contribution to the correlation energy is:   -0.0443366 a.u.
   The AB contribution to the correlation energy is:   -0.3240592 a.u.
   The total correlation energy is -0.412732505271 a.u.
   The total correlation energy is -0.412732505271 a.u.
  Current DIIS expansion coefficients : 
 [   1] 1.2084162233 [   2]-0.0023224169 [   3] 0.0272028046 [   4]-0.0717483765
 [   5]-0.1615482345
  Convergence information after    16 iterations: 
  Largest element of residual vector : -0.16064256E-08.
  Largest element of DIIS residual   : -0.78611788E-09.
  W(mnij) AB contribution =  0.0745509636 a.u.
  W(abef) AB contribution =  0.0966516441 a.u.
  W(mbej) AB contribution = -0.2462487456 a.u.
   After  17 iterations, amplitude changes are:
    -------------------------------------------------------------------
                 Spin      RMS          Max.      Max. change for
     Amplitude   Case     Change       Change       i    j    a    b
    -------------------------------------------------------------------
        T1        AA    0.0000000000 0.0000000004    5        41
        T2        AA    0.0000000000-0.0000000001    5    2   41    8
        T2        AB    0.0000000000-0.0000000005    7    7   41   41
    -------------------------------------------------------------------
   The AA contribution to the correlation energy is:   -0.0443366 a.u.
   The AB contribution to the correlation energy is:   -0.3240592 a.u.
   The total correlation energy is -0.412732505205 a.u.
   The total correlation energy is -0.412732505205 a.u.
  Current DIIS expansion coefficients : 
 [   1]-0.1036897730 [   2] 1.2096925200 [   3] 0.0088226568 [   4] 0.0129396514
 [   5]-0.1277650552
  Convergence information after    17 iterations: 
  Largest element of residual vector : -0.45470575E-09.
  Largest element of DIIS residual   :  0.19706901E-09.
  Amplitude equations converged in    17iterations.
   The AA contribution to the correlation energy is:   -0.0443366 a.u.
   The AB contribution to the correlation energy is:   -0.3240592 a.u.
   The total correlation energy is -0.412732505188 a.u.
   The total correlation energy is -0.412732505188 a.u.
   The CC iterations have converged.

   Largest T1 amplitudes for spin case AA:
   i       a                 i       a                 i       a    
-----------------------------------------------------------------------------
[  2      11    ]-0.01493 [  5      44    ] 0.01077 [  2      10    ] 0.01008
[  2       8    ] 0.00915 [  3      22    ]-0.00879 [  4      30    ]-0.00879
[  4      29    ] 0.00688 [  3      21    ] 0.00688 [  2      15    ] 0.00561
[  6      55    ] 0.00489 [  7      63    ] 0.00489 [  5      41    ] 0.00426
[  1       8    ] 0.00371 [  1      10    ] 0.00336 [  6      59    ] 0.00331
-----------------------------------------------------------------------------
   Norm of T1AA vector (       72 symmetry allowed elements):  0.0309375530.
-----------------------------------------------------------------------------
   Largest T2 amplitudes for spin case AB:
       _       _                 _       _                 _       _
   i   j   a   b             i   j   a   b             i   j   a   b
-----------------------------------------------------------------------------
[  2   2  41  41]-0.09110 [  2   2  42  41] 0.03554 [  2   2  41  42] 0.03554
[  7   2  30  41] 0.03139 [  2   7  41  30] 0.03139 [  6   2  22  41] 0.03139
[  2   6  41  22] 0.03139 [  7   7  41  41]-0.03087 [  6   6  41  41]-0.03087
[  6   6  22  22]-0.02941 [  7   7  30  30]-0.02941 [  5   5  41  41]-0.02399
[  6   6  43  43]-0.02352 [  7   7  43  43]-0.02352 [  6   6  71  71]-0.02352
-----------------------------------------------------------------------------
   Norm of T2AB vector (    28309 symmetry allowed elements):  0.3710602841.
-----------------------------------------------------------------------------
       Summary of iterative solution of CC equations 
      -----------------------------------------------------------
                       Correlation           Total
       Iteration         Energy              Energy
      -----------------------------------------------------------
            0        -0.378899171466    -919.361903182407  DIIS 
            1        -0.401530788988    -919.384534799929  DIIS 
            2        -0.410200518574    -919.393204529515  DIIS 
            3        -0.411985240485    -919.394989251427  DIIS 
            4        -0.412689973832    -919.395693984773  DIIS 
            5        -0.412730458364    -919.395734469305  DIIS 
            6        -0.412734265082    -919.395738276023  DIIS 
            7        -0.412732203954    -919.395736214895  DIIS 
            8        -0.412731793071    -919.395735804013  DIIS 
            9        -0.412732332112    -919.395736343053  DIIS 
           10        -0.412732420480    -919.395736431422  DIIS 
           11        -0.412732493555    -919.395736504496  DIIS 
           12        -0.412732500140    -919.395736511082  DIIS 
           13        -0.412732504546    -919.395736515487  DIIS 
           14        -0.412732505109    -919.395736516051  DIIS 
           15        -0.412732505231    -919.395736516172  DIIS 
           16        -0.412732505271    -919.395736516212  DIIS 
           17        -0.412732505188    -919.395736516129  DIIS 
      -----------------------------------------------------------
      A miracle has come to pass. The CC iterations have converged.
 @DIMT3-I, Dimensions of T3 amplitudes : 
               # abc          # ijk       Symmetry    Spin 
                     6121              2     1          1
                     6000              4     2          1
                     6000              4     3          1
                     5848              6     4          1
                     6088              5     5          1
                     6000              4     6          1
                     6000              4     7          1
                     5848              6     8          1
                    19221             18     1          2
                    18528             18     2          2
                    18528             18     3          2
                    17808             18     4          2
                    19188             21     5          2
                    18528             18     6          2
                    18528             18     7          2
                    17808             18     8          2
                    19221             18     1          3
                    18528             18     2          3
                    18528             18     3          3
                    17808             18     4          3
                    19188             21     5          3
                    18528             18     6          3
                    18528             18     7          3
                    17808             18     8          3
                     6121              2     1          4
                     6000              4     2          4
                     6000              4     3          4
                     5848              6     4          4
                     6088              5     5          4
                     6000              4     6          4
                     6000              4     7          4
                     5848              6     8          4
 @DIMT3-I, Dimensions of T3 amplitudes : 
               # abc          # ijk       Symmetry    Spin 
                     6121              2     1          1
                     6000              4     2          1
                     6000              4     3          1
                     5848              6     4          1
                     6088              5     5          1
                     6000              4     6          1
                     6000              4     7          1
                     5848              6     8          1
                    19221             18     1          2
                    18528             18     2          2
                    18528             18     3          2
                    17808             18     4          2
                    19188             21     5          2
                    18528             18     6          2
                    18528             18     7          2
                    17808             18     8          2
                    19221             18     1          3
                    18528             18     2          3
                    18528             18     3          3
                    17808             18     4          3
                    19188             21     5          3
                    18528             18     6          3
                    18528             18     7          3
                    17808             18     8          3
                     6121              2     1          4
                     6000              4     2          4
                     6000              4     3          4
                     5848              6     4          4
                     6088              5     5          4
                     6000              4     6          4
                     6000              4     7          4
                     5848              6     8          4
 @TRPS-I, Welcome to TRPS. Watch your RUs ! 
 @TRPS-I, Method is CCSD(T) 
 @TRPS-I, Calculation type is energy 
 @TRPS-I, Reference function information : 
          Reference function is Hartree-Fock 
          Reference function is RHF Hartree-Fock 
 @TRPS-I, INT1 is true 
 @TRPS-I, INT2 is false 
 @TRPS-I, Lengths of ijka integrals. #1       1248
                                     #2       1248
                                     #3       3000
                                     #4       3000
                                    Max       3000
 @INITRP-I, Initializing W intermediate lists. 
 @SETOOOV-I, Some OOOV lists are being transposed. 
 @TRPS-I, Available memory in integer words   1499959040
          Number of pre-allocated words for TRPS2        21082
          Number of free words for TRPS2   1499937958
 @TRPS2-I, Spin case AAB 
 @TRPS2-I, Number of free integer words 1499937958
           Number of free double  words 1499937958
           Ratio                                 1
 @TRPS2-I, E4TBAA      -0.008570162664
  @TRPS2-I, E4TAAA  -4.642024624054954E-004
 @TRPS2-I, E5ST A    0.000057722297527
 @TRPS2-I, E5ST B    0.000045315315502
 @SETOOOV-I, Some OOOV lists are being transposed. 
 @CCENRG-I, CCSD/QCISD energy will now be evaluated. 
 @CCENRG-I, Correlation energies. ECCAA       -0.044336648289
                                  ECCBB        0.000000000000
                                  ECCAB       -0.324059208610
                                  Total       -0.412732505188
 @CCENRG-I, Reference   energy    -918.983004010941
            CCSD/QCISD energy     -919.395736516129
          E4T (T(CCSD)) = -0.018068730253
          E5ST          =  0.000206075226
          E4ST          =  0.000000000000
          In other words  
          <T3[2](Dagger) D3  T3[2]> = -0.018068730253
          <T1   (Dagger) Q1 WT3[2]> =  0.000206075226
          <T2   (Dagger) Q2 FT3[2]> =  0.000000000000
        E(CCSD)           =    -919.395736516129
        E(CCSD + T(CCSD)) =    -919.413805246382
        E(CCSD(T))        =    -919.413599171156
  @CHECKOUT-I, Total execution time (CPU/WALL):       12.93/       8.25 seconds.
--executable xvcc finished with status     0 in        8.30 seconds (walltime).
  The final electronic energy is      -919.413599171156193 a.u. 
  This computation required                           27.40 seconds (walltime).
