#INFO: **** input file is /Users/deyanmihaylov/Documents/Work/h5py_mpi_test/pyscfad_test.py ****
import pyscf
from pyscfad import gto, scf
import numpy as np

from scipy.optimize import minimize, Bounds

"""
Analytic nuclear gradient for RHF computed by auto-differentiation
"""


def He_energy(exponent):
    mol = gto.Mole()
    mol.atom    = 'He 0 0 0'  # in Angstrom

    mol.basis = {'He': pyscf.gto.basis.parse(f'''
    He   S
        {exponent[0]}              1.0
        {exponent[1]}              1.0
    ''')}
    mol.verbose = 5
    mol.build()

    mf = scf.RHF(mol)
    e = mf.kernel()

    return e

def grad_He_energy(exponent):
    mol = gto.Mole()
    mol.atom    = 'He 0 0 0'  # in Angstrom

    mol.basis = {'He': pyscf.gto.basis.parse(f'''
    He   S
        {exponent[0]}              1.0
        {exponent[1]}              1.0
    ''')}
    mol.verbose = 5
    mol.build()

    mf = scf.RHF(mol)
    mf.kernel()
    jac = mf.energy_grad()

    return jac.exp

x0 = [1e-5, 1e-6]
res = minimize(
    He_energy,
    x0,
    jac=grad_He_energy,
    bounds=((1e-6,None),(1e-6,None)),
    method='TNC', tol=1e-8,
    # options={"ftol": 1e-8, "eps": 1e-8},
)

print(res.x)
print(res.values())

# print("E", He_energy(71.6168370))

# print(f'Nuclaer gradient:\n{jac.coords}')
# print(f'Gradient wrt basis exponents:\n{jac.exp}')
# print(f'Gradient wrt basis contraction coefficients:\n{jac.ctr_coeff}')#INFO: ******************** input file end ********************


System: uname_result(system='Darwin', node='Deyans-MacBook-Pro-Home.local', release='22.1.0', version='Darwin Kernel Version 22.1.0: Sun Oct  9 20:14:54 PDT 2022; root:xnu-8792.41.9~2/RELEASE_X86_64', machine='x86_64', processor='i386')  Threads 1
Python 3.8.16 (default, Jan 17 2023, 16:42:09) 
[Clang 14.0.6 ]
numpy 1.24.2  scipy 1.10.1
Date: Fri Mar  3 22:14:20 2023
PySCF version 2.1.1
PySCF path  /Users/deyanmihaylov/opt/anaconda3/envs/pyscfad_env/lib/python3.8/site-packages/pyscf

[CONFIG] conf_file /Users/deyanmihaylov/.pyscf_conf.py
[INPUT] verbose = 5
[INPUT] max_memory = 4000 
[INPUT] num. atoms = 1
[INPUT] num. electrons = 2
[INPUT] charge = 0
[INPUT] spin (= nelec alpha-beta = 2S) = 0
[INPUT] symmetry False subgroup None
[INPUT] Mole.unit = angstrom
[INPUT] Symbol           X                Y                Z      unit          X                Y                Z       unit  Magmom
[INPUT]  1 He     0.000000000000   0.000000000000   0.000000000000 AA    0.000000000000   0.000000000000   0.000000000000 Bohr   0.0
[INPUT] ---------------- BASIS SET ---------------- 
[INPUT] l, kappa, [nprim/nctr], expnt,             c_1 c_2 ...
[INPUT] He
[INPUT] 0    0    [2    /1   ]  1e-05                1
                                1e-06                1

nuclear repulsion = 0
number of shells = 1
number of NR pGTOs = 2
number of NR cGTOs = 1
basis = {'He': [[0, [1e-05, 1.0], [1e-06, 1.0]]]}
ecp = {}
CPU time:         1.36
Set gradient conv threshold to 3.16228e-05
cond(S) = 1.0
E1 = -6.01105707376407e-09  E_coul = 4.048055889342155e-16
init E= -6.01105666895848e-09
    CPU time for initialize scf      0.12 sec, wall time      0.17 sec
  mo_energy =
[-0.00689134]
E1 = -0.013782672382057904  E_coul = 0.0021281961972590456
cycle= 1 E= -0.0116544761847989  delta_E= -0.0117  |g|=    0  |ddm|=    2
    CPU time for cycle= 1      0.16 sec, wall time      0.21 sec
  mo_energy =
[-0.00476314]
E1 = -0.013782672382057904  E_coul = 0.0021281961972590456
cycle= 2 E= -0.0116544761847989  delta_E=    0  |g|=    0  |ddm|=    0
    CPU time for cycle= 2      0.05 sec, wall time      0.06 sec
E1 = -0.013782672382057904  E_coul = 0.0021281961972590456
  mo_energy =
[-0.00476314]
E1 = -0.013782672382057904  E_coul = 0.0021281961972590456
Extra cycle  E= -0.0116544761847989  delta_E=    0  |g|=    0  |ddm|=    0
    CPU time for scf_cycle      0.34 sec, wall time      0.44 sec
#INFO: **** input file is /Users/deyanmihaylov/Documents/Work/h5py_mpi_test/pyscfad_test.py ****
import pyscf
from pyscfad import gto, scf
import numpy as np

from scipy.optimize import minimize, Bounds

"""
Analytic nuclear gradient for RHF computed by auto-differentiation
"""


def He_energy(exponent):
    mol = gto.Mole()
    mol.atom    = 'He 0 0 0'  # in Angstrom

    mol.basis = {'He': pyscf.gto.basis.parse(f'''
    He   S
        {exponent[0]}              1.0
        {exponent[1]}              1.0
    ''')}
    mol.verbose = 5
    mol.build()

    mf = scf.RHF(mol)
    e = mf.kernel()

    return e

def grad_He_energy(exponent):
    mol = gto.Mole()
    mol.atom    = 'He 0 0 0'  # in Angstrom

    mol.basis = {'He': pyscf.gto.basis.parse(f'''
    He   S
        {exponent[0]}              1.0
        {exponent[1]}              1.0
    ''')}
    mol.verbose = 5
    mol.build()

    mf = scf.RHF(mol)
    mf.kernel()
    jac = mf.energy_grad()

    return jac.exp

x0 = [1e-5, 1e-6]
res = minimize(
    He_energy,
    x0,
    jac=grad_He_energy,
    bounds=((1e-6,None),(1e-6,None)),
    method='TNC', tol=1e-8,
    # options={"ftol": 1e-8, "eps": 1e-8},
)

print(res.x)
print(res.values())

# print("E", He_energy(71.6168370))

# print(f'Nuclaer gradient:\n{jac.coords}')
# print(f'Gradient wrt basis exponents:\n{jac.exp}')
# print(f'Gradient wrt basis contraction coefficients:\n{jac.ctr_coeff}')#INFO: ******************** input file end ********************


System: uname_result(system='Darwin', node='Deyans-MacBook-Pro-Home.local', release='22.1.0', version='Darwin Kernel Version 22.1.0: Sun Oct  9 20:14:54 PDT 2022; root:xnu-8792.41.9~2/RELEASE_X86_64', machine='x86_64', processor='i386')  Threads 1
Python 3.8.16 (default, Jan 17 2023, 16:42:09) 
[Clang 14.0.6 ]
numpy 1.24.2  scipy 1.10.1
Date: Fri Mar  3 22:14:21 2023
PySCF version 2.1.1
PySCF path  /Users/deyanmihaylov/opt/anaconda3/envs/pyscfad_env/lib/python3.8/site-packages/pyscf

[CONFIG] conf_file /Users/deyanmihaylov/.pyscf_conf.py
[INPUT] verbose = 5
[INPUT] max_memory = 4000 
[INPUT] num. atoms = 1
[INPUT] num. electrons = 2
[INPUT] charge = 0
[INPUT] spin (= nelec alpha-beta = 2S) = 0
[INPUT] symmetry False subgroup None
[INPUT] Mole.unit = angstrom
[INPUT] Symbol           X                Y                Z      unit          X                Y                Z       unit  Magmom
[INPUT]  1 He     0.000000000000   0.000000000000   0.000000000000 AA    0.000000000000   0.000000000000   0.000000000000 Bohr   0.0
[INPUT] ---------------- BASIS SET ---------------- 
[INPUT] l, kappa, [nprim/nctr], expnt,             c_1 c_2 ...
[INPUT] He
[INPUT] 0    0    [2    /1   ]  1e-05                1
                                1e-06                1

nuclear repulsion = 0
number of shells = 1
number of NR pGTOs = 2
number of NR cGTOs = 1
basis = {'He': [[0, [1e-05, 1.0], [1e-06, 1.0]]]}
ecp = {}
CPU time:         1.80
Set gradient conv threshold to 3.16228e-05
cond(S) = 1.0
E1 = -6.01105707376407e-09  E_coul = 4.048055889342155e-16
init E= -6.01105666895848e-09
    CPU time for initialize scf      0.02 sec, wall time      0.02 sec
  mo_energy =
[-0.00689134]
E1 = -0.013782672382057904  E_coul = 0.0021281961972590456
cycle= 1 E= -0.0116544761847989  delta_E= -0.0117  |g|=    0  |ddm|=    2
    CPU time for cycle= 1      0.00 sec, wall time      0.00 sec
  mo_energy =
[-0.00476314]
E1 = -0.013782672382057904  E_coul = 0.0021281961972590456
cycle= 2 E= -0.0116544761847989  delta_E=    0  |g|=    0  |ddm|=    0
    CPU time for cycle= 2      0.01 sec, wall time      0.01 sec
E1 = -0.013782672382057904  E_coul = 0.0021281961972590456
  mo_energy =
[-0.00476314]
E1 = -0.013782672382057904  E_coul = 0.0021281961972590456
Extra cycle  E= -0.0116544761847989  delta_E=    0  |g|=    0  |ddm|=    0
    CPU time for scf_cycle      0.04 sec, wall time      0.04 sec
Set gradient conv threshold to 3.16228e-05
cond(S) = 1.0
E1 = -0.013782672382057904  E_coul = 0.0021281961972590456
init E= -0.0116544761847989
    CPU time for initialize scf      0.26 sec, wall time      0.31 sec
  mo_energy =
[-0.00476314]
E1 = -0.013782672382057904  E_coul = 0.0021281961972590456
cycle= 1 E= -0.0116544761847989  delta_E=    0  |g|=    0  |ddm|=    0
    CPU time for cycle= 1      0.00 sec, wall time      0.00 sec
E1 = -0.013782672382057904  E_coul = 0.0021281961972590456
  mo_energy =
[-0.00476314]
E1 = -0.013782672382057904  E_coul = 0.0021281961972590456
Extra cycle  E= -0.0116544761847989  delta_E=    0  |g|=    0  |ddm|=    0
    CPU time for scf_cycle      0.65 sec, wall time      0.70 sec
#INFO: **** input file is /Users/deyanmihaylov/Documents/Work/h5py_mpi_test/pyscfad_test.py ****
import pyscf
from pyscfad import gto, scf
import numpy as np

from scipy.optimize import minimize, Bounds

"""
Analytic nuclear gradient for RHF computed by auto-differentiation
"""


def He_energy(exponent):
    mol = gto.Mole()
    mol.atom    = 'He 0 0 0'  # in Angstrom

    mol.basis = {'He': pyscf.gto.basis.parse(f'''
    He   S
        {exponent[0]}              1.0
        {exponent[1]}              1.0
    ''')}
    mol.verbose = 5
    mol.build()

    mf = scf.RHF(mol)
    e = mf.kernel()

    return e

def grad_He_energy(exponent):
    mol = gto.Mole()
    mol.atom    = 'He 0 0 0'  # in Angstrom

    mol.basis = {'He': pyscf.gto.basis.parse(f'''
    He   S
        {exponent[0]}              1.0
        {exponent[1]}              1.0
    ''')}
    mol.verbose = 5
    mol.build()

    mf = scf.RHF(mol)
    mf.kernel()
    jac = mf.energy_grad()

    return jac.exp

x0 = [1e-5, 1e-6]
res = minimize(
    He_energy,
    x0,
    jac=grad_He_energy,
    bounds=((1e-6,None),(1e-6,None)),
    method='TNC', tol=1e-8,
    # options={"ftol": 1e-8, "eps": 1e-8},
)

print(res.x)
print(res.values())

# print("E", He_energy(71.6168370))

# print(f'Nuclaer gradient:\n{jac.coords}')
# print(f'Gradient wrt basis exponents:\n{jac.exp}')
# print(f'Gradient wrt basis contraction coefficients:\n{jac.ctr_coeff}')#INFO: ******************** input file end ********************


System: uname_result(system='Darwin', node='Deyans-MacBook-Pro-Home.local', release='22.1.0', version='Darwin Kernel Version 22.1.0: Sun Oct  9 20:14:54 PDT 2022; root:xnu-8792.41.9~2/RELEASE_X86_64', machine='x86_64', processor='i386')  Threads 1
Python 3.8.16 (default, Jan 17 2023, 16:42:09) 
[Clang 14.0.6 ]
numpy 1.24.2  scipy 1.10.1
Date: Fri Mar  3 22:14:24 2023
PySCF version 2.1.1
PySCF path  /Users/deyanmihaylov/opt/anaconda3/envs/pyscfad_env/lib/python3.8/site-packages/pyscf

[CONFIG] conf_file /Users/deyanmihaylov/.pyscf_conf.py
[INPUT] verbose = 5
[INPUT] max_memory = 4000 
[INPUT] num. atoms = 1
[INPUT] num. electrons = 2
[INPUT] charge = 0
[INPUT] spin (= nelec alpha-beta = 2S) = 0
[INPUT] symmetry False subgroup None
[INPUT] Mole.unit = angstrom
[INPUT] Symbol           X                Y                Z      unit          X                Y                Z       unit  Magmom
[INPUT]  1 He     0.000000000000   0.000000000000   0.000000000000 AA    0.000000000000   0.000000000000   0.000000000000 Bohr   0.0
[INPUT] ---------------- BASIS SET ---------------- 
[INPUT] l, kappa, [nprim/nctr], expnt,             c_1 c_2 ...
[INPUT] He
[INPUT] 0    0    [2    /1   ]  1.00006999456e-05      1
                                1.01488472821e-06      1

nuclear repulsion = 0
number of shells = 1
number of NR pGTOs = 2
number of NR cGTOs = 1
basis = {'He': [[0, [1.000069994560844e-05, 1.0], [1.0148847282131113e-06, 1.0]]]}
ecp = {}
CPU time:         5.06
Set gradient conv threshold to 3.16228e-05
cond(S) = 1.0
E1 = -6.025397106754628e-09  E_coul = 4.067559814842449e-16
init E= -6.02539669999865e-09
    CPU time for initialize scf      0.02 sec, wall time      0.02 sec
  mo_energy =
[-0.00690289]
E1 = -0.013805790226932764  E_coul = 0.0021354290146722646
cycle= 1 E= -0.0116703612122605  delta_E= -0.0117  |g|=    0  |ddm|=    2
    CPU time for cycle= 1      0.01 sec, wall time      0.01 sec
  mo_energy =
[-0.00476747]
E1 = -0.013805790226932764  E_coul = 0.0021354290146722646
cycle= 2 E= -0.0116703612122605  delta_E=    0  |g|=    0  |ddm|=    0
    CPU time for cycle= 2      0.01 sec, wall time      0.01 sec
E1 = -0.013805790226932764  E_coul = 0.0021354290146722646
  mo_energy =
[-0.00476747]
E1 = -0.013805790226932764  E_coul = 0.0021354290146722646
Extra cycle  E= -0.0116703612122605  delta_E=    0  |g|=    0  |ddm|=    0
    CPU time for scf_cycle      0.04 sec, wall time      0.04 sec
#INFO: **** input file is /Users/deyanmihaylov/Documents/Work/h5py_mpi_test/pyscfad_test.py ****
import pyscf
from pyscfad import gto, scf
import numpy as np

from scipy.optimize import minimize, Bounds

"""
Analytic nuclear gradient for RHF computed by auto-differentiation
"""


def He_energy(exponent):
    mol = gto.Mole()
    mol.atom    = 'He 0 0 0'  # in Angstrom

    mol.basis = {'He': pyscf.gto.basis.parse(f'''
    He   S
        {exponent[0]}              1.0
        {exponent[1]}              1.0
    ''')}
    mol.verbose = 5
    mol.build()

    mf = scf.RHF(mol)
    e = mf.kernel()

    return e

def grad_He_energy(exponent):
    mol = gto.Mole()
    mol.atom    = 'He 0 0 0'  # in Angstrom

    mol.basis = {'He': pyscf.gto.basis.parse(f'''
    He   S
        {exponent[0]}              1.0
        {exponent[1]}              1.0
    ''')}
    mol.verbose = 5
    mol.build()

    mf = scf.RHF(mol)
    mf.kernel()
    jac = mf.energy_grad()

    return jac.exp

x0 = [1e-5, 1e-6]
res = minimize(
    He_energy,
    x0,
    jac=grad_He_energy,
    bounds=((1e-6,None),(1e-6,None)),
    method='TNC', tol=1e-8,
    # options={"ftol": 1e-8, "eps": 1e-8},
)

print(res.x)
print(res.values())

# print("E", He_energy(71.6168370))

# print(f'Nuclaer gradient:\n{jac.coords}')
# print(f'Gradient wrt basis exponents:\n{jac.exp}')
# print(f'Gradient wrt basis contraction coefficients:\n{jac.ctr_coeff}')#INFO: ******************** input file end ********************


System: uname_result(system='Darwin', node='Deyans-MacBook-Pro-Home.local', release='22.1.0', version='Darwin Kernel Version 22.1.0: Sun Oct  9 20:14:54 PDT 2022; root:xnu-8792.41.9~2/RELEASE_X86_64', machine='x86_64', processor='i386')  Threads 1
Python 3.8.16 (default, Jan 17 2023, 16:42:09) 
[Clang 14.0.6 ]
numpy 1.24.2  scipy 1.10.1
Date: Fri Mar  3 22:14:24 2023
PySCF version 2.1.1
PySCF path  /Users/deyanmihaylov/opt/anaconda3/envs/pyscfad_env/lib/python3.8/site-packages/pyscf

[CONFIG] conf_file /Users/deyanmihaylov/.pyscf_conf.py
[INPUT] verbose = 5
[INPUT] max_memory = 4000 
[INPUT] num. atoms = 1
[INPUT] num. electrons = 2
[INPUT] charge = 0
[INPUT] spin (= nelec alpha-beta = 2S) = 0
[INPUT] symmetry False subgroup None
[INPUT] Mole.unit = angstrom
[INPUT] Symbol           X                Y                Z      unit          X                Y                Z       unit  Magmom
[INPUT]  1 He     0.000000000000   0.000000000000   0.000000000000 AA    0.000000000000   0.000000000000   0.000000000000 Bohr   0.0
[INPUT] ---------------- BASIS SET ---------------- 
[INPUT] l, kappa, [nprim/nctr], expnt,             c_1 c_2 ...
[INPUT] He
[INPUT] 0    0    [2    /1   ]  1.00006999456e-05      1
                                1.01488472821e-06      1

nuclear repulsion = 0
number of shells = 1
number of NR pGTOs = 2
number of NR cGTOs = 1
basis = {'He': [[0, [1.000069994560844e-05, 1.0], [1.0148847282131113e-06, 1.0]]]}
ecp = {}
CPU time:         5.15
Set gradient conv threshold to 3.16228e-05
cond(S) = 1.0
E1 = -6.025397106754628e-09  E_coul = 4.067559814842449e-16
init E= -6.02539669999865e-09
    CPU time for initialize scf      0.02 sec, wall time      0.02 sec
  mo_energy =
[-0.00690289]
E1 = -0.013805790226932764  E_coul = 0.0021354290146722646
cycle= 1 E= -0.0116703612122605  delta_E= -0.0117  |g|=    0  |ddm|=    2
    CPU time for cycle= 1      0.01 sec, wall time      0.01 sec
  mo_energy =
[-0.00476747]
E1 = -0.013805790226932764  E_coul = 0.0021354290146722646
cycle= 2 E= -0.0116703612122605  delta_E=    0  |g|=    0  |ddm|=    0
    CPU time for cycle= 2      0.01 sec, wall time      0.01 sec
E1 = -0.013805790226932764  E_coul = 0.0021354290146722646
  mo_energy =
[-0.00476747]
E1 = -0.013805790226932764  E_coul = 0.0021354290146722646
Extra cycle  E= -0.0116703612122605  delta_E=    0  |g|=    0  |ddm|=    0
    CPU time for scf_cycle      0.04 sec, wall time      0.05 sec
Set gradient conv threshold to 3.16228e-05
cond(S) = 1.0
E1 = -0.013805790226932764  E_coul = 0.0021354290146722646
init E= -0.0116703612122605
    CPU time for initialize scf      0.04 sec, wall time      0.04 sec
  mo_energy =
[-0.00476747]
E1 = -0.013805790226932764  E_coul = 0.0021354290146722646
cycle= 1 E= -0.0116703612122605  delta_E=    0  |g|=    0  |ddm|=    0
    CPU time for cycle= 1      0.01 sec, wall time      0.01 sec
E1 = -0.013805790226932764  E_coul = 0.0021354290146722646
  mo_energy =
[-0.00476747]
E1 = -0.013805790226932764  E_coul = 0.0021354290146722646
Extra cycle  E= -0.0116703612122605  delta_E=    0  |g|=    0  |ddm|=    0
    CPU time for scf_cycle      0.08 sec, wall time      0.08 sec
#INFO: **** input file is /Users/deyanmihaylov/Documents/Work/h5py_mpi_test/pyscfad_test.py ****
import pyscf
from pyscfad import gto, scf
import numpy as np

from scipy.optimize import minimize, Bounds

"""
Analytic nuclear gradient for RHF computed by auto-differentiation
"""


def He_energy(exponent):
    mol = gto.Mole()
    mol.atom    = 'He 0 0 0'  # in Angstrom

    mol.basis = {'He': pyscf.gto.basis.parse(f'''
    He   S
        {exponent[0]}              1.0
        {exponent[1]}              1.0
    ''')}
    mol.verbose = 5
    mol.build()

    mf = scf.RHF(mol)
    e = mf.kernel()

    return e

def grad_He_energy(exponent):
    mol = gto.Mole()
    mol.atom    = 'He 0 0 0'  # in Angstrom

    mol.basis = {'He': pyscf.gto.basis.parse(f'''
    He   S
        {exponent[0]}              1.0
        {exponent[1]}              1.0
    ''')}
    mol.verbose = 5
    mol.build()

    mf = scf.RHF(mol)
    mf.kernel()
    jac = mf.energy_grad()

    return jac.exp

x0 = [1e-5, 1e-6]
res = minimize(
    He_energy,
    x0,
    jac=grad_He_energy,
    bounds=((1e-6,None),(1e-6,None)),
    method='TNC', tol=1e-8,
    # options={"ftol": 1e-8, "eps": 1e-8},
)

print(res.x)
print(res.values())

# print("E", He_energy(71.6168370))

# print(f'Nuclaer gradient:\n{jac.coords}')
# print(f'Gradient wrt basis exponents:\n{jac.exp}')
# print(f'Gradient wrt basis contraction coefficients:\n{jac.ctr_coeff}')#INFO: ******************** input file end ********************


System: uname_result(system='Darwin', node='Deyans-MacBook-Pro-Home.local', release='22.1.0', version='Darwin Kernel Version 22.1.0: Sun Oct  9 20:14:54 PDT 2022; root:xnu-8792.41.9~2/RELEASE_X86_64', machine='x86_64', processor='i386')  Threads 1
Python 3.8.16 (default, Jan 17 2023, 16:42:09) 
[Clang 14.0.6 ]
numpy 1.24.2  scipy 1.10.1
Date: Fri Mar  3 22:14:26 2023
PySCF version 2.1.1
PySCF path  /Users/deyanmihaylov/opt/anaconda3/envs/pyscfad_env/lib/python3.8/site-packages/pyscf

[CONFIG] conf_file /Users/deyanmihaylov/.pyscf_conf.py
[INPUT] verbose = 5
[INPUT] max_memory = 4000 
[INPUT] num. atoms = 1
[INPUT] num. electrons = 2
[INPUT] charge = 0
[INPUT] spin (= nelec alpha-beta = 2S) = 0
[INPUT] symmetry False subgroup None
[INPUT] Mole.unit = angstrom
[INPUT] Symbol           X                Y                Z      unit          X                Y                Z       unit  Magmom
[INPUT]  1 He     0.000000000000   0.000000000000   0.000000000000 AA    0.000000000000   0.000000000000   0.000000000000 Bohr   0.0
[INPUT] ---------------- BASIS SET ---------------- 
[INPUT] l, kappa, [nprim/nctr], expnt,             c_1 c_2 ...
[INPUT] He
[INPUT] 0    0    [2    /1   ]  1.00402211694e-05      1
                                1.85532528286e-06      1

nuclear repulsion = 0
number of shells = 1
number of NR pGTOs = 2
number of NR cGTOs = 1
basis = {'He': [[0, [1.0040221169439866e-05, 1.0], [1.855325282860487e-06, 1.0]]]}
ecp = {}
CPU time:         6.76
Set gradient conv threshold to 3.16228e-05
cond(S) = 1.0
E1 = -6.856925828496157e-09  E_coul = 5.204626781103518e-16
init E= -6.85692530803348e-09
    CPU time for initialize scf      0.02 sec, wall time      0.02 sec
  mo_energy =
[-0.00743415]
E1 = -0.014868306007220732  E_coul = 0.00244711100599103
cycle= 1 E= -0.0124211950012297  delta_E= -0.0124  |g|=    0  |ddm|=    2
    CPU time for cycle= 1      0.01 sec, wall time      0.01 sec
  mo_energy =
[-0.00498704]
E1 = -0.014868306007220732  E_coul = 0.00244711100599103
cycle= 2 E= -0.0124211950012297  delta_E=    0  |g|=    0  |ddm|=    0
    CPU time for cycle= 2      0.01 sec, wall time      0.01 sec
E1 = -0.014868306007220732  E_coul = 0.00244711100599103
  mo_energy =
[-0.00498704]
E1 = -0.014868306007220732  E_coul = 0.00244711100599103
Extra cycle  E= -0.0124211950012297  delta_E=    0  |g|=    0  |ddm|=    0
    CPU time for scf_cycle      0.04 sec, wall time      0.04 sec
#INFO: **** input file is /Users/deyanmihaylov/Documents/Work/h5py_mpi_test/pyscfad_test.py ****
import pyscf
from pyscfad import gto, scf
import numpy as np

from scipy.optimize import minimize, Bounds

"""
Analytic nuclear gradient for RHF computed by auto-differentiation
"""


def He_energy(exponent):
    mol = gto.Mole()
    mol.atom    = 'He 0 0 0'  # in Angstrom

    mol.basis = {'He': pyscf.gto.basis.parse(f'''
    He   S
        {exponent[0]}              1.0
        {exponent[1]}              1.0
    ''')}
    mol.verbose = 5
    mol.build()

    mf = scf.RHF(mol)
    e = mf.kernel()

    return e

def grad_He_energy(exponent):
    mol = gto.Mole()
    mol.atom    = 'He 0 0 0'  # in Angstrom

    mol.basis = {'He': pyscf.gto.basis.parse(f'''
    He   S
        {exponent[0]}              1.0
        {exponent[1]}              1.0
    ''')}
    mol.verbose = 5
    mol.build()

    mf = scf.RHF(mol)
    mf.kernel()
    jac = mf.energy_grad()

    return jac.exp

x0 = [1e-5, 1e-6]
res = minimize(
    He_energy,
    x0,
    jac=grad_He_energy,
    bounds=((1e-6,None),(1e-6,None)),
    method='TNC', tol=1e-8,
    # options={"ftol": 1e-8, "eps": 1e-8},
)

print(res.x)
print(res.values())

# print("E", He_energy(71.6168370))

# print(f'Nuclaer gradient:\n{jac.coords}')
# print(f'Gradient wrt basis exponents:\n{jac.exp}')
# print(f'Gradient wrt basis contraction coefficients:\n{jac.ctr_coeff}')#INFO: ******************** input file end ********************


System: uname_result(system='Darwin', node='Deyans-MacBook-Pro-Home.local', release='22.1.0', version='Darwin Kernel Version 22.1.0: Sun Oct  9 20:14:54 PDT 2022; root:xnu-8792.41.9~2/RELEASE_X86_64', machine='x86_64', processor='i386')  Threads 1
Python 3.8.16 (default, Jan 17 2023, 16:42:09) 
[Clang 14.0.6 ]
numpy 1.24.2  scipy 1.10.1
Date: Fri Mar  3 22:14:26 2023
PySCF version 2.1.1
PySCF path  /Users/deyanmihaylov/opt/anaconda3/envs/pyscfad_env/lib/python3.8/site-packages/pyscf

[CONFIG] conf_file /Users/deyanmihaylov/.pyscf_conf.py
[INPUT] verbose = 5
[INPUT] max_memory = 4000 
[INPUT] num. atoms = 1
[INPUT] num. electrons = 2
[INPUT] charge = 0
[INPUT] spin (= nelec alpha-beta = 2S) = 0
[INPUT] symmetry False subgroup None
[INPUT] Mole.unit = angstrom
[INPUT] Symbol           X                Y                Z      unit          X                Y                Z       unit  Magmom
[INPUT]  1 He     0.000000000000   0.000000000000   0.000000000000 AA    0.000000000000   0.000000000000   0.000000000000 Bohr   0.0
[INPUT] ---------------- BASIS SET ---------------- 
[INPUT] l, kappa, [nprim/nctr], expnt,             c_1 c_2 ...
[INPUT] He
[INPUT] 0    0    [2    /1   ]  1.00402211694e-05      1
                                1.85532528286e-06      1

nuclear repulsion = 0
number of shells = 1
number of NR pGTOs = 2
number of NR cGTOs = 1
basis = {'He': [[0, [1.0040221169439866e-05, 1.0], [1.855325282860487e-06, 1.0]]]}
ecp = {}
CPU time:         6.84
Set gradient conv threshold to 3.16228e-05
cond(S) = 1.0
E1 = -6.856925828496157e-09  E_coul = 5.204626781103518e-16
init E= -6.85692530803348e-09
    CPU time for initialize scf      0.02 sec, wall time      0.02 sec
  mo_energy =
[-0.00743415]
E1 = -0.014868306007220732  E_coul = 0.00244711100599103
cycle= 1 E= -0.0124211950012297  delta_E= -0.0124  |g|=    0  |ddm|=    2
    CPU time for cycle= 1      0.01 sec, wall time      0.01 sec
  mo_energy =
[-0.00498704]
E1 = -0.014868306007220732  E_coul = 0.00244711100599103
cycle= 2 E= -0.0124211950012297  delta_E=    0  |g|=    0  |ddm|=    0
    CPU time for cycle= 2      0.01 sec, wall time      0.01 sec
E1 = -0.014868306007220732  E_coul = 0.00244711100599103
  mo_energy =
[-0.00498704]
E1 = -0.014868306007220732  E_coul = 0.00244711100599103
Extra cycle  E= -0.0124211950012297  delta_E=    0  |g|=    0  |ddm|=    0
    CPU time for scf_cycle      0.04 sec, wall time      0.04 sec
Set gradient conv threshold to 3.16228e-05
cond(S) = 1.0
E1 = -0.014868306007220732  E_coul = 0.00244711100599103
init E= -0.0124211950012297
    CPU time for initialize scf      0.03 sec, wall time      0.03 sec
  mo_energy =
[-0.00498704]
E1 = -0.014868306007220732  E_coul = 0.00244711100599103
cycle= 1 E= -0.0124211950012297  delta_E=    0  |g|=    0  |ddm|=    0
    CPU time for cycle= 1      0.01 sec, wall time      0.01 sec
E1 = -0.014868306007220732  E_coul = 0.00244711100599103
  mo_energy =
[-0.00498704]
E1 = -0.014868306007220732  E_coul = 0.00244711100599103
Extra cycle  E= -0.0124211950012297  delta_E=    0  |g|=    0  |ddm|=    0
    CPU time for scf_cycle      0.07 sec, wall time      0.07 sec
#INFO: **** input file is /Users/deyanmihaylov/Documents/Work/h5py_mpi_test/pyscfad_test.py ****
import pyscf
from pyscfad import gto, scf
import numpy as np

from scipy.optimize import minimize, Bounds

"""
Analytic nuclear gradient for RHF computed by auto-differentiation
"""


def He_energy(exponent):
    mol = gto.Mole()
    mol.atom    = 'He 0 0 0'  # in Angstrom

    mol.basis = {'He': pyscf.gto.basis.parse(f'''
    He   S
        {exponent[0]}              1.0
        {exponent[1]}              1.0
    ''')}
    mol.verbose = 5
    mol.build()

    mf = scf.RHF(mol)
    e = mf.kernel()

    return e

def grad_He_energy(exponent):
    mol = gto.Mole()
    mol.atom    = 'He 0 0 0'  # in Angstrom

    mol.basis = {'He': pyscf.gto.basis.parse(f'''
    He   S
        {exponent[0]}              1.0
        {exponent[1]}              1.0
    ''')}
    mol.verbose = 5
    mol.build()

    mf = scf.RHF(mol)
    mf.kernel()
    jac = mf.energy_grad()

    return jac.exp

x0 = [1e-5, 1e-6]
res = minimize(
    He_energy,
    x0,
    jac=grad_He_energy,
    bounds=((1e-6,None),(1e-6,None)),
    method='TNC', tol=1e-8,
    # options={"ftol": 1e-8, "eps": 1e-8},
)

print(res.x)
print(res.values())

# print("E", He_energy(71.6168370))

# print(f'Nuclaer gradient:\n{jac.coords}')
# print(f'Gradient wrt basis exponents:\n{jac.exp}')
# print(f'Gradient wrt basis contraction coefficients:\n{jac.ctr_coeff}')#INFO: ******************** input file end ********************


System: uname_result(system='Darwin', node='Deyans-MacBook-Pro-Home.local', release='22.1.0', version='Darwin Kernel Version 22.1.0: Sun Oct  9 20:14:54 PDT 2022; root:xnu-8792.41.9~2/RELEASE_X86_64', machine='x86_64', processor='i386')  Threads 1
Python 3.8.16 (default, Jan 17 2023, 16:42:09) 
[Clang 14.0.6 ]
numpy 1.24.2  scipy 1.10.1
Date: Fri Mar  3 22:14:28 2023
PySCF version 2.1.1
PySCF path  /Users/deyanmihaylov/opt/anaconda3/envs/pyscfad_env/lib/python3.8/site-packages/pyscf

[CONFIG] conf_file /Users/deyanmihaylov/.pyscf_conf.py
[INPUT] verbose = 5
[INPUT] max_memory = 4000 
[INPUT] num. atoms = 1
[INPUT] num. electrons = 2
[INPUT] charge = 0
[INPUT] spin (= nelec alpha-beta = 2S) = 0
[INPUT] symmetry False subgroup None
[INPUT] Mole.unit = angstrom
[INPUT] Symbol           X                Y                Z      unit          X                Y                Z       unit  Magmom
[INPUT]  1 He     0.000000000000   0.000000000000   0.000000000000 AA    0.000000000000   0.000000000000   0.000000000000 Bohr   0.0
[INPUT] ---------------- BASIS SET ---------------- 
[INPUT] l, kappa, [nprim/nctr], expnt,             c_1 c_2 ...
[INPUT] He
[INPUT] 0    0    [2    /1   ]  1.02413270166e-05      1
                                6.13195169716e-06      1

nuclear repulsion = 0
number of shells = 1
number of NR pGTOs = 2
number of NR cGTOs = 1
basis = {'He': [[0, [1.0241327016639188e-05, 1.0], [6.131951697162923e-06, 1.0]]]}
ecp = {}
CPU time:         8.33
Set gradient conv threshold to 3.16228e-05
cond(S) = 1.0
E1 = -1.2295741599811102e-08  E_coul = 1.4640949404084538e-15
init E= -1.22957401357162e-08
    CPU time for initialize scf      0.02 sec, wall time      0.02 sec
  mo_energy =
[-0.00908224]
E1 = -0.018164490974085477  E_coul = 0.003195260337321048
cycle= 1 E= -0.0149692306367644  delta_E= -0.015  |g|=    0  |ddm|=    2
    CPU time for cycle= 1      0.00 sec, wall time      0.00 sec
  mo_energy =
[-0.00588699]
E1 = -0.018164490974085477  E_coul = 0.003195260337321048
cycle= 2 E= -0.0149692306367644  delta_E=    0  |g|=    0  |ddm|=    0
    CPU time for cycle= 2      0.01 sec, wall time      0.01 sec
E1 = -0.018164490974085477  E_coul = 0.003195260337321048
  mo_energy =
[-0.00588699]
E1 = -0.018164490974085477  E_coul = 0.003195260337321048
Extra cycle  E= -0.0149692306367644  delta_E=    0  |g|=    0  |ddm|=    0
    CPU time for scf_cycle      0.04 sec, wall time      0.04 sec
#INFO: **** input file is /Users/deyanmihaylov/Documents/Work/h5py_mpi_test/pyscfad_test.py ****
import pyscf
from pyscfad import gto, scf
import numpy as np

from scipy.optimize import minimize, Bounds

"""
Analytic nuclear gradient for RHF computed by auto-differentiation
"""


def He_energy(exponent):
    mol = gto.Mole()
    mol.atom    = 'He 0 0 0'  # in Angstrom

    mol.basis = {'He': pyscf.gto.basis.parse(f'''
    He   S
        {exponent[0]}              1.0
        {exponent[1]}              1.0
    ''')}
    mol.verbose = 5
    mol.build()

    mf = scf.RHF(mol)
    e = mf.kernel()

    return e

def grad_He_energy(exponent):
    mol = gto.Mole()
    mol.atom    = 'He 0 0 0'  # in Angstrom

    mol.basis = {'He': pyscf.gto.basis.parse(f'''
    He   S
        {exponent[0]}              1.0
        {exponent[1]}              1.0
    ''')}
    mol.verbose = 5
    mol.build()

    mf = scf.RHF(mol)
    mf.kernel()
    jac = mf.energy_grad()

    return jac.exp

x0 = [1e-5, 1e-6]
res = minimize(
    He_energy,
    x0,
    jac=grad_He_energy,
    bounds=((1e-6,None),(1e-6,None)),
    method='TNC', tol=1e-8,
    # options={"ftol": 1e-8, "eps": 1e-8},
)

print(res.x)
print(res.values())

# print("E", He_energy(71.6168370))

# print(f'Nuclaer gradient:\n{jac.coords}')
# print(f'Gradient wrt basis exponents:\n{jac.exp}')
# print(f'Gradient wrt basis contraction coefficients:\n{jac.ctr_coeff}')#INFO: ******************** input file end ********************


System: uname_result(system='Darwin', node='Deyans-MacBook-Pro-Home.local', release='22.1.0', version='Darwin Kernel Version 22.1.0: Sun Oct  9 20:14:54 PDT 2022; root:xnu-8792.41.9~2/RELEASE_X86_64', machine='x86_64', processor='i386')  Threads 1
Python 3.8.16 (default, Jan 17 2023, 16:42:09) 
[Clang 14.0.6 ]
numpy 1.24.2  scipy 1.10.1
Date: Fri Mar  3 22:14:28 2023
PySCF version 2.1.1
PySCF path  /Users/deyanmihaylov/opt/anaconda3/envs/pyscfad_env/lib/python3.8/site-packages/pyscf

[CONFIG] conf_file /Users/deyanmihaylov/.pyscf_conf.py
[INPUT] verbose = 5
[INPUT] max_memory = 4000 
[INPUT] num. atoms = 1
[INPUT] num. electrons = 2
[INPUT] charge = 0
[INPUT] spin (= nelec alpha-beta = 2S) = 0
[INPUT] symmetry False subgroup None
[INPUT] Mole.unit = angstrom
[INPUT] Symbol           X                Y                Z      unit          X                Y                Z       unit  Magmom
[INPUT]  1 He     0.000000000000   0.000000000000   0.000000000000 AA    0.000000000000   0.000000000000   0.000000000000 Bohr   0.0
[INPUT] ---------------- BASIS SET ---------------- 
[INPUT] l, kappa, [nprim/nctr], expnt,             c_1 c_2 ...
[INPUT] He
[INPUT] 0    0    [2    /1   ]  1.02413270166e-05      1
                                6.13195169716e-06      1

nuclear repulsion = 0
number of shells = 1
number of NR pGTOs = 2
number of NR cGTOs = 1
basis = {'He': [[0, [1.0241327016639188e-05, 1.0], [6.131951697162923e-06, 1.0]]]}
ecp = {}
CPU time:         8.43
Set gradient conv threshold to 3.16228e-05
cond(S) = 1.0
E1 = -1.2295741599811102e-08  E_coul = 1.4640949404084538e-15
init E= -1.22957401357162e-08
    CPU time for initialize scf      0.02 sec, wall time      0.02 sec
  mo_energy =
[-0.00908224]
E1 = -0.018164490974085477  E_coul = 0.003195260337321048
cycle= 1 E= -0.0149692306367644  delta_E= -0.015  |g|=    0  |ddm|=    2
    CPU time for cycle= 1      0.00 sec, wall time      0.00 sec
  mo_energy =
[-0.00588699]
E1 = -0.018164490974085477  E_coul = 0.003195260337321048
cycle= 2 E= -0.0149692306367644  delta_E=    0  |g|=    0  |ddm|=    0
    CPU time for cycle= 2      0.01 sec, wall time      0.01 sec
E1 = -0.018164490974085477  E_coul = 0.003195260337321048
  mo_energy =
[-0.00588699]
E1 = -0.018164490974085477  E_coul = 0.003195260337321048
Extra cycle  E= -0.0149692306367644  delta_E=    0  |g|=    0  |ddm|=    0
    CPU time for scf_cycle      0.03 sec, wall time      0.03 sec
Set gradient conv threshold to 3.16228e-05
cond(S) = 1.0
E1 = -0.018164490974085477  E_coul = 0.003195260337321048
init E= -0.0149692306367644
    CPU time for initialize scf      0.03 sec, wall time      0.03 sec
  mo_energy =
[-0.00588699]
E1 = -0.018164490974085477  E_coul = 0.003195260337321048
cycle= 1 E= -0.0149692306367644  delta_E=    0  |g|=    0  |ddm|=    0
    CPU time for cycle= 1      0.00 sec, wall time      0.00 sec
E1 = -0.018164490974085477  E_coul = 0.003195260337321048
  mo_energy =
[-0.00588699]
E1 = -0.018164490974085477  E_coul = 0.003195260337321048
Extra cycle  E= -0.0149692306367644  delta_E=    0  |g|=    0  |ddm|=    0
    CPU time for scf_cycle      0.06 sec, wall time      0.06 sec
#INFO: **** input file is /Users/deyanmihaylov/Documents/Work/h5py_mpi_test/pyscfad_test.py ****
import pyscf
from pyscfad import gto, scf
import numpy as np

from scipy.optimize import minimize, Bounds

"""
Analytic nuclear gradient for RHF computed by auto-differentiation
"""


def He_energy(exponent):
    mol = gto.Mole()
    mol.atom    = 'He 0 0 0'  # in Angstrom

    mol.basis = {'He': pyscf.gto.basis.parse(f'''
    He   S
        {exponent[0]}              1.0
        {exponent[1]}              1.0
    ''')}
    mol.verbose = 5
    mol.build()

    mf = scf.RHF(mol)
    e = mf.kernel()

    return e

def grad_He_energy(exponent):
    mol = gto.Mole()
    mol.atom    = 'He 0 0 0'  # in Angstrom

    mol.basis = {'He': pyscf.gto.basis.parse(f'''
    He   S
        {exponent[0]}              1.0
        {exponent[1]}              1.0
    ''')}
    mol.verbose = 5
    mol.build()

    mf = scf.RHF(mol)
    mf.kernel()
    jac = mf.energy_grad()

    return jac.exp

x0 = [1e-5, 1e-6]
res = minimize(
    He_energy,
    x0,
    jac=grad_He_energy,
    bounds=((1e-6,None),(1e-6,None)),
    method='TNC', tol=1e-8,
    # options={"ftol": 1e-8, "eps": 1e-8},
)

print(res.x)
print(res.values())

# print("E", He_energy(71.6168370))

# print(f'Nuclaer gradient:\n{jac.coords}')
# print(f'Gradient wrt basis exponents:\n{jac.exp}')
# print(f'Gradient wrt basis contraction coefficients:\n{jac.ctr_coeff}')#INFO: ******************** input file end ********************


System: uname_result(system='Darwin', node='Deyans-MacBook-Pro-Home.local', release='22.1.0', version='Darwin Kernel Version 22.1.0: Sun Oct  9 20:14:54 PDT 2022; root:xnu-8792.41.9~2/RELEASE_X86_64', machine='x86_64', processor='i386')  Threads 1
Python 3.8.16 (default, Jan 17 2023, 16:42:09) 
[Clang 14.0.6 ]
numpy 1.24.2  scipy 1.10.1
Date: Fri Mar  3 22:14:29 2023
PySCF version 2.1.1
PySCF path  /Users/deyanmihaylov/opt/anaconda3/envs/pyscfad_env/lib/python3.8/site-packages/pyscf

[CONFIG] conf_file /Users/deyanmihaylov/.pyscf_conf.py
[INPUT] verbose = 5
[INPUT] max_memory = 4000 
[INPUT] num. atoms = 1
[INPUT] num. electrons = 2
[INPUT] charge = 0
[INPUT] spin (= nelec alpha-beta = 2S) = 0
[INPUT] symmetry False subgroup None
[INPUT] Mole.unit = angstrom
[INPUT] Symbol           X                Y                Z      unit          X                Y                Z       unit  Magmom
[INPUT]  1 He     0.000000000000   0.000000000000   0.000000000000 AA    0.000000000000   0.000000000000   0.000000000000 Bohr   0.0
[INPUT] ---------------- BASIS SET ---------------- 
[INPUT] l, kappa, [nprim/nctr], expnt,             c_1 c_2 ...
[INPUT] He
[INPUT] 0    0    [2    /1   ]  1.0241328725e-05      1
                                6.13195180465e-06      1

nuclear repulsion = 0
number of shells = 1
number of NR pGTOs = 2
number of NR cGTOs = 1
basis = {'He': [[0, [1.0241328725008825e-05, 1.0], [6.131951804654589e-06, 1.0]]]}
ecp = {}
CPU time:        10.14
Set gradient conv threshold to 3.16228e-05
cond(S) = 1.0
E1 = -1.229574438128993e-08  E_coul = 1.4640955199205908e-15
init E= -1.22957429171944e-08
    CPU time for initialize scf      0.02 sec, wall time      0.02 sec
  mo_energy =
[-0.00908224]
E1 = -0.018164491936650345  E_coul = 0.0031952604950692826
cycle= 1 E= -0.0149692314415811  delta_E= -0.015  |g|=    0  |ddm|=    2
    CPU time for cycle= 1      0.01 sec, wall time      0.01 sec
  mo_energy =
[-0.00588699]
E1 = -0.018164491936650345  E_coul = 0.0031952604950692826
cycle= 2 E= -0.0149692314415811  delta_E=    0  |g|=    0  |ddm|=    0
    CPU time for cycle= 2      0.01 sec, wall time      0.01 sec
E1 = -0.018164491936650345  E_coul = 0.0031952604950692826
  mo_energy =
[-0.00588699]
E1 = -0.018164491936650345  E_coul = 0.0031952604950692826
Extra cycle  E= -0.0149692314415811  delta_E=    0  |g|=    0  |ddm|=    0
    CPU time for scf_cycle      0.04 sec, wall time      0.04 sec
#INFO: **** input file is /Users/deyanmihaylov/Documents/Work/h5py_mpi_test/pyscfad_test.py ****
import pyscf
from pyscfad import gto, scf
import numpy as np

from scipy.optimize import minimize, Bounds

"""
Analytic nuclear gradient for RHF computed by auto-differentiation
"""


def He_energy(exponent):
    mol = gto.Mole()
    mol.atom    = 'He 0 0 0'  # in Angstrom

    mol.basis = {'He': pyscf.gto.basis.parse(f'''
    He   S
        {exponent[0]}              1.0
        {exponent[1]}              1.0
    ''')}
    mol.verbose = 5
    mol.build()

    mf = scf.RHF(mol)
    e = mf.kernel()

    return e

def grad_He_energy(exponent):
    mol = gto.Mole()
    mol.atom    = 'He 0 0 0'  # in Angstrom

    mol.basis = {'He': pyscf.gto.basis.parse(f'''
    He   S
        {exponent[0]}              1.0
        {exponent[1]}              1.0
    ''')}
    mol.verbose = 5
    mol.build()

    mf = scf.RHF(mol)
    mf.kernel()
    jac = mf.energy_grad()

    return jac.exp

x0 = [1e-5, 1e-6]
res = minimize(
    He_energy,
    x0,
    jac=grad_He_energy,
    bounds=((1e-6,None),(1e-6,None)),
    method='TNC', tol=1e-8,
    # options={"ftol": 1e-8, "eps": 1e-8},
)

print(res.x)
print(res.values())

# print("E", He_energy(71.6168370))

# print(f'Nuclaer gradient:\n{jac.coords}')
# print(f'Gradient wrt basis exponents:\n{jac.exp}')
# print(f'Gradient wrt basis contraction coefficients:\n{jac.ctr_coeff}')#INFO: ******************** input file end ********************


System: uname_result(system='Darwin', node='Deyans-MacBook-Pro-Home.local', release='22.1.0', version='Darwin Kernel Version 22.1.0: Sun Oct  9 20:14:54 PDT 2022; root:xnu-8792.41.9~2/RELEASE_X86_64', machine='x86_64', processor='i386')  Threads 1
Python 3.8.16 (default, Jan 17 2023, 16:42:09) 
[Clang 14.0.6 ]
numpy 1.24.2  scipy 1.10.1
Date: Fri Mar  3 22:14:29 2023
PySCF version 2.1.1
PySCF path  /Users/deyanmihaylov/opt/anaconda3/envs/pyscfad_env/lib/python3.8/site-packages/pyscf

[CONFIG] conf_file /Users/deyanmihaylov/.pyscf_conf.py
[INPUT] verbose = 5
[INPUT] max_memory = 4000 
[INPUT] num. atoms = 1
[INPUT] num. electrons = 2
[INPUT] charge = 0
[INPUT] spin (= nelec alpha-beta = 2S) = 0
[INPUT] symmetry False subgroup None
[INPUT] Mole.unit = angstrom
[INPUT] Symbol           X                Y                Z      unit          X                Y                Z       unit  Magmom
[INPUT]  1 He     0.000000000000   0.000000000000   0.000000000000 AA    0.000000000000   0.000000000000   0.000000000000 Bohr   0.0
[INPUT] ---------------- BASIS SET ---------------- 
[INPUT] l, kappa, [nprim/nctr], expnt,             c_1 c_2 ...
[INPUT] He
[INPUT] 0    0    [2    /1   ]  1.0241328725e-05      1
                                6.13195180465e-06      1

nuclear repulsion = 0
number of shells = 1
number of NR pGTOs = 2
number of NR cGTOs = 1
basis = {'He': [[0, [1.0241328725008825e-05, 1.0], [6.131951804654589e-06, 1.0]]]}
ecp = {}
CPU time:        10.26
Set gradient conv threshold to 3.16228e-05
cond(S) = 1.0
E1 = -1.229574438128993e-08  E_coul = 1.4640955199205908e-15
init E= -1.22957429171944e-08
    CPU time for initialize scf      0.02 sec, wall time      0.02 sec
  mo_energy =
[-0.00908224]
E1 = -0.018164491936650345  E_coul = 0.0031952604950692826
cycle= 1 E= -0.0149692314415811  delta_E= -0.015  |g|=    0  |ddm|=    2
    CPU time for cycle= 1      0.00 sec, wall time      0.00 sec
  mo_energy =
[-0.00588699]
E1 = -0.018164491936650345  E_coul = 0.0031952604950692826
cycle= 2 E= -0.0149692314415811  delta_E=    0  |g|=    0  |ddm|=    0
    CPU time for cycle= 2      0.01 sec, wall time      0.01 sec
E1 = -0.018164491936650345  E_coul = 0.0031952604950692826
  mo_energy =
[-0.00588699]
E1 = -0.018164491936650345  E_coul = 0.0031952604950692826
Extra cycle  E= -0.0149692314415811  delta_E=    0  |g|=    0  |ddm|=    0
    CPU time for scf_cycle      0.03 sec, wall time      0.03 sec
Set gradient conv threshold to 3.16228e-05
cond(S) = 1.0
E1 = -0.018164491936650345  E_coul = 0.0031952604950692826
init E= -0.0149692314415811
    CPU time for initialize scf      0.03 sec, wall time      0.03 sec
  mo_energy =
[-0.00588699]
E1 = -0.018164491936650345  E_coul = 0.0031952604950692826
cycle= 1 E= -0.0149692314415811  delta_E=    0  |g|=    0  |ddm|=    0
    CPU time for cycle= 1      0.00 sec, wall time      0.00 sec
E1 = -0.018164491936650345  E_coul = 0.0031952604950692826
  mo_energy =
[-0.00588699]
E1 = -0.018164491936650345  E_coul = 0.0031952604950692826
Extra cycle  E= -0.0149692314415811  delta_E=    0  |g|=    0  |ddm|=    0
    CPU time for scf_cycle      0.06 sec, wall time      0.06 sec
#INFO: **** input file is /Users/deyanmihaylov/Documents/Work/h5py_mpi_test/pyscfad_test.py ****
import pyscf
from pyscfad import gto, scf
import numpy as np

from scipy.optimize import minimize, Bounds

"""
Analytic nuclear gradient for RHF computed by auto-differentiation
"""


def He_energy(exponent):
    mol = gto.Mole()
    mol.atom    = 'He 0 0 0'  # in Angstrom

    mol.basis = {'He': pyscf.gto.basis.parse(f'''
    He   S
        {exponent[0]}              1.0
        {exponent[1]}              1.0
    ''')}
    mol.verbose = 5
    mol.build()

    mf = scf.RHF(mol)
    e = mf.kernel()

    return e

def grad_He_energy(exponent):
    mol = gto.Mole()
    mol.atom    = 'He 0 0 0'  # in Angstrom

    mol.basis = {'He': pyscf.gto.basis.parse(f'''
    He   S
        {exponent[0]}              1.0
        {exponent[1]}              1.0
    ''')}
    mol.verbose = 5
    mol.build()

    mf = scf.RHF(mol)
    mf.kernel()
    jac = mf.energy_grad()

    return jac.exp

x0 = [1e-5, 1e-6]
res = minimize(
    He_energy,
    x0,
    jac=grad_He_energy,
    bounds=((1e-6,None),(1e-6,None)),
    method='TNC', tol=1e-8,
    # options={"ftol": 1e-8, "eps": 1e-8},
)

print(res.x)
print(res.values())

# print("E", He_energy(71.6168370))

# print(f'Nuclaer gradient:\n{jac.coords}')
# print(f'Gradient wrt basis exponents:\n{jac.exp}')
# print(f'Gradient wrt basis contraction coefficients:\n{jac.ctr_coeff}')#INFO: ******************** input file end ********************


System: uname_result(system='Darwin', node='Deyans-MacBook-Pro-Home.local', release='22.1.0', version='Darwin Kernel Version 22.1.0: Sun Oct  9 20:14:54 PDT 2022; root:xnu-8792.41.9~2/RELEASE_X86_64', machine='x86_64', processor='i386')  Threads 1
Python 3.8.16 (default, Jan 17 2023, 16:42:09) 
[Clang 14.0.6 ]
numpy 1.24.2  scipy 1.10.1
Date: Fri Mar  3 22:14:31 2023
PySCF version 2.1.1
PySCF path  /Users/deyanmihaylov/opt/anaconda3/envs/pyscfad_env/lib/python3.8/site-packages/pyscf

[CONFIG] conf_file /Users/deyanmihaylov/.pyscf_conf.py
[INPUT] verbose = 5
[INPUT] max_memory = 4000 
[INPUT] num. atoms = 1
[INPUT] num. electrons = 2
[INPUT] charge = 0
[INPUT] spin (= nelec alpha-beta = 2S) = 0
[INPUT] symmetry False subgroup None
[INPUT] Mole.unit = angstrom
[INPUT] Symbol           X                Y                Z      unit          X                Y                Z       unit  Magmom
[INPUT]  1 He     0.000000000000   0.000000000000   0.000000000000 AA    0.000000000000   0.000000000000   0.000000000000 Bohr   0.0
[INPUT] ---------------- BASIS SET ---------------- 
[INPUT] l, kappa, [nprim/nctr], expnt,             c_1 c_2 ...
[INPUT] He
[INPUT] 0    0    [2    /1   ]  2.73876250135e-05      1
                                7.21080728947e-06      1

nuclear repulsion = 0
number of shells = 1
number of NR pGTOs = 2
number of NR cGTOs = 1
basis = {'He': [[0, [2.7387625013476657e-05, 1.0], [7.2108072894695274e-06, 1.0]]]}
ecp = {}
CPU time:        11.76
Set gradient conv threshold to 3.16228e-05
cond(S) = 1.0
E1 = -5.691615468975171e-08  E_coul = 2.1295483547360637e-14
init E= -5.69161333942682e-08
    CPU time for initialize scf      0.02 sec, wall time      0.02 sec
  mo_energy =
[-0.01288376]
E1 = -0.02576753375432385  E_coul = 0.004364777511144194
cycle= 1 E= -0.0214027562431797  delta_E= -0.0214  |g|=    0  |ddm|=    2
    CPU time for cycle= 1      0.01 sec, wall time      0.01 sec
  mo_energy =
[-0.00851899]
E1 = -0.02576753375432385  E_coul = 0.004364777511144194
cycle= 2 E= -0.0214027562431797  delta_E=    0  |g|=    0  |ddm|=    0
    CPU time for cycle= 2      0.01 sec, wall time      0.01 sec
E1 = -0.02576753375432385  E_coul = 0.004364777511144194
  mo_energy =
[-0.00851899]
E1 = -0.02576753375432385  E_coul = 0.004364777511144194
Extra cycle  E= -0.0214027562431797  delta_E=    0  |g|=    0  |ddm|=    0
    CPU time for scf_cycle      0.04 sec, wall time      0.04 sec
#INFO: **** input file is /Users/deyanmihaylov/Documents/Work/h5py_mpi_test/pyscfad_test.py ****
import pyscf
from pyscfad import gto, scf
import numpy as np

from scipy.optimize import minimize, Bounds

"""
Analytic nuclear gradient for RHF computed by auto-differentiation
"""


def He_energy(exponent):
    mol = gto.Mole()
    mol.atom    = 'He 0 0 0'  # in Angstrom

    mol.basis = {'He': pyscf.gto.basis.parse(f'''
    He   S
        {exponent[0]}              1.0
        {exponent[1]}              1.0
    ''')}
    mol.verbose = 5
    mol.build()

    mf = scf.RHF(mol)
    e = mf.kernel()

    return e

def grad_He_energy(exponent):
    mol = gto.Mole()
    mol.atom    = 'He 0 0 0'  # in Angstrom

    mol.basis = {'He': pyscf.gto.basis.parse(f'''
    He   S
        {exponent[0]}              1.0
        {exponent[1]}              1.0
    ''')}
    mol.verbose = 5
    mol.build()

    mf = scf.RHF(mol)
    mf.kernel()
    jac = mf.energy_grad()

    return jac.exp

x0 = [1e-5, 1e-6]
res = minimize(
    He_energy,
    x0,
    jac=grad_He_energy,
    bounds=((1e-6,None),(1e-6,None)),
    method='TNC', tol=1e-8,
    # options={"ftol": 1e-8, "eps": 1e-8},
)

print(res.x)
print(res.values())

# print("E", He_energy(71.6168370))

# print(f'Nuclaer gradient:\n{jac.coords}')
# print(f'Gradient wrt basis exponents:\n{jac.exp}')
# print(f'Gradient wrt basis contraction coefficients:\n{jac.ctr_coeff}')#INFO: ******************** input file end ********************


System: uname_result(system='Darwin', node='Deyans-MacBook-Pro-Home.local', release='22.1.0', version='Darwin Kernel Version 22.1.0: Sun Oct  9 20:14:54 PDT 2022; root:xnu-8792.41.9~2/RELEASE_X86_64', machine='x86_64', processor='i386')  Threads 1
Python 3.8.16 (default, Jan 17 2023, 16:42:09) 
[Clang 14.0.6 ]
numpy 1.24.2  scipy 1.10.1
Date: Fri Mar  3 22:14:31 2023
PySCF version 2.1.1
PySCF path  /Users/deyanmihaylov/opt/anaconda3/envs/pyscfad_env/lib/python3.8/site-packages/pyscf

[CONFIG] conf_file /Users/deyanmihaylov/.pyscf_conf.py
[INPUT] verbose = 5
[INPUT] max_memory = 4000 
[INPUT] num. atoms = 1
[INPUT] num. electrons = 2
[INPUT] charge = 0
[INPUT] spin (= nelec alpha-beta = 2S) = 0
[INPUT] symmetry False subgroup None
[INPUT] Mole.unit = angstrom
[INPUT] Symbol           X                Y                Z      unit          X                Y                Z       unit  Magmom
[INPUT]  1 He     0.000000000000   0.000000000000   0.000000000000 AA    0.000000000000   0.000000000000   0.000000000000 Bohr   0.0
[INPUT] ---------------- BASIS SET ---------------- 
[INPUT] l, kappa, [nprim/nctr], expnt,             c_1 c_2 ...
[INPUT] He
[INPUT] 0    0    [2    /1   ]  2.73876250135e-05      1
                                7.21080728947e-06      1

nuclear repulsion = 0
number of shells = 1
number of NR pGTOs = 2
number of NR cGTOs = 1
basis = {'He': [[0, [2.7387625013476657e-05, 1.0], [7.2108072894695274e-06, 1.0]]]}
ecp = {}
CPU time:        11.88
Set gradient conv threshold to 3.16228e-05
cond(S) = 1.0
E1 = -5.691615468975171e-08  E_coul = 2.1295483547360637e-14
init E= -5.69161333942682e-08
    CPU time for initialize scf      0.02 sec, wall time      0.02 sec
  mo_energy =
[-0.01288376]
E1 = -0.02576753375432385  E_coul = 0.004364777511144194
cycle= 1 E= -0.0214027562431797  delta_E= -0.0214  |g|=    0  |ddm|=    2
    CPU time for cycle= 1      0.01 sec, wall time      0.01 sec
  mo_energy =
[-0.00851899]
E1 = -0.02576753375432385  E_coul = 0.004364777511144194
cycle= 2 E= -0.0214027562431797  delta_E=    0  |g|=    0  |ddm|=    0
    CPU time for cycle= 2      0.01 sec, wall time      0.01 sec
E1 = -0.02576753375432385  E_coul = 0.004364777511144194
  mo_energy =
[-0.00851899]
E1 = -0.02576753375432385  E_coul = 0.004364777511144194
Extra cycle  E= -0.0214027562431797  delta_E=    0  |g|=    0  |ddm|=    0
    CPU time for scf_cycle      0.04 sec, wall time      0.04 sec
Set gradient conv threshold to 3.16228e-05
cond(S) = 1.0
E1 = -0.02576753375432385  E_coul = 0.004364777511144194
init E= -0.0214027562431797
    CPU time for initialize scf      0.03 sec, wall time      0.03 sec
  mo_energy =
[-0.00851899]
E1 = -0.02576753375432385  E_coul = 0.004364777511144194
cycle= 1 E= -0.0214027562431797  delta_E=    0  |g|=    0  |ddm|=    0
    CPU time for cycle= 1      0.00 sec, wall time      0.00 sec
E1 = -0.02576753375432385  E_coul = 0.004364777511144194
  mo_energy =
[-0.00851899]
E1 = -0.02576753375432385  E_coul = 0.004364777511144194
Extra cycle  E= -0.0214027562431797  delta_E=    0  |g|=    0  |ddm|=    0
    CPU time for scf_cycle      0.07 sec, wall time      0.07 sec
#INFO: **** input file is /Users/deyanmihaylov/Documents/Work/h5py_mpi_test/pyscfad_test.py ****
import pyscf
from pyscfad import gto, scf
import numpy as np

from scipy.optimize import minimize, Bounds

"""
Analytic nuclear gradient for RHF computed by auto-differentiation
"""


def He_energy(exponent):
    mol = gto.Mole()
    mol.atom    = 'He 0 0 0'  # in Angstrom

    mol.basis = {'He': pyscf.gto.basis.parse(f'''
    He   S
        {exponent[0]}              1.0
        {exponent[1]}              1.0
    ''')}
    mol.verbose = 5
    mol.build()

    mf = scf.RHF(mol)
    e = mf.kernel()

    return e

def grad_He_energy(exponent):
    mol = gto.Mole()
    mol.atom    = 'He 0 0 0'  # in Angstrom

    mol.basis = {'He': pyscf.gto.basis.parse(f'''
    He   S
        {exponent[0]}              1.0
        {exponent[1]}              1.0
    ''')}
    mol.verbose = 5
    mol.build()

    mf = scf.RHF(mol)
    mf.kernel()
    jac = mf.energy_grad()

    return jac.exp

x0 = [1e-5, 1e-6]
res = minimize(
    He_energy,
    x0,
    jac=grad_He_energy,
    bounds=((1e-6,None),(1e-6,None)),
    method='TNC', tol=1e-8,
    # options={"ftol": 1e-8, "eps": 1e-8},
)

print(res.x)
print(res.values())

# print("E", He_energy(71.6168370))

# print(f'Nuclaer gradient:\n{jac.coords}')
# print(f'Gradient wrt basis exponents:\n{jac.exp}')
# print(f'Gradient wrt basis contraction coefficients:\n{jac.ctr_coeff}')#INFO: ******************** input file end ********************


System: uname_result(system='Darwin', node='Deyans-MacBook-Pro-Home.local', release='22.1.0', version='Darwin Kernel Version 22.1.0: Sun Oct  9 20:14:54 PDT 2022; root:xnu-8792.41.9~2/RELEASE_X86_64', machine='x86_64', processor='i386')  Threads 1
Python 3.8.16 (default, Jan 17 2023, 16:42:09) 
[Clang 14.0.6 ]
numpy 1.24.2  scipy 1.10.1
Date: Fri Mar  3 22:14:33 2023
PySCF version 2.1.1
PySCF path  /Users/deyanmihaylov/opt/anaconda3/envs/pyscfad_env/lib/python3.8/site-packages/pyscf

[CONFIG] conf_file /Users/deyanmihaylov/.pyscf_conf.py
[INPUT] verbose = 5
[INPUT] max_memory = 4000 
[INPUT] num. atoms = 1
[INPUT] num. electrons = 2
[INPUT] charge = 0
[INPUT] spin (= nelec alpha-beta = 2S) = 0
[INPUT] symmetry False subgroup None
[INPUT] Mole.unit = angstrom
[INPUT] Symbol           X                Y                Z      unit          X                Y                Z       unit  Magmom
[INPUT]  1 He     0.000000000000   0.000000000000   0.000000000000 AA    0.000000000000   0.000000000000   0.000000000000 Bohr   0.0
[INPUT] ---------------- BASIS SET ---------------- 
[INPUT] l, kappa, [nprim/nctr], expnt,             c_1 c_2 ...
[INPUT] He
[INPUT] 0    0    [2    /1   ]  0.000113119114998      1
                                1.2605085251e-05      1

nuclear repulsion = 0
number of shells = 1
number of NR pGTOs = 2
number of NR cGTOs = 1
basis = {'He': [[0, [0.00011311911499766399, 1.0], [1.2605085251002549e-05, 1.0]]]}
ecp = {}
CPU time:        13.37
Set gradient conv threshold to 3.16228e-05
cond(S) = 1.0
E1 = -7.799599409813326e-07  E_coul = 2.0360201548904e-12
init E= -7.79957904961178e-07
    CPU time for initialize scf      0.02 sec, wall time      0.02 sec
  mo_energy =
[-0.02340957]
E1 = -0.04681937817975435  E_coul = 0.007336497268645111
cycle= 1 E= -0.0394828809111092  delta_E= -0.0395  |g|=    0  |ddm|=    2
    CPU time for cycle= 1      0.01 sec, wall time      0.01 sec
  mo_energy =
[-0.01607319]
E1 = -0.04681937817975435  E_coul = 0.007336497268645111
cycle= 2 E= -0.0394828809111092  delta_E=    0  |g|=    0  |ddm|=    0
    CPU time for cycle= 2      0.01 sec, wall time      0.01 sec
E1 = -0.04681937817975435  E_coul = 0.007336497268645111
  mo_energy =
[-0.01607319]
E1 = -0.04681937817975435  E_coul = 0.007336497268645111
Extra cycle  E= -0.0394828809111092  delta_E=    0  |g|=    0  |ddm|=    0
    CPU time for scf_cycle      0.04 sec, wall time      0.04 sec
#INFO: **** input file is /Users/deyanmihaylov/Documents/Work/h5py_mpi_test/pyscfad_test.py ****
import pyscf
from pyscfad import gto, scf
import numpy as np

from scipy.optimize import minimize, Bounds

"""
Analytic nuclear gradient for RHF computed by auto-differentiation
"""


def He_energy(exponent):
    mol = gto.Mole()
    mol.atom    = 'He 0 0 0'  # in Angstrom

    mol.basis = {'He': pyscf.gto.basis.parse(f'''
    He   S
        {exponent[0]}              1.0
        {exponent[1]}              1.0
    ''')}
    mol.verbose = 5
    mol.build()

    mf = scf.RHF(mol)
    e = mf.kernel()

    return e

def grad_He_energy(exponent):
    mol = gto.Mole()
    mol.atom    = 'He 0 0 0'  # in Angstrom

    mol.basis = {'He': pyscf.gto.basis.parse(f'''
    He   S
        {exponent[0]}              1.0
        {exponent[1]}              1.0
    ''')}
    mol.verbose = 5
    mol.build()

    mf = scf.RHF(mol)
    mf.kernel()
    jac = mf.energy_grad()

    return jac.exp

x0 = [1e-5, 1e-6]
res = minimize(
    He_energy,
    x0,
    jac=grad_He_energy,
    bounds=((1e-6,None),(1e-6,None)),
    method='TNC', tol=1e-8,
    # options={"ftol": 1e-8, "eps": 1e-8},
)

print(res.x)
print(res.values())

# print("E", He_energy(71.6168370))

# print(f'Nuclaer gradient:\n{jac.coords}')
# print(f'Gradient wrt basis exponents:\n{jac.exp}')
# print(f'Gradient wrt basis contraction coefficients:\n{jac.ctr_coeff}')#INFO: ******************** input file end ********************


System: uname_result(system='Darwin', node='Deyans-MacBook-Pro-Home.local', release='22.1.0', version='Darwin Kernel Version 22.1.0: Sun Oct  9 20:14:54 PDT 2022; root:xnu-8792.41.9~2/RELEASE_X86_64', machine='x86_64', processor='i386')  Threads 1
Python 3.8.16 (default, Jan 17 2023, 16:42:09) 
[Clang 14.0.6 ]
numpy 1.24.2  scipy 1.10.1
Date: Fri Mar  3 22:14:33 2023
PySCF version 2.1.1
PySCF path  /Users/deyanmihaylov/opt/anaconda3/envs/pyscfad_env/lib/python3.8/site-packages/pyscf

[CONFIG] conf_file /Users/deyanmihaylov/.pyscf_conf.py
[INPUT] verbose = 5
[INPUT] max_memory = 4000 
[INPUT] num. atoms = 1
[INPUT] num. electrons = 2
[INPUT] charge = 0
[INPUT] spin (= nelec alpha-beta = 2S) = 0
[INPUT] symmetry False subgroup None
[INPUT] Mole.unit = angstrom
[INPUT] Symbol           X                Y                Z      unit          X                Y                Z       unit  Magmom
[INPUT]  1 He     0.000000000000   0.000000000000   0.000000000000 AA    0.000000000000   0.000000000000   0.000000000000 Bohr   0.0
[INPUT] ---------------- BASIS SET ---------------- 
[INPUT] l, kappa, [nprim/nctr], expnt,             c_1 c_2 ...
[INPUT] He
[INPUT] 0    0    [2    /1   ]  0.000113119114998      1
                                1.2605085251e-05      1

nuclear repulsion = 0
number of shells = 1
number of NR pGTOs = 2
number of NR cGTOs = 1
basis = {'He': [[0, [0.00011311911499766399, 1.0], [1.2605085251002549e-05, 1.0]]]}
ecp = {}
CPU time:        13.50
Set gradient conv threshold to 3.16228e-05
cond(S) = 1.0
E1 = -7.799599409813326e-07  E_coul = 2.0360201548904e-12
init E= -7.79957904961178e-07
    CPU time for initialize scf      0.02 sec, wall time      0.02 sec
  mo_energy =
[-0.02340957]
E1 = -0.04681937817975435  E_coul = 0.007336497268645111
cycle= 1 E= -0.0394828809111092  delta_E= -0.0395  |g|=    0  |ddm|=    2
    CPU time for cycle= 1      0.01 sec, wall time      0.01 sec
  mo_energy =
[-0.01607319]
E1 = -0.04681937817975435  E_coul = 0.007336497268645111
cycle= 2 E= -0.0394828809111092  delta_E=    0  |g|=    0  |ddm|=    0
    CPU time for cycle= 2      0.01 sec, wall time      0.01 sec
E1 = -0.04681937817975435  E_coul = 0.007336497268645111
  mo_energy =
[-0.01607319]
E1 = -0.04681937817975435  E_coul = 0.007336497268645111
Extra cycle  E= -0.0394828809111092  delta_E=    0  |g|=    0  |ddm|=    0
    CPU time for scf_cycle      0.04 sec, wall time      0.04 sec
Set gradient conv threshold to 3.16228e-05
cond(S) = 1.0
E1 = -0.04681937817975435  E_coul = 0.007336497268645111
init E= -0.0394828809111092
    CPU time for initialize scf      0.03 sec, wall time      0.03 sec
  mo_energy =
[-0.01607319]
E1 = -0.04681937817975435  E_coul = 0.007336497268645111
cycle= 1 E= -0.0394828809111092  delta_E=    0  |g|=    0  |ddm|=    0
    CPU time for cycle= 1      0.00 sec, wall time      0.00 sec
E1 = -0.04681937817975435  E_coul = 0.007336497268645111
  mo_energy =
[-0.01607319]
E1 = -0.04681937817975435  E_coul = 0.007336497268645111
Extra cycle  E= -0.0394828809111092  delta_E=    0  |g|=    0  |ddm|=    0
    CPU time for scf_cycle      0.07 sec, wall time      0.07 sec
#INFO: **** input file is /Users/deyanmihaylov/Documents/Work/h5py_mpi_test/pyscfad_test.py ****
import pyscf
from pyscfad import gto, scf
import numpy as np

from scipy.optimize import minimize, Bounds

"""
Analytic nuclear gradient for RHF computed by auto-differentiation
"""


def He_energy(exponent):
    mol = gto.Mole()
    mol.atom    = 'He 0 0 0'  # in Angstrom

    mol.basis = {'He': pyscf.gto.basis.parse(f'''
    He   S
        {exponent[0]}              1.0
        {exponent[1]}              1.0
    ''')}
    mol.verbose = 5
    mol.build()

    mf = scf.RHF(mol)
    e = mf.kernel()

    return e

def grad_He_energy(exponent):
    mol = gto.Mole()
    mol.atom    = 'He 0 0 0'  # in Angstrom

    mol.basis = {'He': pyscf.gto.basis.parse(f'''
    He   S
        {exponent[0]}              1.0
        {exponent[1]}              1.0
    ''')}
    mol.verbose = 5
    mol.build()

    mf = scf.RHF(mol)
    mf.kernel()
    jac = mf.energy_grad()

    return jac.exp

x0 = [1e-5, 1e-6]
res = minimize(
    He_energy,
    x0,
    jac=grad_He_energy,
    bounds=((1e-6,None),(1e-6,None)),
    method='TNC', tol=1e-8,
    # options={"ftol": 1e-8, "eps": 1e-8},
)

print(res.x)
print(res.values())

# print("E", He_energy(71.6168370))

# print(f'Nuclaer gradient:\n{jac.coords}')
# print(f'Gradient wrt basis exponents:\n{jac.exp}')
# print(f'Gradient wrt basis contraction coefficients:\n{jac.ctr_coeff}')#INFO: ******************** input file end ********************


System: uname_result(system='Darwin', node='Deyans-MacBook-Pro-Home.local', release='22.1.0', version='Darwin Kernel Version 22.1.0: Sun Oct  9 20:14:54 PDT 2022; root:xnu-8792.41.9~2/RELEASE_X86_64', machine='x86_64', processor='i386')  Threads 1
Python 3.8.16 (default, Jan 17 2023, 16:42:09) 
[Clang 14.0.6 ]
numpy 1.24.2  scipy 1.10.1
Date: Fri Mar  3 22:14:34 2023
PySCF version 2.1.1
PySCF path  /Users/deyanmihaylov/opt/anaconda3/envs/pyscfad_env/lib/python3.8/site-packages/pyscf

[CONFIG] conf_file /Users/deyanmihaylov/.pyscf_conf.py
[INPUT] verbose = 5
[INPUT] max_memory = 4000 
[INPUT] num. atoms = 1
[INPUT] num. electrons = 2
[INPUT] charge = 0
[INPUT] spin (= nelec alpha-beta = 2S) = 0
[INPUT] symmetry False subgroup None
[INPUT] Mole.unit = angstrom
[INPUT] Symbol           X                Y                Z      unit          X                Y                Z       unit  Magmom
[INPUT]  1 He     0.000000000000   0.000000000000   0.000000000000 AA    0.000000000000   0.000000000000   0.000000000000 Bohr   0.0
[INPUT] ---------------- BASIS SET ---------------- 
[INPUT] l, kappa, [nprim/nctr], expnt,             c_1 c_2 ...
[INPUT] He
[INPUT] 0    0    [2    /1   ]  0.0022564063646      1
                                0.000147462034289      1

nuclear repulsion = 0
number of shells = 1
number of NR pGTOs = 2
number of NR cGTOs = 1
basis = {'He': [[0, [0.0022564063646023473, 1.0], [0.00014746203428932803, 1.0]]]}
ecp = {}
CPU time:        15.03
Set gradient conv threshold to 3.16228e-05
cond(S) = 1.0
E1 = -0.00027941567592284854  E_coul = 5.9425880176616534e-08
init E= -0.000279356250042672
    CPU time for initialize scf      0.02 sec, wall time      0.02 sec
  mo_energy =
[-0.09754089]
E1 = -0.19516480488556337  E_coul = 0.02899192760028981
cycle= 1 E= -0.166172877285274  delta_E= -0.166  |g|=    0  |ddm|=    2
    CPU time for cycle= 1      0.01 sec, wall time      0.01 sec
  mo_energy =
[-0.06859047]
E1 = -0.19516480488556337  E_coul = 0.02899192760028981
cycle= 2 E= -0.166172877285274  delta_E=    0  |g|=    0  |ddm|=    0
    CPU time for cycle= 2      0.01 sec, wall time      0.01 sec
E1 = -0.19516480488556337  E_coul = 0.02899192760028981
  mo_energy =
[-0.06859047]
E1 = -0.19516480488556337  E_coul = 0.02899192760028981
Extra cycle  E= -0.166172877285274  delta_E=    0  |g|=    0  |ddm|=    0
    CPU time for scf_cycle      0.04 sec, wall time      0.04 sec
#INFO: **** input file is /Users/deyanmihaylov/Documents/Work/h5py_mpi_test/pyscfad_test.py ****
import pyscf
from pyscfad import gto, scf
import numpy as np

from scipy.optimize import minimize, Bounds

"""
Analytic nuclear gradient for RHF computed by auto-differentiation
"""


def He_energy(exponent):
    mol = gto.Mole()
    mol.atom    = 'He 0 0 0'  # in Angstrom

    mol.basis = {'He': pyscf.gto.basis.parse(f'''
    He   S
        {exponent[0]}              1.0
        {exponent[1]}              1.0
    ''')}
    mol.verbose = 5
    mol.build()

    mf = scf.RHF(mol)
    e = mf.kernel()

    return e

def grad_He_energy(exponent):
    mol = gto.Mole()
    mol.atom    = 'He 0 0 0'  # in Angstrom

    mol.basis = {'He': pyscf.gto.basis.parse(f'''
    He   S
        {exponent[0]}              1.0
        {exponent[1]}              1.0
    ''')}
    mol.verbose = 5
    mol.build()

    mf = scf.RHF(mol)
    mf.kernel()
    jac = mf.energy_grad()

    return jac.exp

x0 = [1e-5, 1e-6]
res = minimize(
    He_energy,
    x0,
    jac=grad_He_energy,
    bounds=((1e-6,None),(1e-6,None)),
    method='TNC', tol=1e-8,
    # options={"ftol": 1e-8, "eps": 1e-8},
)

print(res.x)
print(res.values())

# print("E", He_energy(71.6168370))

# print(f'Nuclaer gradient:\n{jac.coords}')
# print(f'Gradient wrt basis exponents:\n{jac.exp}')
# print(f'Gradient wrt basis contraction coefficients:\n{jac.ctr_coeff}')#INFO: ******************** input file end ********************


System: uname_result(system='Darwin', node='Deyans-MacBook-Pro-Home.local', release='22.1.0', version='Darwin Kernel Version 22.1.0: Sun Oct  9 20:14:54 PDT 2022; root:xnu-8792.41.9~2/RELEASE_X86_64', machine='x86_64', processor='i386')  Threads 1
Python 3.8.16 (default, Jan 17 2023, 16:42:09) 
[Clang 14.0.6 ]
numpy 1.24.2  scipy 1.10.1
Date: Fri Mar  3 22:14:34 2023
PySCF version 2.1.1
PySCF path  /Users/deyanmihaylov/opt/anaconda3/envs/pyscfad_env/lib/python3.8/site-packages/pyscf

[CONFIG] conf_file /Users/deyanmihaylov/.pyscf_conf.py
[INPUT] verbose = 5
[INPUT] max_memory = 4000 
[INPUT] num. atoms = 1
[INPUT] num. electrons = 2
[INPUT] charge = 0
[INPUT] spin (= nelec alpha-beta = 2S) = 0
[INPUT] symmetry False subgroup None
[INPUT] Mole.unit = angstrom
[INPUT] Symbol           X                Y                Z      unit          X                Y                Z       unit  Magmom
[INPUT]  1 He     0.000000000000   0.000000000000   0.000000000000 AA    0.000000000000   0.000000000000   0.000000000000 Bohr   0.0
[INPUT] ---------------- BASIS SET ---------------- 
[INPUT] l, kappa, [nprim/nctr], expnt,             c_1 c_2 ...
[INPUT] He
[INPUT] 0    0    [2    /1   ]  0.0022564063646      1
                                0.000147462034289      1

nuclear repulsion = 0
number of shells = 1
number of NR pGTOs = 2
number of NR cGTOs = 1
basis = {'He': [[0, [0.0022564063646023473, 1.0], [0.00014746203428932803, 1.0]]]}
ecp = {}
CPU time:        15.18
Set gradient conv threshold to 3.16228e-05
cond(S) = 1.0
E1 = -0.00027941567592284854  E_coul = 5.9425880176616534e-08
init E= -0.000279356250042672
    CPU time for initialize scf      0.02 sec, wall time      0.02 sec
  mo_energy =
[-0.09754089]
E1 = -0.19516480488556337  E_coul = 0.02899192760028981
cycle= 1 E= -0.166172877285274  delta_E= -0.166  |g|=    0  |ddm|=    2
    CPU time for cycle= 1      0.01 sec, wall time      0.01 sec
  mo_energy =
[-0.06859047]
E1 = -0.19516480488556337  E_coul = 0.02899192760028981
cycle= 2 E= -0.166172877285274  delta_E=    0  |g|=    0  |ddm|=    0
    CPU time for cycle= 2      0.01 sec, wall time      0.01 sec
E1 = -0.19516480488556337  E_coul = 0.02899192760028981
  mo_energy =
[-0.06859047]
E1 = -0.19516480488556337  E_coul = 0.02899192760028981
Extra cycle  E= -0.166172877285274  delta_E=    0  |g|=    0  |ddm|=    0
    CPU time for scf_cycle      0.04 sec, wall time      0.04 sec
Set gradient conv threshold to 3.16228e-05
cond(S) = 1.0
E1 = -0.19516480488556337  E_coul = 0.02899192760028981
init E= -0.166172877285274
    CPU time for initialize scf      0.03 sec, wall time      0.03 sec
  mo_energy =
[-0.06859047]
E1 = -0.19516480488556337  E_coul = 0.02899192760028981
cycle= 1 E= -0.166172877285274  delta_E=    0  |g|=    0  |ddm|=    0
    CPU time for cycle= 1      0.00 sec, wall time      0.00 sec
E1 = -0.19516480488556337  E_coul = 0.02899192760028981
  mo_energy =
[-0.06859047]
E1 = -0.19516480488556337  E_coul = 0.02899192760028981
Extra cycle  E= -0.166172877285274  delta_E=    0  |g|=    0  |ddm|=    0
    CPU time for scf_cycle      0.06 sec, wall time      0.06 sec
#INFO: **** input file is /Users/deyanmihaylov/Documents/Work/h5py_mpi_test/pyscfad_test.py ****
import pyscf
from pyscfad import gto, scf
import numpy as np

from scipy.optimize import minimize, Bounds

"""
Analytic nuclear gradient for RHF computed by auto-differentiation
"""


def He_energy(exponent):
    mol = gto.Mole()
    mol.atom    = 'He 0 0 0'  # in Angstrom

    mol.basis = {'He': pyscf.gto.basis.parse(f'''
    He   S
        {exponent[0]}              1.0
        {exponent[1]}              1.0
    ''')}
    mol.verbose = 5
    mol.build()

    mf = scf.RHF(mol)
    e = mf.kernel()

    return e

def grad_He_energy(exponent):
    mol = gto.Mole()
    mol.atom    = 'He 0 0 0'  # in Angstrom

    mol.basis = {'He': pyscf.gto.basis.parse(f'''
    He   S
        {exponent[0]}              1.0
        {exponent[1]}              1.0
    ''')}
    mol.verbose = 5
    mol.build()

    mf = scf.RHF(mol)
    mf.kernel()
    jac = mf.energy_grad()

    return jac.exp

x0 = [1e-5, 1e-6]
res = minimize(
    He_energy,
    x0,
    jac=grad_He_energy,
    bounds=((1e-6,None),(1e-6,None)),
    method='TNC', tol=1e-8,
    # options={"ftol": 1e-8, "eps": 1e-8},
)

print(res.x)
print(res.values())

# print("E", He_energy(71.6168370))

# print(f'Nuclaer gradient:\n{jac.coords}')
# print(f'Gradient wrt basis exponents:\n{jac.exp}')
# print(f'Gradient wrt basis contraction coefficients:\n{jac.ctr_coeff}')#INFO: ******************** input file end ********************


System: uname_result(system='Darwin', node='Deyans-MacBook-Pro-Home.local', release='22.1.0', version='Darwin Kernel Version 22.1.0: Sun Oct  9 20:14:54 PDT 2022; root:xnu-8792.41.9~2/RELEASE_X86_64', machine='x86_64', processor='i386')  Threads 1
Python 3.8.16 (default, Jan 17 2023, 16:42:09) 
[Clang 14.0.6 ]
numpy 1.24.2  scipy 1.10.1
Date: Fri Mar  3 22:14:36 2023
PySCF version 2.1.1
PySCF path  /Users/deyanmihaylov/opt/anaconda3/envs/pyscfad_env/lib/python3.8/site-packages/pyscf

[CONFIG] conf_file /Users/deyanmihaylov/.pyscf_conf.py
[INPUT] verbose = 5
[INPUT] max_memory = 4000 
[INPUT] num. atoms = 1
[INPUT] num. electrons = 2
[INPUT] charge = 0
[INPUT] spin (= nelec alpha-beta = 2S) = 0
[INPUT] symmetry False subgroup None
[INPUT] Mole.unit = angstrom
[INPUT] Symbol           X                Y                Z      unit          X                Y                Z       unit  Magmom
[INPUT]  1 He     0.000000000000   0.000000000000   0.000000000000 AA    0.000000000000   0.000000000000   0.000000000000 Bohr   0.0
[INPUT] ---------------- BASIS SET ---------------- 
[INPUT] l, kappa, [nprim/nctr], expnt,             c_1 c_2 ...
[INPUT] He
[INPUT] 0    0    [2    /1   ]  0.00225640636776      1
                                0.000147462034498      1

nuclear repulsion = 0
number of shells = 1
number of NR pGTOs = 2
number of NR cGTOs = 1
basis = {'He': [[0, [0.0022564063677624584, 1.0], [0.00014746203449838853, 1.0]]]}
ecp = {}
CPU time:        16.65
Set gradient conv threshold to 3.16228e-05
cond(S) = 1.0
E1 = -0.0002794156766943411  E_coul = 5.94258804644318e-08
init E= -0.000279356250813877
    CPU time for initialize scf      0.02 sec, wall time      0.02 sec
  mo_energy =
[-0.0975409]
E1 = -0.1951648050205329  E_coul = 0.028991927620706317
cycle= 1 E= -0.166172877399827  delta_E= -0.166  |g|=    0  |ddm|=    2
    CPU time for cycle= 1      0.01 sec, wall time      0.01 sec
  mo_energy =
[-0.06859047]
E1 = -0.1951648050205329  E_coul = 0.028991927620706317
cycle= 2 E= -0.166172877399827  delta_E=    0  |g|=    0  |ddm|=    0
    CPU time for cycle= 2      0.01 sec, wall time      0.01 sec
E1 = -0.1951648050205329  E_coul = 0.028991927620706317
  mo_energy =
[-0.06859047]
E1 = -0.1951648050205329  E_coul = 0.028991927620706317
Extra cycle  E= -0.166172877399827  delta_E=    0  |g|=    0  |ddm|=    0
    CPU time for scf_cycle      0.04 sec, wall time      0.04 sec
#INFO: **** input file is /Users/deyanmihaylov/Documents/Work/h5py_mpi_test/pyscfad_test.py ****
import pyscf
from pyscfad import gto, scf
import numpy as np

from scipy.optimize import minimize, Bounds

"""
Analytic nuclear gradient for RHF computed by auto-differentiation
"""


def He_energy(exponent):
    mol = gto.Mole()
    mol.atom    = 'He 0 0 0'  # in Angstrom

    mol.basis = {'He': pyscf.gto.basis.parse(f'''
    He   S
        {exponent[0]}              1.0
        {exponent[1]}              1.0
    ''')}
    mol.verbose = 5
    mol.build()

    mf = scf.RHF(mol)
    e = mf.kernel()

    return e

def grad_He_energy(exponent):
    mol = gto.Mole()
    mol.atom    = 'He 0 0 0'  # in Angstrom

    mol.basis = {'He': pyscf.gto.basis.parse(f'''
    He   S
        {exponent[0]}              1.0
        {exponent[1]}              1.0
    ''')}
    mol.verbose = 5
    mol.build()

    mf = scf.RHF(mol)
    mf.kernel()
    jac = mf.energy_grad()

    return jac.exp

x0 = [1e-5, 1e-6]
res = minimize(
    He_energy,
    x0,
    jac=grad_He_energy,
    bounds=((1e-6,None),(1e-6,None)),
    method='TNC', tol=1e-8,
    # options={"ftol": 1e-8, "eps": 1e-8},
)

print(res.x)
print(res.values())

# print("E", He_energy(71.6168370))

# print(f'Nuclaer gradient:\n{jac.coords}')
# print(f'Gradient wrt basis exponents:\n{jac.exp}')
# print(f'Gradient wrt basis contraction coefficients:\n{jac.ctr_coeff}')#INFO: ******************** input file end ********************


System: uname_result(system='Darwin', node='Deyans-MacBook-Pro-Home.local', release='22.1.0', version='Darwin Kernel Version 22.1.0: Sun Oct  9 20:14:54 PDT 2022; root:xnu-8792.41.9~2/RELEASE_X86_64', machine='x86_64', processor='i386')  Threads 1
Python 3.8.16 (default, Jan 17 2023, 16:42:09) 
[Clang 14.0.6 ]
numpy 1.24.2  scipy 1.10.1
Date: Fri Mar  3 22:14:36 2023
PySCF version 2.1.1
PySCF path  /Users/deyanmihaylov/opt/anaconda3/envs/pyscfad_env/lib/python3.8/site-packages/pyscf

[CONFIG] conf_file /Users/deyanmihaylov/.pyscf_conf.py
[INPUT] verbose = 5
[INPUT] max_memory = 4000 
[INPUT] num. atoms = 1
[INPUT] num. electrons = 2
[INPUT] charge = 0
[INPUT] spin (= nelec alpha-beta = 2S) = 0
[INPUT] symmetry False subgroup None
[INPUT] Mole.unit = angstrom
[INPUT] Symbol           X                Y                Z      unit          X                Y                Z       unit  Magmom
[INPUT]  1 He     0.000000000000   0.000000000000   0.000000000000 AA    0.000000000000   0.000000000000   0.000000000000 Bohr   0.0
[INPUT] ---------------- BASIS SET ---------------- 
[INPUT] l, kappa, [nprim/nctr], expnt,             c_1 c_2 ...
[INPUT] He
[INPUT] 0    0    [2    /1   ]  0.00225640636776      1
                                0.000147462034498      1

nuclear repulsion = 0
number of shells = 1
number of NR pGTOs = 2
number of NR cGTOs = 1
basis = {'He': [[0, [0.0022564063677624584, 1.0], [0.00014746203449838853, 1.0]]]}
ecp = {}
CPU time:        16.81
Set gradient conv threshold to 3.16228e-05
cond(S) = 1.0
E1 = -0.0002794156766943411  E_coul = 5.94258804644318e-08
init E= -0.000279356250813877
    CPU time for initialize scf      0.02 sec, wall time      0.02 sec
  mo_energy =
[-0.0975409]
E1 = -0.1951648050205329  E_coul = 0.028991927620706317
cycle= 1 E= -0.166172877399827  delta_E= -0.166  |g|=    0  |ddm|=    2
    CPU time for cycle= 1      0.01 sec, wall time      0.01 sec
  mo_energy =
[-0.06859047]
E1 = -0.1951648050205329  E_coul = 0.028991927620706317
cycle= 2 E= -0.166172877399827  delta_E=    0  |g|=    0  |ddm|=    0
    CPU time for cycle= 2      0.01 sec, wall time      0.01 sec
E1 = -0.1951648050205329  E_coul = 0.028991927620706317
  mo_energy =
[-0.06859047]
E1 = -0.1951648050205329  E_coul = 0.028991927620706317
Extra cycle  E= -0.166172877399827  delta_E=    0  |g|=    0  |ddm|=    0
    CPU time for scf_cycle      0.04 sec, wall time      0.04 sec
Set gradient conv threshold to 3.16228e-05
cond(S) = 1.0
E1 = -0.1951648050205329  E_coul = 0.028991927620706317
init E= -0.166172877399827
    CPU time for initialize scf      0.03 sec, wall time      0.03 sec
  mo_energy =
[-0.06859047]
E1 = -0.1951648050205329  E_coul = 0.028991927620706317
cycle= 1 E= -0.166172877399827  delta_E=    0  |g|=    0  |ddm|=    0
    CPU time for cycle= 1      0.00 sec, wall time      0.00 sec
E1 = -0.1951648050205329  E_coul = 0.028991927620706317
  mo_energy =
[-0.06859047]
E1 = -0.1951648050205329  E_coul = 0.028991927620706317
Extra cycle  E= -0.166172877399827  delta_E=    0  |g|=    0  |ddm|=    0
    CPU time for scf_cycle      0.06 sec, wall time      0.07 sec
#INFO: **** input file is /Users/deyanmihaylov/Documents/Work/h5py_mpi_test/pyscfad_test.py ****
import pyscf
from pyscfad import gto, scf
import numpy as np

from scipy.optimize import minimize, Bounds

"""
Analytic nuclear gradient for RHF computed by auto-differentiation
"""


def He_energy(exponent):
    mol = gto.Mole()
    mol.atom    = 'He 0 0 0'  # in Angstrom

    mol.basis = {'He': pyscf.gto.basis.parse(f'''
    He   S
        {exponent[0]}              1.0
        {exponent[1]}              1.0
    ''')}
    mol.verbose = 5
    mol.build()

    mf = scf.RHF(mol)
    e = mf.kernel()

    return e

def grad_He_energy(exponent):
    mol = gto.Mole()
    mol.atom    = 'He 0 0 0'  # in Angstrom

    mol.basis = {'He': pyscf.gto.basis.parse(f'''
    He   S
        {exponent[0]}              1.0
        {exponent[1]}              1.0
    ''')}
    mol.verbose = 5
    mol.build()

    mf = scf.RHF(mol)
    mf.kernel()
    jac = mf.energy_grad()

    return jac.exp

x0 = [1e-5, 1e-6]
res = minimize(
    He_energy,
    x0,
    jac=grad_He_energy,
    bounds=((1e-6,None),(1e-6,None)),
    method='TNC', tol=1e-8,
    # options={"ftol": 1e-8, "eps": 1e-8},
)

print(res.x)
print(res.values())

# print("E", He_energy(71.6168370))

# print(f'Nuclaer gradient:\n{jac.coords}')
# print(f'Gradient wrt basis exponents:\n{jac.exp}')
# print(f'Gradient wrt basis contraction coefficients:\n{jac.ctr_coeff}')#INFO: ******************** input file end ********************


System: uname_result(system='Darwin', node='Deyans-MacBook-Pro-Home.local', release='22.1.0', version='Darwin Kernel Version 22.1.0: Sun Oct  9 20:14:54 PDT 2022; root:xnu-8792.41.9~2/RELEASE_X86_64', machine='x86_64', processor='i386')  Threads 1
Python 3.8.16 (default, Jan 17 2023, 16:42:09) 
[Clang 14.0.6 ]
numpy 1.24.2  scipy 1.10.1
Date: Fri Mar  3 22:14:38 2023
PySCF version 2.1.1
PySCF path  /Users/deyanmihaylov/opt/anaconda3/envs/pyscfad_env/lib/python3.8/site-packages/pyscf

[CONFIG] conf_file /Users/deyanmihaylov/.pyscf_conf.py
[INPUT] verbose = 5
[INPUT] max_memory = 4000 
[INPUT] num. atoms = 1
[INPUT] num. electrons = 2
[INPUT] charge = 0
[INPUT] spin (= nelec alpha-beta = 2S) = 0
[INPUT] symmetry False subgroup None
[INPUT] Mole.unit = angstrom
[INPUT] Symbol           X                Y                Z      unit          X                Y                Z       unit  Magmom
[INPUT]  1 He     0.000000000000   0.000000000000   0.000000000000 AA    0.000000000000   0.000000000000   0.000000000000 Bohr   0.0
[INPUT] ---------------- BASIS SET ---------------- 
[INPUT] l, kappa, [nprim/nctr], expnt,             c_1 c_2 ...
[INPUT] He
[INPUT] 0    0    [2    /1   ]  0.00654331888923      1
                                0.000431067266716      1

nuclear repulsion = 0
number of shells = 1
number of NR pGTOs = 2
number of NR cGTOs = 1
basis = {'He': [[0, [0.006543318889225569, 1.0], [0.00043106726671560575, 1.0]]]}
ecp = {}
CPU time:        18.30
Set gradient conv threshold to 3.16228e-05
cond(S) = 1.0
E1 = -0.002232125506477839  E_coul = 2.2748964844254384e-06
init E= -0.00222985060999341
[...]
Python 3.8.16 (default, Jan 17 2023, 16:42:09) 
[Clang 14.0.6 ]
numpy 1.24.2  scipy 1.10.1
Date: Fri Mar  3 22:18:18 2023
PySCF version 2.1.1
PySCF path  /Users/deyanmihaylov/opt/anaconda3/envs/pyscfad_env/lib/python3.8/site-packages/pyscf

[CONFIG] conf_file /Users/deyanmihaylov/.pyscf_conf.py
[INPUT] verbose = 5
[INPUT] max_memory = 4000 
[INPUT] num. atoms = 1
[INPUT] num. electrons = 2
[INPUT] charge = 0
[INPUT] spin (= nelec alpha-beta = 2S) = 0
[INPUT] symmetry False subgroup None
[INPUT] Mole.unit = angstrom
[INPUT] Symbol           X                Y                Z      unit          X                Y                Z       unit  Magmom
[INPUT]  1 He     0.000000000000   0.000000000000   0.000000000000 AA    0.000000000000   0.000000000000   0.000000000000 Bohr   0.0
[INPUT] ---------------- BASIS SET ---------------- 
[INPUT] l, kappa, [nprim/nctr], expnt,             c_1 c_2 ...
[INPUT] He
[INPUT] 0    0    [2    /1   ]  1.7394552477         1
                                0.285965096369       1

nuclear repulsion = 0
number of shells = 1
number of NR pGTOs = 2
number of NR cGTOs = 1
basis = {'He': [[0, [1.7394552477015945, 1.0], [0.28596509636907175, 1.0]]]}
ecp = {}
CPU time:       237.02
Set gradient conv threshold to 3.16228e-05
cond(S) = 1.0
E1 = -3.613068502503623  E_coul = 0.9783117931847083
init E= -2.63475670931891
    CPU time for initialize scf      0.02 sec, wall time      0.02 sec
  mo_energy =
[-0.83427658]
E1 = -3.639479233522309  E_coul = 0.9926665525132188
cycle= 1 E= -2.64681268100909  delta_E= -0.0121  |g|=    0  |ddm|= 0.0145
    CPU time for cycle= 1      0.01 sec, wall time      0.01 sec
  mo_energy =
[-0.82707306]
E1 = -3.639479233522309  E_coul = 0.9926665525132188
cycle= 2 E= -2.64681268100909  delta_E=    0  |g|=    0  |ddm|=    0
    CPU time for cycle= 2      0.01 sec, wall time      0.01 sec
E1 = -3.639479233522309  E_coul = 0.9926665525132188
  mo_energy =
[-0.82707306]
E1 = -3.639479233522309  E_coul = 0.9926665525132188
Extra cycle  E= -2.64681268100909  delta_E=    0  |g|=    0  |ddm|=    0
    CPU time for scf_cycle      0.04 sec, wall time      0.04 sec
Set gradient conv threshold to 3.16228e-05
cond(S) = 1.0
E1 = -3.639479233522309  E_coul = 0.9926665525132188
init E= -2.64681268100909
    CPU time for initialize scf      0.03 sec, wall time      0.03 sec
  mo_energy =
[-0.82707306]
E1 = -3.639479233522309  E_coul = 0.9926665525132188
cycle= 1 E= -2.64681268100909  delta_E=    0  |g|=    0  |ddm|=    0
    CPU time for cycle= 1      0.00 sec, wall time      0.00 sec
E1 = -3.639479233522309  E_coul = 0.9926665525132188
  mo_energy =
[-0.82707306]
E1 = -3.639479233522309  E_coul = 0.9926665525132188
Extra cycle  E= -2.64681268100909  delta_E=    0  |g|=    0  |ddm|=    0
    CPU time for scf_cycle      0.07 sec, wall time      0.07 sec
#INFO: **** input file is /Users/deyanmihaylov/Documents/Work/h5py_mpi_test/pyscfad_test.py ****
import pyscf
from pyscfad import gto, scf
import numpy as np

from scipy.optimize import minimize, Bounds

"""
Analytic nuclear gradient for RHF computed by auto-differentiation
"""


def He_energy(exponent):
    mol = gto.Mole()
    mol.atom    = 'He 0 0 0'  # in Angstrom

    mol.basis = {'He': pyscf.gto.basis.parse(f'''
    He   S
        {exponent[0]}              1.0
        {exponent[1]}              1.0
    ''')}
    mol.verbose = 5
    mol.build()

    mf = scf.RHF(mol)
    e = mf.kernel()

    return e

def grad_He_energy(exponent):
    mol = gto.Mole()
    mol.atom    = 'He 0 0 0'  # in Angstrom

    mol.basis = {'He': pyscf.gto.basis.parse(f'''
    He   S
        {exponent[0]}              1.0
        {exponent[1]}              1.0
    ''')}
    mol.verbose = 5
    mol.build()

    mf = scf.RHF(mol)
    mf.kernel()
    jac = mf.energy_grad()

    return jac.exp

x0 = [1e-5, 1e-6]
res = minimize(
    He_energy,
    x0,
    jac=grad_He_energy,
    bounds=((1e-6,None),(1e-6,None)),
    method='TNC', tol=1e-8,
    # options={"ftol": 1e-8, "eps": 1e-8},
)

print(res.x)
print(res.values())

# print("E", He_energy(71.6168370))

# print(f'Nuclaer gradient:\n{jac.coords}')
# print(f'Gradient wrt basis exponents:\n{jac.exp}')
# print(f'Gradient wrt basis contraction coefficients:\n{jac.ctr_coeff}')#INFO: ******************** input file end ********************


System: uname_result(system='Darwin', node='Deyans-MacBook-Pro-Home.local', release='22.1.0', version='Darwin Kernel Version 22.1.0: Sun Oct  9 20:14:54 PDT 2022; root:xnu-8792.41.9~2/RELEASE_X86_64', machine='x86_64', processor='i386')  Threads 1
Python 3.8.16 (default, Jan 17 2023, 16:42:09) 
[Clang 14.0.6 ]
numpy 1.24.2  scipy 1.10.1
Date: Fri Mar  3 22:18:20 2023
PySCF version 2.1.1
PySCF path  /Users/deyanmihaylov/opt/anaconda3/envs/pyscfad_env/lib/python3.8/site-packages/pyscf

[CONFIG] conf_file /Users/deyanmihaylov/.pyscf_conf.py
[INPUT] verbose = 5
[INPUT] max_memory = 4000 
[INPUT] num. atoms = 1
[INPUT] num. electrons = 2
[INPUT] charge = 0
[INPUT] spin (= nelec alpha-beta = 2S) = 0
[INPUT] symmetry False subgroup None
[INPUT] Mole.unit = angstrom
[INPUT] Symbol           X                Y                Z      unit          X                Y                Z       unit  Magmom
[INPUT]  1 He     0.000000000000   0.000000000000   0.000000000000 AA    0.000000000000   0.000000000000   0.000000000000 Bohr   0.0
[INPUT] ---------------- BASIS SET ---------------- 
[INPUT] l, kappa, [nprim/nctr], expnt,             c_1 c_2 ...
[INPUT] He
[INPUT] 0    0    [2    /1   ]  1.7394552477         1
                                0.285965096369       1

nuclear repulsion = 0
number of shells = 1
number of NR pGTOs = 2
number of NR cGTOs = 1
basis = {'He': [[0, [1.739455247701593, 1.0], [0.2859650963690754, 1.0]]]}
ecp = {}
CPU time:       239.38
Set gradient conv threshold to 3.16228e-05
cond(S) = 1.0
E1 = -3.613068502503626  E_coul = 0.9783117931847105
init E= -2.63475670931892
    CPU time for initialize scf      0.02 sec, wall time      0.02 sec
  mo_energy =
[-0.83427658]
E1 = -3.6394792335223114  E_coul = 0.9926665525132207
cycle= 1 E= -2.64681268100909  delta_E= -0.0121  |g|=    0  |ddm|= 0.0145
    CPU time for cycle= 1      0.01 sec, wall time      0.01 sec
  mo_energy =
[-0.82707306]
E1 = -3.6394792335223114  E_coul = 0.9926665525132207
cycle= 2 E= -2.64681268100909  delta_E=    0  |g|=    0  |ddm|=    0
    CPU time for cycle= 2      0.01 sec, wall time      0.01 sec
E1 = -3.6394792335223114  E_coul = 0.9926665525132207
  mo_energy =
[-0.82707306]
E1 = -3.6394792335223114  E_coul = 0.9926665525132207
Extra cycle  E= -2.64681268100909  delta_E=    0  |g|=    0  |ddm|=    0
    CPU time for scf_cycle      0.04 sec, wall time      0.04 sec
#INFO: **** input file is /Users/deyanmihaylov/Documents/Work/h5py_mpi_test/pyscfad_test.py ****
import pyscf
from pyscfad import gto, scf
import numpy as np

from scipy.optimize import minimize, Bounds

"""
Analytic nuclear gradient for RHF computed by auto-differentiation
"""


def He_energy(exponent):
    mol = gto.Mole()
    mol.atom    = 'He 0 0 0'  # in Angstrom

    mol.basis = {'He': pyscf.gto.basis.parse(f'''
    He   S
        {exponent[0]}              1.0
        {exponent[1]}              1.0
    ''')}
    mol.verbose = 5
    mol.build()

    mf = scf.RHF(mol)
    e = mf.kernel()

    return e

def grad_He_energy(exponent):
    mol = gto.Mole()
    mol.atom    = 'He 0 0 0'  # in Angstrom

    mol.basis = {'He': pyscf.gto.basis.parse(f'''
    He   S
        {exponent[0]}              1.0
        {exponent[1]}              1.0
    ''')}
    mol.verbose = 5
    mol.build()

    mf = scf.RHF(mol)
    mf.kernel()
    jac = mf.energy_grad()

    return jac.exp

x0 = [1e-5, 1e-6]
res = minimize(
    He_energy,
    x0,
    jac=grad_He_energy,
    bounds=((1e-6,None),(1e-6,None)),
    method='TNC', tol=1e-8,
    # options={"ftol": 1e-8, "eps": 1e-8},
)

print(res.x)
print(res.values())

# print("E", He_energy(71.6168370))

# print(f'Nuclaer gradient:\n{jac.coords}')
# print(f'Gradient wrt basis exponents:\n{jac.exp}')
# print(f'Gradient wrt basis contraction coefficients:\n{jac.ctr_coeff}')#INFO: ******************** input file end ********************


System: uname_result(system='Darwin', node='Deyans-MacBook-Pro-Home.local', release='22.1.0', version='Darwin Kernel Version 22.1.0: Sun Oct  9 20:14:54 PDT 2022; root:xnu-8792.41.9~2/RELEASE_X86_64', machine='x86_64', processor='i386')  Threads 1
Python 3.8.16 (default, Jan 17 2023, 16:42:09) 
[Clang 14.0.6 ]
numpy 1.24.2  scipy 1.10.1
Date: Fri Mar  3 22:18:21 2023
PySCF version 2.1.1
PySCF path  /Users/deyanmihaylov/opt/anaconda3/envs/pyscfad_env/lib/python3.8/site-packages/pyscf

[CONFIG] conf_file /Users/deyanmihaylov/.pyscf_conf.py
[INPUT] verbose = 5
[INPUT] max_memory = 4000 
[INPUT] num. atoms = 1
[INPUT] num. electrons = 2
[INPUT] charge = 0
[INPUT] spin (= nelec alpha-beta = 2S) = 0
[INPUT] symmetry False subgroup None
[INPUT] Mole.unit = angstrom
[INPUT] Symbol           X                Y                Z      unit          X                Y                Z       unit  Magmom
[INPUT]  1 He     0.000000000000   0.000000000000   0.000000000000 AA    0.000000000000   0.000000000000   0.000000000000 Bohr   0.0
[INPUT] ---------------- BASIS SET ---------------- 
[INPUT] l, kappa, [nprim/nctr], expnt,             c_1 c_2 ...
[INPUT] He
[INPUT] 0    0    [2    /1   ]  1.7394552477         1
                                0.285965096369       1

nuclear repulsion = 0
number of shells = 1
number of NR pGTOs = 2
number of NR cGTOs = 1
basis = {'He': [[0, [1.739455247701593, 1.0], [0.2859650963690754, 1.0]]]}
ecp = {}
CPU time:       240.42
Set gradient conv threshold to 3.16228e-05
cond(S) = 1.0
E1 = -3.613068502503626  E_coul = 0.9783117931847105
init E= -2.63475670931892
    CPU time for initialize scf      0.02 sec, wall time      0.02 sec
  mo_energy =
[-0.83427658]
E1 = -3.6394792335223114  E_coul = 0.9926665525132207
cycle= 1 E= -2.64681268100909  delta_E= -0.0121  |g|=    0  |ddm|= 0.0145
    CPU time for cycle= 1      0.00 sec, wall time      0.00 sec
  mo_energy =
[-0.82707306]
E1 = -3.6394792335223114  E_coul = 0.9926665525132207
cycle= 2 E= -2.64681268100909  delta_E=    0  |g|=    0  |ddm|=    0
    CPU time for cycle= 2      0.01 sec, wall time      0.01 sec
E1 = -3.6394792335223114  E_coul = 0.9926665525132207
  mo_energy =
[-0.82707306]
E1 = -3.6394792335223114  E_coul = 0.9926665525132207
Extra cycle  E= -2.64681268100909  delta_E=    0  |g|=    0  |ddm|=    0
    CPU time for scf_cycle      0.04 sec, wall time      0.04 sec
Set gradient conv threshold to 3.16228e-05
cond(S) = 1.0
E1 = -3.6394792335223114  E_coul = 0.9926665525132207
init E= -2.64681268100909
    CPU time for initialize scf      0.03 sec, wall time      0.03 sec
  mo_energy =
[-0.82707306]
E1 = -3.6394792335223114  E_coul = 0.9926665525132207
cycle= 1 E= -2.64681268100909  delta_E=    0  |g|=    0  |ddm|=    0
    CPU time for cycle= 1      0.00 sec, wall time      0.00 sec
E1 = -3.6394792335223114  E_coul = 0.9926665525132207
  mo_energy =
[-0.82707306]
E1 = -3.6394792335223114  E_coul = 0.9926665525132207
Extra cycle  E= -2.64681268100909  delta_E=    0  |g|=    0  |ddm|=    0
    CPU time for scf_cycle      0.07 sec, wall time      0.07 sec
#INFO: **** input file is /Users/deyanmihaylov/Documents/Work/h5py_mpi_test/pyscfad_test.py ****
import pyscf
from pyscfad import gto, scf
import numpy as np

from scipy.optimize import minimize, Bounds

"""
Analytic nuclear gradient for RHF computed by auto-differentiation
"""


def He_energy(exponent):
    mol = gto.Mole()
    mol.atom    = 'He 0 0 0'  # in Angstrom

    mol.basis = {'He': pyscf.gto.basis.parse(f'''
    He   S
        {exponent[0]}              1.0
        {exponent[1]}              1.0
    ''')}
    mol.verbose = 5
    mol.build()

    mf = scf.RHF(mol)
    e = mf.kernel()

    return e

def grad_He_energy(exponent):
    mol = gto.Mole()
    mol.atom    = 'He 0 0 0'  # in Angstrom

    mol.basis = {'He': pyscf.gto.basis.parse(f'''
    He   S
        {exponent[0]}              1.0
        {exponent[1]}              1.0
    ''')}
    mol.verbose = 5
    mol.build()

    mf = scf.RHF(mol)
    mf.kernel()
    jac = mf.energy_grad()

    return jac.exp

x0 = [1e-5, 1e-6]
res = minimize(
    He_energy,
    x0,
    jac=grad_He_energy,
    bounds=((1e-6,None),(1e-6,None)),
    method='TNC', tol=1e-8,
    # options={"ftol": 1e-8, "eps": 1e-8},
)

print(res.x)
print(res.values())

# print("E", He_energy(71.6168370))

# print(f'Nuclaer gradient:\n{jac.coords}')
# print(f'Gradient wrt basis exponents:\n{jac.exp}')
# print(f'Gradient wrt basis contraction coefficients:\n{jac.ctr_coeff}')#INFO: ******************** input file end ********************


System: uname_result(system='Darwin', node='Deyans-MacBook-Pro-Home.local', release='22.1.0', version='Darwin Kernel Version 22.1.0: Sun Oct  9 20:14:54 PDT 2022; root:xnu-8792.41.9~2/RELEASE_X86_64', machine='x86_64', processor='i386')  Threads 1
Python 3.8.16 (default, Jan 17 2023, 16:42:09) 
[Clang 14.0.6 ]
numpy 1.24.2  scipy 1.10.1
Date: Fri Mar  3 22:18:23 2023
PySCF version 2.1.1
PySCF path  /Users/deyanmihaylov/opt/anaconda3/envs/pyscfad_env/lib/python3.8/site-packages/pyscf

[CONFIG] conf_file /Users/deyanmihaylov/.pyscf_conf.py
[INPUT] verbose = 5
[INPUT] max_memory = 4000 
[INPUT] num. atoms = 1
[INPUT] num. electrons = 2
[INPUT] charge = 0
[INPUT] spin (= nelec alpha-beta = 2S) = 0
[INPUT] symmetry False subgroup None
[INPUT] Mole.unit = angstrom
[INPUT] Symbol           X                Y                Z      unit          X                Y                Z       unit  Magmom
[INPUT]  1 He     0.000000000000   0.000000000000   0.000000000000 AA    0.000000000000   0.000000000000   0.000000000000 Bohr   0.0
[INPUT] ---------------- BASIS SET ---------------- 
[INPUT] l, kappa, [nprim/nctr], expnt,             c_1 c_2 ...
[INPUT] He
[INPUT] 0    0    [2    /1   ]  1.7394552477         1
                                0.285965096369       1

nuclear repulsion = 0
number of shells = 1
number of NR pGTOs = 2
number of NR cGTOs = 1
basis = {'He': [[0, [1.7394552477015914, 1.0], [0.2859650963690791, 1.0]]]}
ecp = {}
CPU time:       242.80
Set gradient conv threshold to 3.16228e-05
cond(S) = 1.0
E1 = -3.613068502503631  E_coul = 0.9783117931847133
init E= -2.63475670931892
    CPU time for initialize scf      0.02 sec, wall time      0.02 sec
  mo_energy =
[-0.83427658]
E1 = -3.6394792335223163  E_coul = 0.9926665525132234
cycle= 1 E= -2.64681268100909  delta_E= -0.0121  |g|=    0  |ddm|= 0.0145
    CPU time for cycle= 1      0.01 sec, wall time      0.01 sec
  mo_energy =
[-0.82707306]
E1 = -3.6394792335223163  E_coul = 0.9926665525132234
cycle= 2 E= -2.64681268100909  delta_E=    0  |g|=    0  |ddm|=    0
    CPU time for cycle= 2      0.01 sec, wall time      0.01 sec
E1 = -3.6394792335223163  E_coul = 0.9926665525132234
  mo_energy =
[-0.82707306]
E1 = -3.6394792335223163  E_coul = 0.9926665525132234
Extra cycle  E= -2.64681268100909  delta_E=    0  |g|=    0  |ddm|=    0
    CPU time for scf_cycle      0.04 sec, wall time      0.04 sec
#INFO: **** input file is /Users/deyanmihaylov/Documents/Work/h5py_mpi_test/pyscfad_test.py ****
import pyscf
from pyscfad import gto, scf
import numpy as np

from scipy.optimize import minimize, Bounds

"""
Analytic nuclear gradient for RHF computed by auto-differentiation
"""


def He_energy(exponent):
    mol = gto.Mole()
    mol.atom    = 'He 0 0 0'  # in Angstrom

    mol.basis = {'He': pyscf.gto.basis.parse(f'''
    He   S
        {exponent[0]}              1.0
        {exponent[1]}              1.0
    ''')}
    mol.verbose = 5
    mol.build()

    mf = scf.RHF(mol)
    e = mf.kernel()

    return e

def grad_He_energy(exponent):
    mol = gto.Mole()
    mol.atom    = 'He 0 0 0'  # in Angstrom

    mol.basis = {'He': pyscf.gto.basis.parse(f'''
    He   S
        {exponent[0]}              1.0
        {exponent[1]}              1.0
    ''')}
    mol.verbose = 5
    mol.build()

    mf = scf.RHF(mol)
    mf.kernel()
    jac = mf.energy_grad()

    return jac.exp

x0 = [1e-5, 1e-6]
res = minimize(
    He_energy,
    x0,
    jac=grad_He_energy,
    bounds=((1e-6,None),(1e-6,None)),
    method='TNC', tol=1e-8,
    # options={"ftol": 1e-8, "eps": 1e-8},
)

print(res.x)
print(res.values())

# print("E", He_energy(71.6168370))

# print(f'Nuclaer gradient:\n{jac.coords}')
# print(f'Gradient wrt basis exponents:\n{jac.exp}')
# print(f'Gradient wrt basis contraction coefficients:\n{jac.ctr_coeff}')#INFO: ******************** input file end ********************


System: uname_result(system='Darwin', node='Deyans-MacBook-Pro-Home.local', release='22.1.0', version='Darwin Kernel Version 22.1.0: Sun Oct  9 20:14:54 PDT 2022; root:xnu-8792.41.9~2/RELEASE_X86_64', machine='x86_64', processor='i386')  Threads 1
Python 3.8.16 (default, Jan 17 2023, 16:42:09) 
[Clang 14.0.6 ]
numpy 1.24.2  scipy 1.10.1
Date: Fri Mar  3 22:18:24 2023
PySCF version 2.1.1
PySCF path  /Users/deyanmihaylov/opt/anaconda3/envs/pyscfad_env/lib/python3.8/site-packages/pyscf

[CONFIG] conf_file /Users/deyanmihaylov/.pyscf_conf.py
[INPUT] verbose = 5
[INPUT] max_memory = 4000 
[INPUT] num. atoms = 1
[INPUT] num. electrons = 2
[INPUT] charge = 0
[INPUT] spin (= nelec alpha-beta = 2S) = 0
[INPUT] symmetry False subgroup None
[INPUT] Mole.unit = angstrom
[INPUT] Symbol           X                Y                Z      unit          X                Y                Z       unit  Magmom
[INPUT]  1 He     0.000000000000   0.000000000000   0.000000000000 AA    0.000000000000   0.000000000000   0.000000000000 Bohr   0.0
[INPUT] ---------------- BASIS SET ---------------- 
[INPUT] l, kappa, [nprim/nctr], expnt,             c_1 c_2 ...
[INPUT] He
[INPUT] 0    0    [2    /1   ]  1.7394552477         1
                                0.285965096369       1

nuclear repulsion = 0
number of shells = 1
number of NR pGTOs = 2
number of NR cGTOs = 1
basis = {'He': [[0, [1.7394552477015914, 1.0], [0.2859650963690791, 1.0]]]}
ecp = {}
CPU time:       243.86
Set gradient conv threshold to 3.16228e-05
cond(S) = 1.0
E1 = -3.613068502503631  E_coul = 0.9783117931847133
init E= -2.63475670931892
    CPU time for initialize scf      0.02 sec, wall time      0.02 sec
  mo_energy =
[-0.83427658]
E1 = -3.6394792335223163  E_coul = 0.9926665525132234
cycle= 1 E= -2.64681268100909  delta_E= -0.0121  |g|=    0  |ddm|= 0.0145
    CPU time for cycle= 1      0.01 sec, wall time      0.01 sec
  mo_energy =
[-0.82707306]
E1 = -3.6394792335223163  E_coul = 0.9926665525132234
cycle= 2 E= -2.64681268100909  delta_E=    0  |g|=    0  |ddm|=    0
    CPU time for cycle= 2      0.01 sec, wall time      0.01 sec
E1 = -3.6394792335223163  E_coul = 0.9926665525132234
  mo_energy =
[-0.82707306]
E1 = -3.6394792335223163  E_coul = 0.9926665525132234
Extra cycle  E= -2.64681268100909  delta_E=    0  |g|=    0  |ddm|=    0
    CPU time for scf_cycle      0.04 sec, wall time      0.04 sec
Set gradient conv threshold to 3.16228e-05
cond(S) = 1.0
E1 = -3.6394792335223163  E_coul = 0.9926665525132234
init E= -2.64681268100909
    CPU time for initialize scf      0.03 sec, wall time      0.03 sec
  mo_energy =
[-0.82707306]
E1 = -3.6394792335223163  E_coul = 0.9926665525132234
cycle= 1 E= -2.64681268100909  delta_E=    0  |g|=    0  |ddm|=    0
    CPU time for cycle= 1      0.00 sec, wall time      0.00 sec
E1 = -3.6394792335223163  E_coul = 0.9926665525132234
  mo_energy =
[-0.82707306]
E1 = -3.6394792335223163  E_coul = 0.9926665525132234
Extra cycle  E= -2.64681268100909  delta_E=    0  |g|=    0  |ddm|=    0
    CPU time for scf_cycle      0.07 sec, wall time      0.07 sec
[1.73945525 0.2859651 ]
dict_values([array([1.73945525, 0.2859651 ]), -2.646812681009093, array([-0.08812535,  0.21473069]), 93, 7, 1, 'Converged (|f_n-f_(n-1)| ~= 0)', True])
