#INFO: **** input file is /Users/deyanmihaylov/Documents/Work/h5py_mpi_test/pyscfad_test.py ****
import pyscf
from pyscfad import gto, scf
import numpy as np

from scipy.optimize import minimize, Bounds

"""
Analytic nuclear gradient for RHF computed by auto-differentiation
"""


def He_energy(exponent):
    mol = gto.Mole()
    mol.atom    = 'He 0 0 0'  # in Angstrom

    mol.basis = {'He': pyscf.gto.basis.parse(f'''
    He   S
        {exponent[0]}              1.0
        {exponent[1]}              1.0
    ''')}
    mol.verbose = 5
    mol.build()

    mf = scf.RHF(mol)
    e = mf.kernel()

    return e

def grad_He_energy(exponent):
    mol = gto.Mole()
    mol.atom    = 'He 0 0 0'  # in Angstrom

    mol.basis = {'He': pyscf.gto.basis.parse(f'''
    He   S
        {exponent[0]}              1.0
        {exponent[1]}              1.0
    ''')}
    mol.verbose = 5
    mol.build()

    mf = scf.RHF(mol)
    mf.kernel()
    jac = mf.energy_grad()

    return jac.exp

x0 = [0.2432879285E+01, 0.4330512863E+00]
res = minimize(He_energy, x0, jac=grad_He_energy,
               bounds=Bounds(lb=1e-4),
               method='SLSQP', tol=1e-6)

print(res.x)
print(res.values())

# print("E", He_energy(71.6168370))

# print(f'Nuclaer gradient:\n{jac.coords}')
# print(f'Gradient wrt basis exponents:\n{jac.exp}')
# print(f'Gradient wrt basis contraction coefficients:\n{jac.ctr_coeff}')#INFO: ******************** input file end ********************


System: uname_result(system='Darwin', node='Deyans-MacBook-Pro-Home.local', release='22.1.0', version='Darwin Kernel Version 22.1.0: Sun Oct  9 20:14:54 PDT 2022; root:xnu-8792.41.9~2/RELEASE_X86_64', machine='x86_64', processor='i386')  Threads 1
Python 3.8.16 (default, Jan 17 2023, 16:42:09) 
[Clang 14.0.6 ]
numpy 1.24.2  scipy 1.10.1
Date: Fri Mar  3 21:43:25 2023
PySCF version 2.1.1
PySCF path  /Users/deyanmihaylov/opt/anaconda3/envs/pyscfad_env/lib/python3.8/site-packages/pyscf

[CONFIG] conf_file /Users/deyanmihaylov/.pyscf_conf.py
[INPUT] verbose = 5
[INPUT] max_memory = 4000 
[INPUT] num. atoms = 1
[INPUT] num. electrons = 2
[INPUT] charge = 0
[INPUT] spin (= nelec alpha-beta = 2S) = 0
[INPUT] symmetry False subgroup None
[INPUT] Mole.unit = angstrom
[INPUT] Symbol           X                Y                Z      unit          X                Y                Z       unit  Magmom
[INPUT]  1 He     0.000000000000   0.000000000000   0.000000000000 AA    0.000000000000   0.000000000000   0.000000000000 Bohr   0.0
[INPUT] ---------------- BASIS SET ---------------- 
[INPUT] l, kappa, [nprim/nctr], expnt,             c_1 c_2 ...
[INPUT] He
[INPUT] 0    0    [2    /1   ]  2.432879285          1
                                0.4330512863         1

nuclear repulsion = 0
number of shells = 1
number of NR pGTOs = 2
number of NR cGTOs = 1
basis = {'He': [[0, [2.432879285, 1.0], [0.4330512863, 1.0]]]}
ecp = {}
CPU time:         1.08
WARNING:absl:No GPU/TPU found, falling back to CPU. (Set TF_CPP_MIN_LOG_LEVEL=0 and rerun for more info.)
Set gradient conv threshold to 3.16228e-05
/Users/deyanmihaylov/opt/anaconda3/envs/pyscfad_env/lib/python3.8/site-packages/pyscfad/gto/moleintor.py:74: UserWarning: AO symmetry is not supported. Setting aosym = s1.
  warnings.warn(msg)
cond(S) = 1.0
E1 = -3.686207066418597  E_coul = 1.1350978952846869
init E= -2.55110917113391
    CPU time for initialize scf      0.09 sec, wall time      0.09 sec
/Users/deyanmihaylov/opt/anaconda3/envs/pyscfad_env/lib/python3.8/site-packages/jax/_src/numpy/lax_numpy.py:3237: UserWarning: 'kind' argument to argsort is ignored; only 'stable' sorts are supported.
  warnings.warn("'kind' argument to argsort is ignored; only 'stable' sorts "
  mo_energy =
[-0.72636596]
E1 = -3.7817994562079207  E_coul = 1.194732984233136
cycle= 1 E= -2.58706647197478  delta_E= -0.036  |g|=    0  |ddm|= 0.0506
    CPU time for cycle= 1      0.15 sec, wall time      0.15 sec
  mo_energy =
[-0.69616674]
E1 = -3.7817994562079207  E_coul = 1.194732984233136
cycle= 2 E= -2.58706647197478  delta_E=    0  |g|=    0  |ddm|=    0
    CPU time for cycle= 2      0.05 sec, wall time      0.05 sec
E1 = -3.7817994562079207  E_coul = 1.194732984233136
  mo_energy =
[-0.69616674]
E1 = -3.7817994562079207  E_coul = 1.194732984233136
Extra cycle  E= -2.58706647197478  delta_E=    0  |g|=    0  |ddm|=    0
    CPU time for scf_cycle      0.30 sec, wall time      0.30 sec
#INFO: **** input file is /Users/deyanmihaylov/Documents/Work/h5py_mpi_test/pyscfad_test.py ****
import pyscf
from pyscfad import gto, scf
import numpy as np

from scipy.optimize import minimize, Bounds

"""
Analytic nuclear gradient for RHF computed by auto-differentiation
"""


def He_energy(exponent):
    mol = gto.Mole()
    mol.atom    = 'He 0 0 0'  # in Angstrom

    mol.basis = {'He': pyscf.gto.basis.parse(f'''
    He   S
        {exponent[0]}              1.0
        {exponent[1]}              1.0
    ''')}
    mol.verbose = 5
    mol.build()

    mf = scf.RHF(mol)
    e = mf.kernel()

    return e

def grad_He_energy(exponent):
    mol = gto.Mole()
    mol.atom    = 'He 0 0 0'  # in Angstrom

    mol.basis = {'He': pyscf.gto.basis.parse(f'''
    He   S
        {exponent[0]}              1.0
        {exponent[1]}              1.0
    ''')}
    mol.verbose = 5
    mol.build()

    mf = scf.RHF(mol)
    mf.kernel()
    jac = mf.energy_grad()

    return jac.exp

x0 = [0.2432879285E+01, 0.4330512863E+00]
res = minimize(He_energy, x0, jac=grad_He_energy,
               bounds=Bounds(lb=1e-4),
               method='SLSQP', tol=1e-6)

print(res.x)
print(res.values())

# print("E", He_energy(71.6168370))

# print(f'Nuclaer gradient:\n{jac.coords}')
# print(f'Gradient wrt basis exponents:\n{jac.exp}')
# print(f'Gradient wrt basis contraction coefficients:\n{jac.ctr_coeff}')#INFO: ******************** input file end ********************


System: uname_result(system='Darwin', node='Deyans-MacBook-Pro-Home.local', release='22.1.0', version='Darwin Kernel Version 22.1.0: Sun Oct  9 20:14:54 PDT 2022; root:xnu-8792.41.9~2/RELEASE_X86_64', machine='x86_64', processor='i386')  Threads 1
Python 3.8.16 (default, Jan 17 2023, 16:42:09) 
[Clang 14.0.6 ]
numpy 1.24.2  scipy 1.10.1
Date: Fri Mar  3 21:43:26 2023
PySCF version 2.1.1
PySCF path  /Users/deyanmihaylov/opt/anaconda3/envs/pyscfad_env/lib/python3.8/site-packages/pyscf

[CONFIG] conf_file /Users/deyanmihaylov/.pyscf_conf.py
[INPUT] verbose = 5
[INPUT] max_memory = 4000 
[INPUT] num. atoms = 1
[INPUT] num. electrons = 2
[INPUT] charge = 0
[INPUT] spin (= nelec alpha-beta = 2S) = 0
[INPUT] symmetry False subgroup None
[INPUT] Mole.unit = angstrom
[INPUT] Symbol           X                Y                Z      unit          X                Y                Z       unit  Magmom
[INPUT]  1 He     0.000000000000   0.000000000000   0.000000000000 AA    0.000000000000   0.000000000000   0.000000000000 Bohr   0.0
[INPUT] ---------------- BASIS SET ---------------- 
[INPUT] l, kappa, [nprim/nctr], expnt,             c_1 c_2 ...
[INPUT] He
[INPUT] 0    0    [2    /1   ]  2.432879285          1
                                0.4330512863         1

nuclear repulsion = 0
number of shells = 1
number of NR pGTOs = 2
number of NR cGTOs = 1
basis = {'He': [[0, [2.432879285, 1.0], [0.4330512863, 1.0]]]}
ecp = {}
CPU time:         1.44
Set gradient conv threshold to 3.16228e-05
cond(S) = 1.0
E1 = -3.686207066418597  E_coul = 1.1350978952846869
init E= -2.55110917113391
    CPU time for initialize scf      0.02 sec, wall time      0.02 sec
  mo_energy =
[-0.72636596]
E1 = -3.7817994562079207  E_coul = 1.194732984233136
cycle= 1 E= -2.58706647197478  delta_E= -0.036  |g|=    0  |ddm|= 0.0506
    CPU time for cycle= 1      0.01 sec, wall time      0.01 sec
  mo_energy =
[-0.69616674]
E1 = -3.7817994562079207  E_coul = 1.194732984233136
cycle= 2 E= -2.58706647197478  delta_E=    0  |g|=    0  |ddm|=    0
    CPU time for cycle= 2      0.01 sec, wall time      0.01 sec
E1 = -3.7817994562079207  E_coul = 1.194732984233136
  mo_energy =
[-0.69616674]
E1 = -3.7817994562079207  E_coul = 1.194732984233136
Extra cycle  E= -2.58706647197478  delta_E=    0  |g|=    0  |ddm|=    0
    CPU time for scf_cycle      0.03 sec, wall time      0.04 sec
Set gradient conv threshold to 3.16228e-05
cond(S) = 1.0
E1 = -3.7817994562079207  E_coul = 1.194732984233136
init E= -2.58706647197478
    CPU time for initialize scf      0.25 sec, wall time      0.25 sec
  mo_energy =
[-0.69616674]
E1 = -3.7817994562079207  E_coul = 1.194732984233136
cycle= 1 E= -2.58706647197478  delta_E=    0  |g|=    0  |ddm|=    0
    CPU time for cycle= 1      0.00 sec, wall time      0.00 sec
E1 = -3.7817994562079207  E_coul = 1.194732984233136
  mo_energy =
[-0.69616674]
E1 = -3.7817994562079207  E_coul = 1.194732984233136
Extra cycle  E= -2.58706647197478  delta_E=    0  |g|=    0  |ddm|=    0
    CPU time for scf_cycle      0.63 sec, wall time      0.63 sec
#INFO: **** input file is /Users/deyanmihaylov/Documents/Work/h5py_mpi_test/pyscfad_test.py ****
import pyscf
from pyscfad import gto, scf
import numpy as np

from scipy.optimize import minimize, Bounds

"""
Analytic nuclear gradient for RHF computed by auto-differentiation
"""


def He_energy(exponent):
    mol = gto.Mole()
    mol.atom    = 'He 0 0 0'  # in Angstrom

    mol.basis = {'He': pyscf.gto.basis.parse(f'''
    He   S
        {exponent[0]}              1.0
        {exponent[1]}              1.0
    ''')}
    mol.verbose = 5
    mol.build()

    mf = scf.RHF(mol)
    e = mf.kernel()

    return e

def grad_He_energy(exponent):
    mol = gto.Mole()
    mol.atom    = 'He 0 0 0'  # in Angstrom

    mol.basis = {'He': pyscf.gto.basis.parse(f'''
    He   S
        {exponent[0]}              1.0
        {exponent[1]}              1.0
    ''')}
    mol.verbose = 5
    mol.build()

    mf = scf.RHF(mol)
    mf.kernel()
    jac = mf.energy_grad()

    return jac.exp

x0 = [0.2432879285E+01, 0.4330512863E+00]
res = minimize(He_energy, x0, jac=grad_He_energy,
               bounds=Bounds(lb=1e-4),
               method='SLSQP', tol=1e-6)

print(res.x)
print(res.values())

# print("E", He_energy(71.6168370))

# print(f'Nuclaer gradient:\n{jac.coords}')
# print(f'Gradient wrt basis exponents:\n{jac.exp}')
# print(f'Gradient wrt basis contraction coefficients:\n{jac.ctr_coeff}')#INFO: ******************** input file end ********************


System: uname_result(system='Darwin', node='Deyans-MacBook-Pro-Home.local', release='22.1.0', version='Darwin Kernel Version 22.1.0: Sun Oct  9 20:14:54 PDT 2022; root:xnu-8792.41.9~2/RELEASE_X86_64', machine='x86_64', processor='i386')  Threads 1
Python 3.8.16 (default, Jan 17 2023, 16:42:09) 
[Clang 14.0.6 ]
numpy 1.24.2  scipy 1.10.1
Date: Fri Mar  3 21:43:29 2023
PySCF version 2.1.1
PySCF path  /Users/deyanmihaylov/opt/anaconda3/envs/pyscfad_env/lib/python3.8/site-packages/pyscf

[CONFIG] conf_file /Users/deyanmihaylov/.pyscf_conf.py
[INPUT] verbose = 5
[INPUT] max_memory = 4000 
[INPUT] num. atoms = 1
[INPUT] num. electrons = 2
[INPUT] charge = 0
[INPUT] spin (= nelec alpha-beta = 2S) = 0
[INPUT] symmetry False subgroup None
[INPUT] Mole.unit = angstrom
[INPUT] Symbol           X                Y                Z      unit          X                Y                Z       unit  Magmom
[INPUT]  1 He     0.000000000000   0.000000000000   0.000000000000 AA    0.000000000000   0.000000000000   0.000000000000 Bohr   0.0
[INPUT] ---------------- BASIS SET ---------------- 
[INPUT] l, kappa, [nprim/nctr], expnt,             c_1 c_2 ...
[INPUT] He
[INPUT] 0    0    [2    /1   ]  2.4429226649         1
                                0.0001               1

nuclear repulsion = 0
number of shells = 1
number of NR pGTOs = 2
number of NR cGTOs = 1
basis = {'He': [[0, [2.4429226648976883, 1.0], [0.00010000000000032205, 1.0]]]}
ecp = {}
CPU time:         4.63
Set gradient conv threshold to 3.16228e-05
cond(S) = 1.0
E1 = -0.4706804691069014  E_coul = 0.05388725846902902
init E= -0.416793210637872
    CPU time for initialize scf      0.02 sec, wall time      0.02 sec
  mo_energy =
[-0.52581689]
E1 = -1.3639442418059204  E_coul = 0.4525087353870825
cycle= 1 E= -0.911435506418838  delta_E= -0.495  |g|=    0  |ddm|= 1.31
    CPU time for cycle= 1      0.00 sec, wall time      0.00 sec
  mo_energy =
[-0.22946339]
E1 = -1.3639442418059204  E_coul = 0.4525087353870825
cycle= 2 E= -0.911435506418838  delta_E=    0  |g|=    0  |ddm|=    0
    CPU time for cycle= 2      0.01 sec, wall time      0.01 sec
E1 = -1.3639442418059204  E_coul = 0.4525087353870825
  mo_energy =
[-0.22946339]
E1 = -1.3639442418059204  E_coul = 0.4525087353870825
Extra cycle  E= -0.911435506418838  delta_E=    0  |g|=    0  |ddm|=    0
    CPU time for scf_cycle      0.03 sec, wall time      0.03 sec
#INFO: **** input file is /Users/deyanmihaylov/Documents/Work/h5py_mpi_test/pyscfad_test.py ****
import pyscf
from pyscfad import gto, scf
import numpy as np

from scipy.optimize import minimize, Bounds

"""
Analytic nuclear gradient for RHF computed by auto-differentiation
"""


def He_energy(exponent):
    mol = gto.Mole()
    mol.atom    = 'He 0 0 0'  # in Angstrom

    mol.basis = {'He': pyscf.gto.basis.parse(f'''
    He   S
        {exponent[0]}              1.0
        {exponent[1]}              1.0
    ''')}
    mol.verbose = 5
    mol.build()

    mf = scf.RHF(mol)
    e = mf.kernel()

    return e

def grad_He_energy(exponent):
    mol = gto.Mole()
    mol.atom    = 'He 0 0 0'  # in Angstrom

    mol.basis = {'He': pyscf.gto.basis.parse(f'''
    He   S
        {exponent[0]}              1.0
        {exponent[1]}              1.0
    ''')}
    mol.verbose = 5
    mol.build()

    mf = scf.RHF(mol)
    mf.kernel()
    jac = mf.energy_grad()

    return jac.exp

x0 = [0.2432879285E+01, 0.4330512863E+00]
res = minimize(He_energy, x0, jac=grad_He_energy,
               bounds=Bounds(lb=1e-4),
               method='SLSQP', tol=1e-6)

print(res.x)
print(res.values())

# print("E", He_energy(71.6168370))

# print(f'Nuclaer gradient:\n{jac.coords}')
# print(f'Gradient wrt basis exponents:\n{jac.exp}')
# print(f'Gradient wrt basis contraction coefficients:\n{jac.ctr_coeff}')#INFO: ******************** input file end ********************


System: uname_result(system='Darwin', node='Deyans-MacBook-Pro-Home.local', release='22.1.0', version='Darwin Kernel Version 22.1.0: Sun Oct  9 20:14:54 PDT 2022; root:xnu-8792.41.9~2/RELEASE_X86_64', machine='x86_64', processor='i386')  Threads 1
Python 3.8.16 (default, Jan 17 2023, 16:42:09) 
[Clang 14.0.6 ]
numpy 1.24.2  scipy 1.10.1
Date: Fri Mar  3 21:43:29 2023
PySCF version 2.1.1
PySCF path  /Users/deyanmihaylov/opt/anaconda3/envs/pyscfad_env/lib/python3.8/site-packages/pyscf

[CONFIG] conf_file /Users/deyanmihaylov/.pyscf_conf.py
[INPUT] verbose = 5
[INPUT] max_memory = 4000 
[INPUT] num. atoms = 1
[INPUT] num. electrons = 2
[INPUT] charge = 0
[INPUT] spin (= nelec alpha-beta = 2S) = 0
[INPUT] symmetry False subgroup None
[INPUT] Mole.unit = angstrom
[INPUT] Symbol           X                Y                Z      unit          X                Y                Z       unit  Magmom
[INPUT]  1 He     0.000000000000   0.000000000000   0.000000000000 AA    0.000000000000   0.000000000000   0.000000000000 Bohr   0.0
[INPUT] ---------------- BASIS SET ---------------- 
[INPUT] l, kappa, [nprim/nctr], expnt,             c_1 c_2 ...
[INPUT] He
[INPUT] 0    0    [2    /1   ]  2.43400709375        1
                                0.384433564685       1

nuclear repulsion = 0
number of shells = 1
number of NR pGTOs = 2
number of NR cGTOs = 1
basis = {'He': [[0, [2.4340070937475144, 1.0], [0.3844335646852652, 1.0]]]}
ecp = {}
CPU time:         4.71
Set gradient conv threshold to 3.16228e-05
cond(S) = 1.0
E1 = -3.69862126609902  E_coul = 1.1229334838832024
init E= -2.57568778221582
    CPU time for initialize scf      0.02 sec, wall time      0.02 sec
  mo_energy =
[-0.73949766]
E1 = -3.765429238726297  E_coul = 1.163866822598587
cycle= 1 E= -2.60156241612771  delta_E= -0.0259  |g|=    0  |ddm|= 0.0355
    CPU time for cycle= 1      0.01 sec, wall time      0.01 sec
  mo_energy =
[-0.7188478]
E1 = -3.765429238726297  E_coul = 1.163866822598587
cycle= 2 E= -2.60156241612771  delta_E=    0  |g|=    0  |ddm|=    0
    CPU time for cycle= 2      0.01 sec, wall time      0.01 sec
E1 = -3.765429238726297  E_coul = 1.163866822598587
  mo_energy =
[-0.7188478]
E1 = -3.765429238726297  E_coul = 1.163866822598587
Extra cycle  E= -2.60156241612771  delta_E=    0  |g|=    0  |ddm|=    0
    CPU time for scf_cycle      0.03 sec, wall time      0.03 sec
#INFO: **** input file is /Users/deyanmihaylov/Documents/Work/h5py_mpi_test/pyscfad_test.py ****
import pyscf
from pyscfad import gto, scf
import numpy as np

from scipy.optimize import minimize, Bounds

"""
Analytic nuclear gradient for RHF computed by auto-differentiation
"""


def He_energy(exponent):
    mol = gto.Mole()
    mol.atom    = 'He 0 0 0'  # in Angstrom

    mol.basis = {'He': pyscf.gto.basis.parse(f'''
    He   S
        {exponent[0]}              1.0
        {exponent[1]}              1.0
    ''')}
    mol.verbose = 5
    mol.build()

    mf = scf.RHF(mol)
    e = mf.kernel()

    return e

def grad_He_energy(exponent):
    mol = gto.Mole()
    mol.atom    = 'He 0 0 0'  # in Angstrom

    mol.basis = {'He': pyscf.gto.basis.parse(f'''
    He   S
        {exponent[0]}              1.0
        {exponent[1]}              1.0
    ''')}
    mol.verbose = 5
    mol.build()

    mf = scf.RHF(mol)
    mf.kernel()
    jac = mf.energy_grad()

    return jac.exp

x0 = [0.2432879285E+01, 0.4330512863E+00]
res = minimize(He_energy, x0, jac=grad_He_energy,
               bounds=Bounds(lb=1e-4),
               method='SLSQP', tol=1e-6)

print(res.x)
print(res.values())

# print("E", He_energy(71.6168370))

# print(f'Nuclaer gradient:\n{jac.coords}')
# print(f'Gradient wrt basis exponents:\n{jac.exp}')
# print(f'Gradient wrt basis contraction coefficients:\n{jac.ctr_coeff}')#INFO: ******************** input file end ********************


System: uname_result(system='Darwin', node='Deyans-MacBook-Pro-Home.local', release='22.1.0', version='Darwin Kernel Version 22.1.0: Sun Oct  9 20:14:54 PDT 2022; root:xnu-8792.41.9~2/RELEASE_X86_64', machine='x86_64', processor='i386')  Threads 1
Python 3.8.16 (default, Jan 17 2023, 16:42:09) 
[Clang 14.0.6 ]
numpy 1.24.2  scipy 1.10.1
Date: Fri Mar  3 21:43:29 2023
PySCF version 2.1.1
PySCF path  /Users/deyanmihaylov/opt/anaconda3/envs/pyscfad_env/lib/python3.8/site-packages/pyscf

[CONFIG] conf_file /Users/deyanmihaylov/.pyscf_conf.py
[INPUT] verbose = 5
[INPUT] max_memory = 4000 
[INPUT] num. atoms = 1
[INPUT] num. electrons = 2
[INPUT] charge = 0
[INPUT] spin (= nelec alpha-beta = 2S) = 0
[INPUT] symmetry False subgroup None
[INPUT] Mole.unit = angstrom
[INPUT] Symbol           X                Y                Z      unit          X                Y                Z       unit  Magmom
[INPUT]  1 He     0.000000000000   0.000000000000   0.000000000000 AA    0.000000000000   0.000000000000   0.000000000000 Bohr   0.0
[INPUT] ---------------- BASIS SET ---------------- 
[INPUT] l, kappa, [nprim/nctr], expnt,             c_1 c_2 ...
[INPUT] He
[INPUT] 0    0    [2    /1   ]  2.43400709375        1
                                0.384433564685       1

nuclear repulsion = 0
number of shells = 1
number of NR pGTOs = 2
number of NR cGTOs = 1
basis = {'He': [[0, [2.4340070937475144, 1.0], [0.3844335646852652, 1.0]]]}
ecp = {}
CPU time:         4.78
Set gradient conv threshold to 3.16228e-05
cond(S) = 1.0
E1 = -3.69862126609902  E_coul = 1.1229334838832024
init E= -2.57568778221582
    CPU time for initialize scf      0.02 sec, wall time      0.02 sec
  mo_energy =
[-0.73949766]
E1 = -3.765429238726297  E_coul = 1.163866822598587
cycle= 1 E= -2.60156241612771  delta_E= -0.0259  |g|=    0  |ddm|= 0.0355
    CPU time for cycle= 1      0.01 sec, wall time      0.01 sec
  mo_energy =
[-0.7188478]
E1 = -3.765429238726297  E_coul = 1.163866822598587
cycle= 2 E= -2.60156241612771  delta_E=    0  |g|=    0  |ddm|=    0
    CPU time for cycle= 2      0.01 sec, wall time      0.01 sec
E1 = -3.765429238726297  E_coul = 1.163866822598587
  mo_energy =
[-0.7188478]
E1 = -3.765429238726297  E_coul = 1.163866822598587
Extra cycle  E= -2.60156241612771  delta_E=    0  |g|=    0  |ddm|=    0
    CPU time for scf_cycle      0.03 sec, wall time      0.03 sec
Set gradient conv threshold to 3.16228e-05
cond(S) = 1.0
E1 = -3.765429238726297  E_coul = 1.163866822598587
init E= -2.60156241612771
    CPU time for initialize scf      0.03 sec, wall time      0.03 sec
  mo_energy =
[-0.7188478]
E1 = -3.765429238726297  E_coul = 1.163866822598587
cycle= 1 E= -2.60156241612771  delta_E=    0  |g|=    0  |ddm|=    0
    CPU time for cycle= 1      0.00 sec, wall time      0.00 sec
E1 = -3.765429238726297  E_coul = 1.163866822598587
  mo_energy =
[-0.7188478]
E1 = -3.765429238726297  E_coul = 1.163866822598587
Extra cycle  E= -2.60156241612771  delta_E=    0  |g|=    0  |ddm|=    0
    CPU time for scf_cycle      0.07 sec, wall time      0.07 sec
#INFO: **** input file is /Users/deyanmihaylov/Documents/Work/h5py_mpi_test/pyscfad_test.py ****
import pyscf
from pyscfad import gto, scf
import numpy as np

from scipy.optimize import minimize, Bounds

"""
Analytic nuclear gradient for RHF computed by auto-differentiation
"""


def He_energy(exponent):
    mol = gto.Mole()
    mol.atom    = 'He 0 0 0'  # in Angstrom

    mol.basis = {'He': pyscf.gto.basis.parse(f'''
    He   S
        {exponent[0]}              1.0
        {exponent[1]}              1.0
    ''')}
    mol.verbose = 5
    mol.build()

    mf = scf.RHF(mol)
    e = mf.kernel()

    return e

def grad_He_energy(exponent):
    mol = gto.Mole()
    mol.atom    = 'He 0 0 0'  # in Angstrom

    mol.basis = {'He': pyscf.gto.basis.parse(f'''
    He   S
        {exponent[0]}              1.0
        {exponent[1]}              1.0
    ''')}
    mol.verbose = 5
    mol.build()

    mf = scf.RHF(mol)
    mf.kernel()
    jac = mf.energy_grad()

    return jac.exp

x0 = [0.2432879285E+01, 0.4330512863E+00]
res = minimize(He_energy, x0, jac=grad_He_energy,
               bounds=Bounds(lb=1e-4),
               method='SLSQP', tol=1e-6)

print(res.x)
print(res.values())

# print("E", He_energy(71.6168370))

# print(f'Nuclaer gradient:\n{jac.coords}')
# print(f'Gradient wrt basis exponents:\n{jac.exp}')
# print(f'Gradient wrt basis contraction coefficients:\n{jac.ctr_coeff}')#INFO: ******************** input file end ********************


System: uname_result(system='Darwin', node='Deyans-MacBook-Pro-Home.local', release='22.1.0', version='Darwin Kernel Version 22.1.0: Sun Oct  9 20:14:54 PDT 2022; root:xnu-8792.41.9~2/RELEASE_X86_64', machine='x86_64', processor='i386')  Threads 1
Python 3.8.16 (default, Jan 17 2023, 16:42:09) 
[Clang 14.0.6 ]
numpy 1.24.2  scipy 1.10.1
Date: Fri Mar  3 21:43:30 2023
PySCF version 2.1.1
PySCF path  /Users/deyanmihaylov/opt/anaconda3/envs/pyscfad_env/lib/python3.8/site-packages/pyscf

[CONFIG] conf_file /Users/deyanmihaylov/.pyscf_conf.py
[INPUT] verbose = 5
[INPUT] max_memory = 4000 
[INPUT] num. atoms = 1
[INPUT] num. electrons = 2
[INPUT] charge = 0
[INPUT] spin (= nelec alpha-beta = 2S) = 0
[INPUT] symmetry False subgroup None
[INPUT] Mole.unit = angstrom
[INPUT] Symbol           X                Y                Z      unit          X                Y                Z       unit  Magmom
[INPUT]  1 He     0.000000000000   0.000000000000   0.000000000000 AA    0.000000000000   0.000000000000   0.000000000000 Bohr   0.0
[INPUT] ---------------- BASIS SET ---------------- 
[INPUT] l, kappa, [nprim/nctr], expnt,             c_1 c_2 ...
[INPUT] He
[INPUT] 0    0    [2    /1   ]  2.27157866305        1
                                0.0117649017555      1

nuclear repulsion = 0
number of shells = 1
number of NR pGTOs = 2
number of NR cGTOs = 1
basis = {'He': [[0, [2.2715786630537607, 1.0], [0.01176490175548034, 1.0]]]}
ecp = {}
CPU time:         6.25
Set gradient conv threshold to 3.16228e-05
cond(S) = 1.0
E1 = -0.9813861731236302  E_coul = 0.1380383113167784
init E= -0.843347861806852
    CPU time for initialize scf      0.02 sec, wall time      0.02 sec
  mo_energy =
[-0.71485071]
E1 = -1.9893239752453877  E_coul = 0.5671929205596894
cycle= 1 E= -1.4221310546857  delta_E= -0.579  |g|=    0  |ddm|= 1.01
    CPU time for cycle= 1      0.01 sec, wall time      0.01 sec
  mo_energy =
[-0.42746907]
E1 = -1.9893239752453877  E_coul = 0.5671929205596894
cycle= 2 E= -1.4221310546857  delta_E=    0  |g|=    0  |ddm|=    0
    CPU time for cycle= 2      0.01 sec, wall time      0.01 sec
E1 = -1.9893239752453877  E_coul = 0.5671929205596894
  mo_energy =
[-0.42746907]
E1 = -1.9893239752453877  E_coul = 0.5671929205596894
Extra cycle  E= -1.4221310546857  delta_E=    0  |g|=    0  |ddm|=    0
    CPU time for scf_cycle      0.04 sec, wall time      0.04 sec
#INFO: **** input file is /Users/deyanmihaylov/Documents/Work/h5py_mpi_test/pyscfad_test.py ****
import pyscf
from pyscfad import gto, scf
import numpy as np

from scipy.optimize import minimize, Bounds

"""
Analytic nuclear gradient for RHF computed by auto-differentiation
"""


def He_energy(exponent):
    mol = gto.Mole()
    mol.atom    = 'He 0 0 0'  # in Angstrom

    mol.basis = {'He': pyscf.gto.basis.parse(f'''
    He   S
        {exponent[0]}              1.0
        {exponent[1]}              1.0
    ''')}
    mol.verbose = 5
    mol.build()

    mf = scf.RHF(mol)
    e = mf.kernel()

    return e

def grad_He_energy(exponent):
    mol = gto.Mole()
    mol.atom    = 'He 0 0 0'  # in Angstrom

    mol.basis = {'He': pyscf.gto.basis.parse(f'''
    He   S
        {exponent[0]}              1.0
        {exponent[1]}              1.0
    ''')}
    mol.verbose = 5
    mol.build()

    mf = scf.RHF(mol)
    mf.kernel()
    jac = mf.energy_grad()

    return jac.exp

x0 = [0.2432879285E+01, 0.4330512863E+00]
res = minimize(He_energy, x0, jac=grad_He_energy,
               bounds=Bounds(lb=1e-4),
               method='SLSQP', tol=1e-6)

print(res.x)
print(res.values())

# print("E", He_energy(71.6168370))

# print(f'Nuclaer gradient:\n{jac.coords}')
# print(f'Gradient wrt basis exponents:\n{jac.exp}')
# print(f'Gradient wrt basis contraction coefficients:\n{jac.ctr_coeff}')#INFO: ******************** input file end ********************


System: uname_result(system='Darwin', node='Deyans-MacBook-Pro-Home.local', release='22.1.0', version='Darwin Kernel Version 22.1.0: Sun Oct  9 20:14:54 PDT 2022; root:xnu-8792.41.9~2/RELEASE_X86_64', machine='x86_64', processor='i386')  Threads 1
Python 3.8.16 (default, Jan 17 2023, 16:42:09) 
[Clang 14.0.6 ]
numpy 1.24.2  scipy 1.10.1
Date: Fri Mar  3 21:43:30 2023
PySCF version 2.1.1
PySCF path  /Users/deyanmihaylov/opt/anaconda3/envs/pyscfad_env/lib/python3.8/site-packages/pyscf

[CONFIG] conf_file /Users/deyanmihaylov/.pyscf_conf.py
[INPUT] verbose = 5
[INPUT] max_memory = 4000 
[INPUT] num. atoms = 1
[INPUT] num. electrons = 2
[INPUT] charge = 0
[INPUT] spin (= nelec alpha-beta = 2S) = 0
[INPUT] symmetry False subgroup None
[INPUT] Mole.unit = angstrom
[INPUT] Symbol           X                Y                Z      unit          X                Y                Z       unit  Magmom
[INPUT]  1 He     0.000000000000   0.000000000000   0.000000000000 AA    0.000000000000   0.000000000000   0.000000000000 Bohr   0.0
[INPUT] ---------------- BASIS SET ---------------- 
[INPUT] l, kappa, [nprim/nctr], expnt,             c_1 c_2 ...
[INPUT] He
[INPUT] 0    0    [2    /1   ]  2.41468276765        1
                                0.340096678969       1

nuclear repulsion = 0
number of shells = 1
number of NR pGTOs = 2
number of NR cGTOs = 1
basis = {'He': [[0, [2.4146827676500306, 1.0], [0.3400966789688331, 1.0]]]}
ecp = {}
CPU time:         6.34
Set gradient conv threshold to 3.16228e-05
cond(S) = 1.0
E1 = -3.688383347535109  E_coul = 1.1006361049711366
init E= -2.58774724256397
    CPU time for initialize scf      0.02 sec, wall time      0.02 sec
  mo_energy =
[-0.75341774]
E1 = -3.737304328635111  E_coul = 1.130026368962347
cycle= 1 E= -2.60727795967276  delta_E= -0.0195  |g|=    0  |ddm|= 0.0262
    CPU time for cycle= 1      0.01 sec, wall time      0.01 sec
  mo_energy =
[-0.7386258]
E1 = -3.737304328635111  E_coul = 1.130026368962347
cycle= 2 E= -2.60727795967276  delta_E=    0  |g|=    0  |ddm|=    0
    CPU time for cycle= 2      0.01 sec, wall time      0.01 sec
E1 = -3.737304328635111  E_coul = 1.130026368962347
  mo_energy =
[-0.7386258]
E1 = -3.737304328635111  E_coul = 1.130026368962347
Extra cycle  E= -2.60727795967276  delta_E=    0  |g|=    0  |ddm|=    0
    CPU time for scf_cycle      0.03 sec, wall time      0.03 sec
#INFO: **** input file is /Users/deyanmihaylov/Documents/Work/h5py_mpi_test/pyscfad_test.py ****
import pyscf
from pyscfad import gto, scf
import numpy as np

from scipy.optimize import minimize, Bounds

"""
Analytic nuclear gradient for RHF computed by auto-differentiation
"""


def He_energy(exponent):
    mol = gto.Mole()
    mol.atom    = 'He 0 0 0'  # in Angstrom

    mol.basis = {'He': pyscf.gto.basis.parse(f'''
    He   S
        {exponent[0]}              1.0
        {exponent[1]}              1.0
    ''')}
    mol.verbose = 5
    mol.build()

    mf = scf.RHF(mol)
    e = mf.kernel()

    return e

def grad_He_energy(exponent):
    mol = gto.Mole()
    mol.atom    = 'He 0 0 0'  # in Angstrom

    mol.basis = {'He': pyscf.gto.basis.parse(f'''
    He   S
        {exponent[0]}              1.0
        {exponent[1]}              1.0
    ''')}
    mol.verbose = 5
    mol.build()

    mf = scf.RHF(mol)
    mf.kernel()
    jac = mf.energy_grad()

    return jac.exp

x0 = [0.2432879285E+01, 0.4330512863E+00]
res = minimize(He_energy, x0, jac=grad_He_energy,
               bounds=Bounds(lb=1e-4),
               method='SLSQP', tol=1e-6)

print(res.x)
print(res.values())

# print("E", He_energy(71.6168370))

# print(f'Nuclaer gradient:\n{jac.coords}')
# print(f'Gradient wrt basis exponents:\n{jac.exp}')
# print(f'Gradient wrt basis contraction coefficients:\n{jac.ctr_coeff}')#INFO: ******************** input file end ********************


System: uname_result(system='Darwin', node='Deyans-MacBook-Pro-Home.local', release='22.1.0', version='Darwin Kernel Version 22.1.0: Sun Oct  9 20:14:54 PDT 2022; root:xnu-8792.41.9~2/RELEASE_X86_64', machine='x86_64', processor='i386')  Threads 1
Python 3.8.16 (default, Jan 17 2023, 16:42:09) 
[Clang 14.0.6 ]
numpy 1.24.2  scipy 1.10.1
Date: Fri Mar  3 21:43:31 2023
PySCF version 2.1.1
PySCF path  /Users/deyanmihaylov/opt/anaconda3/envs/pyscfad_env/lib/python3.8/site-packages/pyscf

[CONFIG] conf_file /Users/deyanmihaylov/.pyscf_conf.py
[INPUT] verbose = 5
[INPUT] max_memory = 4000 
[INPUT] num. atoms = 1
[INPUT] num. electrons = 2
[INPUT] charge = 0
[INPUT] spin (= nelec alpha-beta = 2S) = 0
[INPUT] symmetry False subgroup None
[INPUT] Mole.unit = angstrom
[INPUT] Symbol           X                Y                Z      unit          X                Y                Z       unit  Magmom
[INPUT]  1 He     0.000000000000   0.000000000000   0.000000000000 AA    0.000000000000   0.000000000000   0.000000000000 Bohr   0.0
[INPUT] ---------------- BASIS SET ---------------- 
[INPUT] l, kappa, [nprim/nctr], expnt,             c_1 c_2 ...
[INPUT] He
[INPUT] 0    0    [2    /1   ]  2.41468276765        1
                                0.340096678969       1

nuclear repulsion = 0
number of shells = 1
number of NR pGTOs = 2
number of NR cGTOs = 1
basis = {'He': [[0, [2.4146827676500306, 1.0], [0.3400966789688331, 1.0]]]}
ecp = {}
CPU time:         6.42
Set gradient conv threshold to 3.16228e-05
cond(S) = 1.0
E1 = -3.688383347535109  E_coul = 1.1006361049711366
init E= -2.58774724256397
    CPU time for initialize scf      0.02 sec, wall time      0.02 sec
  mo_energy =
[-0.75341774]
E1 = -3.737304328635111  E_coul = 1.130026368962347
cycle= 1 E= -2.60727795967276  delta_E= -0.0195  |g|=    0  |ddm|= 0.0262
    CPU time for cycle= 1      0.01 sec, wall time      0.01 sec
  mo_energy =
[-0.7386258]
E1 = -3.737304328635111  E_coul = 1.130026368962347
cycle= 2 E= -2.60727795967276  delta_E=    0  |g|=    0  |ddm|=    0
    CPU time for cycle= 2      0.01 sec, wall time      0.01 sec
E1 = -3.737304328635111  E_coul = 1.130026368962347
  mo_energy =
[-0.7386258]
E1 = -3.737304328635111  E_coul = 1.130026368962347
Extra cycle  E= -2.60727795967276  delta_E=    0  |g|=    0  |ddm|=    0
    CPU time for scf_cycle      0.03 sec, wall time      0.04 sec
Set gradient conv threshold to 3.16228e-05
cond(S) = 1.0
E1 = -3.737304328635111  E_coul = 1.130026368962347
init E= -2.60727795967276
    CPU time for initialize scf      0.03 sec, wall time      0.03 sec
  mo_energy =
[-0.7386258]
E1 = -3.737304328635111  E_coul = 1.130026368962347
cycle= 1 E= -2.60727795967276  delta_E=    0  |g|=    0  |ddm|=    0
    CPU time for cycle= 1      0.00 sec, wall time      0.00 sec
E1 = -3.737304328635111  E_coul = 1.130026368962347
  mo_energy =
[-0.7386258]
E1 = -3.737304328635111  E_coul = 1.130026368962347
Extra cycle  E= -2.60727795967276  delta_E=    0  |g|=    0  |ddm|=    0
    CPU time for scf_cycle      0.07 sec, wall time      0.07 sec
#INFO: **** input file is /Users/deyanmihaylov/Documents/Work/h5py_mpi_test/pyscfad_test.py ****
import pyscf
from pyscfad import gto, scf
import numpy as np

from scipy.optimize import minimize, Bounds

"""
Analytic nuclear gradient for RHF computed by auto-differentiation
"""


def He_energy(exponent):
    mol = gto.Mole()
    mol.atom    = 'He 0 0 0'  # in Angstrom

    mol.basis = {'He': pyscf.gto.basis.parse(f'''
    He   S
        {exponent[0]}              1.0
        {exponent[1]}              1.0
    ''')}
    mol.verbose = 5
    mol.build()

    mf = scf.RHF(mol)
    e = mf.kernel()

    return e

def grad_He_energy(exponent):
    mol = gto.Mole()
    mol.atom    = 'He 0 0 0'  # in Angstrom

    mol.basis = {'He': pyscf.gto.basis.parse(f'''
    He   S
        {exponent[0]}              1.0
        {exponent[1]}              1.0
    ''')}
    mol.verbose = 5
    mol.build()

    mf = scf.RHF(mol)
    mf.kernel()
    jac = mf.energy_grad()

    return jac.exp

x0 = [0.2432879285E+01, 0.4330512863E+00]
res = minimize(He_energy, x0, jac=grad_He_energy,
               bounds=Bounds(lb=1e-4),
               method='SLSQP', tol=1e-6)

print(res.x)
print(res.values())

# print("E", He_energy(71.6168370))

# print(f'Nuclaer gradient:\n{jac.coords}')
# print(f'Gradient wrt basis exponents:\n{jac.exp}')
# print(f'Gradient wrt basis contraction coefficients:\n{jac.ctr_coeff}')#INFO: ******************** input file end ********************


System: uname_result(system='Darwin', node='Deyans-MacBook-Pro-Home.local', release='22.1.0', version='Darwin Kernel Version 22.1.0: Sun Oct  9 20:14:54 PDT 2022; root:xnu-8792.41.9~2/RELEASE_X86_64', machine='x86_64', processor='i386')  Threads 1
Python 3.8.16 (default, Jan 17 2023, 16:42:09) 
[Clang 14.0.6 ]
numpy 1.24.2  scipy 1.10.1
Date: Fri Mar  3 21:43:32 2023
PySCF version 2.1.1
PySCF path  /Users/deyanmihaylov/opt/anaconda3/envs/pyscfad_env/lib/python3.8/site-packages/pyscf

[CONFIG] conf_file /Users/deyanmihaylov/.pyscf_conf.py
[INPUT] verbose = 5
[INPUT] max_memory = 4000 
[INPUT] num. atoms = 1
[INPUT] num. electrons = 2
[INPUT] charge = 0
[INPUT] spin (= nelec alpha-beta = 2S) = 0
[INPUT] symmetry False subgroup None
[INPUT] Mole.unit = angstrom
[INPUT] Symbol           X                Y                Z      unit          X                Y                Z       unit  Magmom
[INPUT]  1 He     0.000000000000   0.000000000000   0.000000000000 AA    0.000000000000   0.000000000000   0.000000000000 Bohr   0.0
[INPUT] ---------------- BASIS SET ---------------- 
[INPUT] l, kappa, [nprim/nctr], expnt,             c_1 c_2 ...
[INPUT] He
[INPUT] 0    0    [2    /1   ]  2.19054040734        1
                                0.120270987252       1

nuclear repulsion = 0
number of shells = 1
number of NR pGTOs = 2
number of NR cGTOs = 1
basis = {'He': [[0, [2.1905404073362784, 1.0], [0.12027098725190888, 1.0]]]}
ecp = {}
CPU time:         7.91
Set gradient conv threshold to 3.16228e-05
cond(S) = 1.0
E1 = -2.907967203143592  E_coul = 0.7011826382710417
init E= -2.20678456487255
    CPU time for initialize scf      0.02 sec, wall time      0.02 sec
  mo_energy =
[-0.83753761]
E1 = -3.235293277949318  E_coul = 0.8679195213863206
cycle= 1 E= -2.367373756563  delta_E= -0.161  |g|=    0  |ddm|= 0.202
    CPU time for cycle= 1      0.01 sec, wall time      0.01 sec
  mo_energy =
[-0.74972712]
E1 = -3.235293277949318  E_coul = 0.8679195213863206
cycle= 2 E= -2.367373756563  delta_E=    0  |g|=    0  |ddm|=    0
    CPU time for cycle= 2      0.01 sec, wall time      0.01 sec
E1 = -3.235293277949318  E_coul = 0.8679195213863206
  mo_energy =
[-0.74972712]
E1 = -3.235293277949318  E_coul = 0.8679195213863206
Extra cycle  E= -2.367373756563  delta_E=    0  |g|=    0  |ddm|=    0
    CPU time for scf_cycle      0.04 sec, wall time      0.04 sec
#INFO: **** input file is /Users/deyanmihaylov/Documents/Work/h5py_mpi_test/pyscfad_test.py ****
import pyscf
from pyscfad import gto, scf
import numpy as np

from scipy.optimize import minimize, Bounds

"""
Analytic nuclear gradient for RHF computed by auto-differentiation
"""


def He_energy(exponent):
    mol = gto.Mole()
    mol.atom    = 'He 0 0 0'  # in Angstrom

    mol.basis = {'He': pyscf.gto.basis.parse(f'''
    He   S
        {exponent[0]}              1.0
        {exponent[1]}              1.0
    ''')}
    mol.verbose = 5
    mol.build()

    mf = scf.RHF(mol)
    e = mf.kernel()

    return e

def grad_He_energy(exponent):
    mol = gto.Mole()
    mol.atom    = 'He 0 0 0'  # in Angstrom

    mol.basis = {'He': pyscf.gto.basis.parse(f'''
    He   S
        {exponent[0]}              1.0
        {exponent[1]}              1.0
    ''')}
    mol.verbose = 5
    mol.build()

    mf = scf.RHF(mol)
    mf.kernel()
    jac = mf.energy_grad()

    return jac.exp

x0 = [0.2432879285E+01, 0.4330512863E+00]
res = minimize(He_energy, x0, jac=grad_He_energy,
               bounds=Bounds(lb=1e-4),
               method='SLSQP', tol=1e-6)

print(res.x)
print(res.values())

# print("E", He_energy(71.6168370))

# print(f'Nuclaer gradient:\n{jac.coords}')
# print(f'Gradient wrt basis exponents:\n{jac.exp}')
# print(f'Gradient wrt basis contraction coefficients:\n{jac.ctr_coeff}')#INFO: ******************** input file end ********************


System: uname_result(system='Darwin', node='Deyans-MacBook-Pro-Home.local', release='22.1.0', version='Darwin Kernel Version 22.1.0: Sun Oct  9 20:14:54 PDT 2022; root:xnu-8792.41.9~2/RELEASE_X86_64', machine='x86_64', processor='i386')  Threads 1
Python 3.8.16 (default, Jan 17 2023, 16:42:09) 
[Clang 14.0.6 ]
numpy 1.24.2  scipy 1.10.1
Date: Fri Mar  3 21:43:32 2023
PySCF version 2.1.1
PySCF path  /Users/deyanmihaylov/opt/anaconda3/envs/pyscfad_env/lib/python3.8/site-packages/pyscf

[CONFIG] conf_file /Users/deyanmihaylov/.pyscf_conf.py
[INPUT] verbose = 5
[INPUT] max_memory = 4000 
[INPUT] num. atoms = 1
[INPUT] num. electrons = 2
[INPUT] charge = 0
[INPUT] spin (= nelec alpha-beta = 2S) = 0
[INPUT] symmetry False subgroup None
[INPUT] Mole.unit = angstrom
[INPUT] Symbol           X                Y                Z      unit          X                Y                Z       unit  Magmom
[INPUT]  1 He     0.000000000000   0.000000000000   0.000000000000 AA    0.000000000000   0.000000000000   0.000000000000 Bohr   0.0
[INPUT] ---------------- BASIS SET ---------------- 
[INPUT] l, kappa, [nprim/nctr], expnt,             c_1 c_2 ...
[INPUT] He
[INPUT] 0    0    [2    /1   ]  2.36621253595        1
                                0.292559916185       1

nuclear repulsion = 0
number of shells = 1
number of NR pGTOs = 2
number of NR cGTOs = 1
basis = {'He': [[0, [2.366212535945794, 1.0], [0.2925599161849102, 1.0]]]}
ecp = {}
CPU time:         8.02
Set gradient conv threshold to 3.16228e-05
cond(S) = 1.0
E1 = -3.6472440460572333  E_coul = 1.0609604556490506
init E= -2.58628359040818
    CPU time for initialize scf      0.02 sec, wall time      0.02 sec
  mo_energy =
[-0.77173467]
E1 = -3.6906339453081145  E_coul = 1.0863543130904654
cycle= 1 E= -2.60427963221765  delta_E= -0.018  |g|=    0  |ddm|= 0.0235
    CPU time for cycle= 1      0.01 sec, wall time      0.01 sec
  mo_energy =
[-0.75896266]
E1 = -3.6906339453081145  E_coul = 1.0863543130904654
cycle= 2 E= -2.60427963221765  delta_E=    0  |g|=    0  |ddm|=    0
    CPU time for cycle= 2      0.01 sec, wall time      0.01 sec
E1 = -3.6906339453081145  E_coul = 1.0863543130904654
  mo_energy =
[-0.75896266]
E1 = -3.6906339453081145  E_coul = 1.0863543130904654
Extra cycle  E= -2.60427963221765  delta_E=    0  |g|=    0  |ddm|=    0
    CPU time for scf_cycle      0.03 sec, wall time      0.04 sec
#INFO: **** input file is /Users/deyanmihaylov/Documents/Work/h5py_mpi_test/pyscfad_test.py ****
import pyscf
from pyscfad import gto, scf
import numpy as np

from scipy.optimize import minimize, Bounds

"""
Analytic nuclear gradient for RHF computed by auto-differentiation
"""


def He_energy(exponent):
    mol = gto.Mole()
    mol.atom    = 'He 0 0 0'  # in Angstrom

    mol.basis = {'He': pyscf.gto.basis.parse(f'''
    He   S
        {exponent[0]}              1.0
        {exponent[1]}              1.0
    ''')}
    mol.verbose = 5
    mol.build()

    mf = scf.RHF(mol)
    e = mf.kernel()

    return e

def grad_He_energy(exponent):
    mol = gto.Mole()
    mol.atom    = 'He 0 0 0'  # in Angstrom

    mol.basis = {'He': pyscf.gto.basis.parse(f'''
    He   S
        {exponent[0]}              1.0
        {exponent[1]}              1.0
    ''')}
    mol.verbose = 5
    mol.build()

    mf = scf.RHF(mol)
    mf.kernel()
    jac = mf.energy_grad()

    return jac.exp

x0 = [0.2432879285E+01, 0.4330512863E+00]
res = minimize(He_energy, x0, jac=grad_He_energy,
               bounds=Bounds(lb=1e-4),
               method='SLSQP', tol=1e-6)

print(res.x)
print(res.values())

# print("E", He_energy(71.6168370))

# print(f'Nuclaer gradient:\n{jac.coords}')
# print(f'Gradient wrt basis exponents:\n{jac.exp}')
# print(f'Gradient wrt basis contraction coefficients:\n{jac.ctr_coeff}')#INFO: ******************** input file end ********************


System: uname_result(system='Darwin', node='Deyans-MacBook-Pro-Home.local', release='22.1.0', version='Darwin Kernel Version 22.1.0: Sun Oct  9 20:14:54 PDT 2022; root:xnu-8792.41.9~2/RELEASE_X86_64', machine='x86_64', processor='i386')  Threads 1
Python 3.8.16 (default, Jan 17 2023, 16:42:09) 
[Clang 14.0.6 ]
numpy 1.24.2  scipy 1.10.1
Date: Fri Mar  3 21:43:32 2023
PySCF version 2.1.1
PySCF path  /Users/deyanmihaylov/opt/anaconda3/envs/pyscfad_env/lib/python3.8/site-packages/pyscf

[CONFIG] conf_file /Users/deyanmihaylov/.pyscf_conf.py
[INPUT] verbose = 5
[INPUT] max_memory = 4000 
[INPUT] num. atoms = 1
[INPUT] num. electrons = 2
[INPUT] charge = 0
[INPUT] spin (= nelec alpha-beta = 2S) = 0
[INPUT] symmetry False subgroup None
[INPUT] Mole.unit = angstrom
[INPUT] Symbol           X                Y                Z      unit          X                Y                Z       unit  Magmom
[INPUT]  1 He     0.000000000000   0.000000000000   0.000000000000 AA    0.000000000000   0.000000000000   0.000000000000 Bohr   0.0
[INPUT] ---------------- BASIS SET ---------------- 
[INPUT] l, kappa, [nprim/nctr], expnt,             c_1 c_2 ...
[INPUT] He
[INPUT] 0    0    [2    /1   ]  2.39215600377        1
                                0.318003749076       1

nuclear repulsion = 0
number of shells = 1
number of NR pGTOs = 2
number of NR cGTOs = 1
basis = {'He': [[0, [2.3921560037688616, 1.0], [0.3180037490764642, 1.0]]]}
ecp = {}
CPU time:         8.12
Set gradient conv threshold to 3.16228e-05
cond(S) = 1.0
E1 = -3.674069202141038  E_coul = 1.0841445822974856
init E= -2.58992461984355
    CPU time for initialize scf      0.02 sec, wall time      0.02 sec
  mo_energy =
[-0.76190649]
E1 = -3.7180691954722525  E_coul = 1.1102671124775954
cycle= 1 E= -2.60780208299466  delta_E= -0.0179  |g|=    0  |ddm|= 0.0237
    CPU time for cycle= 1      0.01 sec, wall time      0.01 sec
  mo_energy =
[-0.74876749]
E1 = -3.7180691954722525  E_coul = 1.1102671124775954
cycle= 2 E= -2.60780208299466  delta_E=    0  |g|=    0  |ddm|=    0
    CPU time for cycle= 2      0.01 sec, wall time      0.01 sec
E1 = -3.7180691954722525  E_coul = 1.1102671124775954
  mo_energy =
[-0.74876749]
E1 = -3.7180691954722525  E_coul = 1.1102671124775954
Extra cycle  E= -2.60780208299466  delta_E=    0  |g|=    0  |ddm|=    0
    CPU time for scf_cycle      0.04 sec, wall time      0.04 sec
#INFO: **** input file is /Users/deyanmihaylov/Documents/Work/h5py_mpi_test/pyscfad_test.py ****
import pyscf
from pyscfad import gto, scf
import numpy as np

from scipy.optimize import minimize, Bounds

"""
Analytic nuclear gradient for RHF computed by auto-differentiation
"""


def He_energy(exponent):
    mol = gto.Mole()
    mol.atom    = 'He 0 0 0'  # in Angstrom

    mol.basis = {'He': pyscf.gto.basis.parse(f'''
    He   S
        {exponent[0]}              1.0
        {exponent[1]}              1.0
    ''')}
    mol.verbose = 5
    mol.build()

    mf = scf.RHF(mol)
    e = mf.kernel()

    return e

def grad_He_energy(exponent):
    mol = gto.Mole()
    mol.atom    = 'He 0 0 0'  # in Angstrom

    mol.basis = {'He': pyscf.gto.basis.parse(f'''
    He   S
        {exponent[0]}              1.0
        {exponent[1]}              1.0
    ''')}
    mol.verbose = 5
    mol.build()

    mf = scf.RHF(mol)
    mf.kernel()
    jac = mf.energy_grad()

    return jac.exp

x0 = [0.2432879285E+01, 0.4330512863E+00]
res = minimize(He_energy, x0, jac=grad_He_energy,
               bounds=Bounds(lb=1e-4),
               method='SLSQP', tol=1e-6)

print(res.x)
print(res.values())

# print("E", He_energy(71.6168370))

# print(f'Nuclaer gradient:\n{jac.coords}')
# print(f'Gradient wrt basis exponents:\n{jac.exp}')
# print(f'Gradient wrt basis contraction coefficients:\n{jac.ctr_coeff}')#INFO: ******************** input file end ********************


System: uname_result(system='Darwin', node='Deyans-MacBook-Pro-Home.local', release='22.1.0', version='Darwin Kernel Version 22.1.0: Sun Oct  9 20:14:54 PDT 2022; root:xnu-8792.41.9~2/RELEASE_X86_64', machine='x86_64', processor='i386')  Threads 1
Python 3.8.16 (default, Jan 17 2023, 16:42:09) 
[Clang 14.0.6 ]
numpy 1.24.2  scipy 1.10.1
Date: Fri Mar  3 21:43:32 2023
PySCF version 2.1.1
PySCF path  /Users/deyanmihaylov/opt/anaconda3/envs/pyscfad_env/lib/python3.8/site-packages/pyscf

[CONFIG] conf_file /Users/deyanmihaylov/.pyscf_conf.py
[INPUT] verbose = 5
[INPUT] max_memory = 4000 
[INPUT] num. atoms = 1
[INPUT] num. electrons = 2
[INPUT] charge = 0
[INPUT] spin (= nelec alpha-beta = 2S) = 0
[INPUT] symmetry False subgroup None
[INPUT] Mole.unit = angstrom
[INPUT] Symbol           X                Y                Z      unit          X                Y                Z       unit  Magmom
[INPUT]  1 He     0.000000000000   0.000000000000   0.000000000000 AA    0.000000000000   0.000000000000   0.000000000000 Bohr   0.0
[INPUT] ---------------- BASIS SET ---------------- 
[INPUT] l, kappa, [nprim/nctr], expnt,             c_1 c_2 ...
[INPUT] He
[INPUT] 0    0    [2    /1   ]  2.40308867675        1
                                0.328725874057       1

nuclear repulsion = 0
number of shells = 1
number of NR pGTOs = 2
number of NR cGTOs = 1
basis = {'He': [[0, [2.403088676751112, 1.0], [0.32872587405665105, 1.0]]]}
ecp = {}
CPU time:         8.23
Set gradient conv threshold to 3.16228e-05
cond(S) = 1.0
E1 = -3.6819671178172078  E_coul = 1.0925376956276056
init E= -2.5894294221896
    CPU time for initialize scf      0.02 sec, wall time      0.02 sec
  mo_energy =
[-0.75778234]
E1 = -3.727897778252979  E_coul = 1.1199654087702782
cycle= 1 E= -2.6079323694827  delta_E= -0.0185  |g|=    0  |ddm|= 0.0246
    CPU time for cycle= 1      0.01 sec, wall time      0.01 sec
  mo_energy =
[-0.74398348]
E1 = -3.727897778252979  E_coul = 1.1199654087702782
cycle= 2 E= -2.6079323694827  delta_E=    0  |g|=    0  |ddm|=    0
    CPU time for cycle= 2      0.01 sec, wall time      0.01 sec
E1 = -3.727897778252979  E_coul = 1.1199654087702782
  mo_energy =
[-0.74398348]
E1 = -3.727897778252979  E_coul = 1.1199654087702782
Extra cycle  E= -2.6079323694827  delta_E=    0  |g|=    0  |ddm|=    0
    CPU time for scf_cycle      0.04 sec, wall time      0.04 sec
#INFO: **** input file is /Users/deyanmihaylov/Documents/Work/h5py_mpi_test/pyscfad_test.py ****
import pyscf
from pyscfad import gto, scf
import numpy as np

from scipy.optimize import minimize, Bounds

"""
Analytic nuclear gradient for RHF computed by auto-differentiation
"""


def He_energy(exponent):
    mol = gto.Mole()
    mol.atom    = 'He 0 0 0'  # in Angstrom

    mol.basis = {'He': pyscf.gto.basis.parse(f'''
    He   S
        {exponent[0]}              1.0
        {exponent[1]}              1.0
    ''')}
    mol.verbose = 5
    mol.build()

    mf = scf.RHF(mol)
    e = mf.kernel()

    return e

def grad_He_energy(exponent):
    mol = gto.Mole()
    mol.atom    = 'He 0 0 0'  # in Angstrom

    mol.basis = {'He': pyscf.gto.basis.parse(f'''
    He   S
        {exponent[0]}              1.0
        {exponent[1]}              1.0
    ''')}
    mol.verbose = 5
    mol.build()

    mf = scf.RHF(mol)
    mf.kernel()
    jac = mf.energy_grad()

    return jac.exp

x0 = [0.2432879285E+01, 0.4330512863E+00]
res = minimize(He_energy, x0, jac=grad_He_energy,
               bounds=Bounds(lb=1e-4),
               method='SLSQP', tol=1e-6)

print(res.x)
print(res.values())

# print("E", He_energy(71.6168370))

# print(f'Nuclaer gradient:\n{jac.coords}')
# print(f'Gradient wrt basis exponents:\n{jac.exp}')
# print(f'Gradient wrt basis contraction coefficients:\n{jac.ctr_coeff}')#INFO: ******************** input file end ********************


System: uname_result(system='Darwin', node='Deyans-MacBook-Pro-Home.local', release='22.1.0', version='Darwin Kernel Version 22.1.0: Sun Oct  9 20:14:54 PDT 2022; root:xnu-8792.41.9~2/RELEASE_X86_64', machine='x86_64', processor='i386')  Threads 1
Python 3.8.16 (default, Jan 17 2023, 16:42:09) 
[Clang 14.0.6 ]
numpy 1.24.2  scipy 1.10.1
Date: Fri Mar  3 21:43:32 2023
PySCF version 2.1.1
PySCF path  /Users/deyanmihaylov/opt/anaconda3/envs/pyscfad_env/lib/python3.8/site-packages/pyscf

[CONFIG] conf_file /Users/deyanmihaylov/.pyscf_conf.py
[INPUT] verbose = 5
[INPUT] max_memory = 4000 
[INPUT] num. atoms = 1
[INPUT] num. electrons = 2
[INPUT] charge = 0
[INPUT] spin (= nelec alpha-beta = 2S) = 0
[INPUT] symmetry False subgroup None
[INPUT] Mole.unit = angstrom
[INPUT] Symbol           X                Y                Z      unit          X                Y                Z       unit  Magmom
[INPUT]  1 He     0.000000000000   0.000000000000   0.000000000000 AA    0.000000000000   0.000000000000   0.000000000000 Bohr   0.0
[INPUT] ---------------- BASIS SET ---------------- 
[INPUT] l, kappa, [nprim/nctr], expnt,             c_1 c_2 ...
[INPUT] He
[INPUT] 0    0    [2    /1   ]  2.40845476252        1
                                0.333988616512       1

nuclear repulsion = 0
number of shells = 1
number of NR pGTOs = 2
number of NR cGTOs = 1
basis = {'He': [[0, [2.4084547625184647, 1.0], [0.33398861651180084, 1.0]]]}
ecp = {}
CPU time:         8.33
Set gradient conv threshold to 3.16228e-05
cond(S) = 1.0
E1 = -3.6851777404589807  E_coul = 1.0963849963090784
init E= -2.5887927441499
    CPU time for initialize scf      0.02 sec, wall time      0.02 sec
  mo_energy =
[-0.75576122]
E1 = -3.7323773341296995  E_coul = 1.1246497525739676
cycle= 1 E= -2.60772758155573  delta_E= -0.0189  |g|=    0  |ddm|= 0.0253
    CPU time for cycle= 1      0.01 sec, wall time      0.01 sec
  mo_energy =
[-0.74153891]
E1 = -3.7323773341296995  E_coul = 1.1246497525739676
cycle= 2 E= -2.60772758155573  delta_E=    0  |g|=    0  |ddm|=    0
    CPU time for cycle= 2      0.01 sec, wall time      0.01 sec
E1 = -3.7323773341296995  E_coul = 1.1246497525739676
  mo_energy =
[-0.74153891]
E1 = -3.7323773341296995  E_coul = 1.1246497525739676
Extra cycle  E= -2.60772758155573  delta_E=    0  |g|=    0  |ddm|=    0
    CPU time for scf_cycle      0.03 sec, wall time      0.03 sec
#INFO: **** input file is /Users/deyanmihaylov/Documents/Work/h5py_mpi_test/pyscfad_test.py ****
import pyscf
from pyscfad import gto, scf
import numpy as np

from scipy.optimize import minimize, Bounds

"""
Analytic nuclear gradient for RHF computed by auto-differentiation
"""


def He_energy(exponent):
    mol = gto.Mole()
    mol.atom    = 'He 0 0 0'  # in Angstrom

    mol.basis = {'He': pyscf.gto.basis.parse(f'''
    He   S
        {exponent[0]}              1.0
        {exponent[1]}              1.0
    ''')}
    mol.verbose = 5
    mol.build()

    mf = scf.RHF(mol)
    e = mf.kernel()

    return e

def grad_He_energy(exponent):
    mol = gto.Mole()
    mol.atom    = 'He 0 0 0'  # in Angstrom

    mol.basis = {'He': pyscf.gto.basis.parse(f'''
    He   S
        {exponent[0]}              1.0
        {exponent[1]}              1.0
    ''')}
    mol.verbose = 5
    mol.build()

    mf = scf.RHF(mol)
    mf.kernel()
    jac = mf.energy_grad()

    return jac.exp

x0 = [0.2432879285E+01, 0.4330512863E+00]
res = minimize(He_energy, x0, jac=grad_He_energy,
               bounds=Bounds(lb=1e-4),
               method='SLSQP', tol=1e-6)

print(res.x)
print(res.values())

# print("E", He_energy(71.6168370))

# print(f'Nuclaer gradient:\n{jac.coords}')
# print(f'Gradient wrt basis exponents:\n{jac.exp}')
# print(f'Gradient wrt basis contraction coefficients:\n{jac.ctr_coeff}')#INFO: ******************** input file end ********************


System: uname_result(system='Darwin', node='Deyans-MacBook-Pro-Home.local', release='22.1.0', version='Darwin Kernel Version 22.1.0: Sun Oct  9 20:14:54 PDT 2022; root:xnu-8792.41.9~2/RELEASE_X86_64', machine='x86_64', processor='i386')  Threads 1
Python 3.8.16 (default, Jan 17 2023, 16:42:09) 
[Clang 14.0.6 ]
numpy 1.24.2  scipy 1.10.1
Date: Fri Mar  3 21:43:33 2023
PySCF version 2.1.1
PySCF path  /Users/deyanmihaylov/opt/anaconda3/envs/pyscfad_env/lib/python3.8/site-packages/pyscf

[CONFIG] conf_file /Users/deyanmihaylov/.pyscf_conf.py
[INPUT] verbose = 5
[INPUT] max_memory = 4000 
[INPUT] num. atoms = 1
[INPUT] num. electrons = 2
[INPUT] charge = 0
[INPUT] spin (= nelec alpha-beta = 2S) = 0
[INPUT] symmetry False subgroup None
[INPUT] Mole.unit = angstrom
[INPUT] Symbol           X                Y                Z      unit          X                Y                Z       unit  Magmom
[INPUT]  1 He     0.000000000000   0.000000000000   0.000000000000 AA    0.000000000000   0.000000000000   0.000000000000 Bohr   0.0
[INPUT] ---------------- BASIS SET ---------------- 
[INPUT] l, kappa, [nprim/nctr], expnt,             c_1 c_2 ...
[INPUT] He
[INPUT] 0    0    [2    /1   ]  2.4112663954         1
                                0.336746101275       1

nuclear repulsion = 0
number of shells = 1
number of NR pGTOs = 2
number of NR cGTOs = 1
basis = {'He': [[0, [2.411266395401588, 1.0], [0.3367461012751513, 1.0]]]}
ecp = {}
CPU time:         8.43
Set gradient conv threshold to 3.16228e-05
cond(S) = 1.0
E1 = -3.6866928312761615  E_coul = 1.0983321510878077
init E= -2.58836068018835
    CPU time for initialize scf      0.02 sec, wall time      0.02 sec
  mo_energy =
[-0.75470297]
E1 = -3.7346372431117776  E_coul = 1.127084910534
cycle= 1 E= -2.60755233257778  delta_E= -0.0192  |g|=    0  |ddm|= 0.0257
    CPU time for cycle= 1      0.01 sec, wall time      0.01 sec
  mo_energy =
[-0.74023371]
E1 = -3.7346372431117776  E_coul = 1.127084910534
cycle= 2 E= -2.60755233257778  delta_E=    0  |g|=    0  |ddm|=    0
    CPU time for cycle= 2      0.01 sec, wall time      0.01 sec
E1 = -3.7346372431117776  E_coul = 1.127084910534
  mo_energy =
[-0.74023371]
E1 = -3.7346372431117776  E_coul = 1.127084910534
Extra cycle  E= -2.60755233257778  delta_E=    0  |g|=    0  |ddm|=    0
    CPU time for scf_cycle      0.04 sec, wall time      0.04 sec
#INFO: **** input file is /Users/deyanmihaylov/Documents/Work/h5py_mpi_test/pyscfad_test.py ****
import pyscf
from pyscfad import gto, scf
import numpy as np

from scipy.optimize import minimize, Bounds

"""
Analytic nuclear gradient for RHF computed by auto-differentiation
"""


def He_energy(exponent):
    mol = gto.Mole()
    mol.atom    = 'He 0 0 0'  # in Angstrom

    mol.basis = {'He': pyscf.gto.basis.parse(f'''
    He   S
        {exponent[0]}              1.0
        {exponent[1]}              1.0
    ''')}
    mol.verbose = 5
    mol.build()

    mf = scf.RHF(mol)
    e = mf.kernel()

    return e

def grad_He_energy(exponent):
    mol = gto.Mole()
    mol.atom    = 'He 0 0 0'  # in Angstrom

    mol.basis = {'He': pyscf.gto.basis.parse(f'''
    He   S
        {exponent[0]}              1.0
        {exponent[1]}              1.0
    ''')}
    mol.verbose = 5
    mol.build()

    mf = scf.RHF(mol)
    mf.kernel()
    jac = mf.energy_grad()

    return jac.exp

x0 = [0.2432879285E+01, 0.4330512863E+00]
res = minimize(He_energy, x0, jac=grad_He_energy,
               bounds=Bounds(lb=1e-4),
               method='SLSQP', tol=1e-6)

print(res.x)
print(res.values())

# print("E", He_energy(71.6168370))

# print(f'Nuclaer gradient:\n{jac.coords}')
# print(f'Gradient wrt basis exponents:\n{jac.exp}')
# print(f'Gradient wrt basis contraction coefficients:\n{jac.ctr_coeff}')#INFO: ******************** input file end ********************


System: uname_result(system='Darwin', node='Deyans-MacBook-Pro-Home.local', release='22.1.0', version='Darwin Kernel Version 22.1.0: Sun Oct  9 20:14:54 PDT 2022; root:xnu-8792.41.9~2/RELEASE_X86_64', machine='x86_64', processor='i386')  Threads 1
Python 3.8.16 (default, Jan 17 2023, 16:42:09) 
[Clang 14.0.6 ]
numpy 1.24.2  scipy 1.10.1
Date: Fri Mar  3 21:43:33 2023
PySCF version 2.1.1
PySCF path  /Users/deyanmihaylov/opt/anaconda3/envs/pyscfad_env/lib/python3.8/site-packages/pyscf

[CONFIG] conf_file /Users/deyanmihaylov/.pyscf_conf.py
[INPUT] verbose = 5
[INPUT] max_memory = 4000 
[INPUT] num. atoms = 1
[INPUT] num. electrons = 2
[INPUT] charge = 0
[INPUT] spin (= nelec alpha-beta = 2S) = 0
[INPUT] symmetry False subgroup None
[INPUT] Mole.unit = angstrom
[INPUT] Symbol           X                Y                Z      unit          X                Y                Z       unit  Magmom
[INPUT]  1 He     0.000000000000   0.000000000000   0.000000000000 AA    0.000000000000   0.000000000000   0.000000000000 Bohr   0.0
[INPUT] ---------------- BASIS SET ---------------- 
[INPUT] l, kappa, [nprim/nctr], expnt,             c_1 c_2 ...
[INPUT] He
[INPUT] 0    0    [2    /1   ]  2.41278802957        1
                                0.338238430899       1

nuclear repulsion = 0
number of shells = 1
number of NR pGTOs = 2
number of NR cGTOs = 1
basis = {'He': [[0, [2.412788029573067, 1.0], [0.3382384308991336, 1.0]]]}
ecp = {}
CPU time:         8.53
Set gradient conv threshold to 3.16228e-05
cond(S) = 1.0
E1 = -3.6874659537516723  E_coul = 1.0993666439747871
init E= -2.58809930977689
    CPU time for initialize scf      0.02 sec, wall time      0.02 sec
  mo_energy =
[-0.75413045]
E1 = -3.7358357494461005  E_coul = 1.1283973690068554
cycle= 1 E= -2.60743838043925  delta_E= -0.0193  |g|=    0  |ddm|= 0.0259
    CPU time for cycle= 1      0.01 sec, wall time      0.01 sec
  mo_energy =
[-0.73952051]
E1 = -3.7358357494461005  E_coul = 1.1283973690068554
cycle= 2 E= -2.60743838043925  delta_E=    0  |g|=    0  |ddm|=    0
    CPU time for cycle= 2      0.01 sec, wall time      0.01 sec
E1 = -3.7358357494461005  E_coul = 1.1283973690068554
  mo_energy =
[-0.73952051]
E1 = -3.7358357494461005  E_coul = 1.1283973690068554
Extra cycle  E= -2.60743838043925  delta_E=    0  |g|=    0  |ddm|=    0
    CPU time for scf_cycle      0.03 sec, wall time      0.03 sec
#INFO: **** input file is /Users/deyanmihaylov/Documents/Work/h5py_mpi_test/pyscfad_test.py ****
import pyscf
from pyscfad import gto, scf
import numpy as np

from scipy.optimize import minimize, Bounds

"""
Analytic nuclear gradient for RHF computed by auto-differentiation
"""


def He_energy(exponent):
    mol = gto.Mole()
    mol.atom    = 'He 0 0 0'  # in Angstrom

    mol.basis = {'He': pyscf.gto.basis.parse(f'''
    He   S
        {exponent[0]}              1.0
        {exponent[1]}              1.0
    ''')}
    mol.verbose = 5
    mol.build()

    mf = scf.RHF(mol)
    e = mf.kernel()

    return e

def grad_He_energy(exponent):
    mol = gto.Mole()
    mol.atom    = 'He 0 0 0'  # in Angstrom

    mol.basis = {'He': pyscf.gto.basis.parse(f'''
    He   S
        {exponent[0]}              1.0
        {exponent[1]}              1.0
    ''')}
    mol.verbose = 5
    mol.build()

    mf = scf.RHF(mol)
    mf.kernel()
    jac = mf.energy_grad()

    return jac.exp

x0 = [0.2432879285E+01, 0.4330512863E+00]
res = minimize(He_energy, x0, jac=grad_He_energy,
               bounds=Bounds(lb=1e-4),
               method='SLSQP', tol=1e-6)

print(res.x)
print(res.values())

# print("E", He_energy(71.6168370))

# print(f'Nuclaer gradient:\n{jac.coords}')
# print(f'Gradient wrt basis exponents:\n{jac.exp}')
# print(f'Gradient wrt basis contraction coefficients:\n{jac.ctr_coeff}')#INFO: ******************** input file end ********************


System: uname_result(system='Darwin', node='Deyans-MacBook-Pro-Home.local', release='22.1.0', version='Darwin Kernel Version 22.1.0: Sun Oct  9 20:14:54 PDT 2022; root:xnu-8792.41.9~2/RELEASE_X86_64', machine='x86_64', processor='i386')  Threads 1
Python 3.8.16 (default, Jan 17 2023, 16:42:09) 
[Clang 14.0.6 ]
numpy 1.24.2  scipy 1.10.1
Date: Fri Mar  3 21:43:33 2023
PySCF version 2.1.1
PySCF path  /Users/deyanmihaylov/opt/anaconda3/envs/pyscfad_env/lib/python3.8/site-packages/pyscf

[CONFIG] conf_file /Users/deyanmihaylov/.pyscf_conf.py
[INPUT] verbose = 5
[INPUT] max_memory = 4000 
[INPUT] num. atoms = 1
[INPUT] num. electrons = 2
[INPUT] charge = 0
[INPUT] spin (= nelec alpha-beta = 2S) = 0
[INPUT] symmetry False subgroup None
[INPUT] Mole.unit = angstrom
[INPUT] Symbol           X                Y                Z      unit          X                Y                Z       unit  Magmom
[INPUT]  1 He     0.000000000000   0.000000000000   0.000000000000 AA    0.000000000000   0.000000000000   0.000000000000 Bohr   0.0
[INPUT] ---------------- BASIS SET ---------------- 
[INPUT] l, kappa, [nprim/nctr], expnt,             c_1 c_2 ...
[INPUT] He
[INPUT] 0    0    [2    /1   ]  2.41278802957        1
                                0.338238430899       1

nuclear repulsion = 0
number of shells = 1
number of NR pGTOs = 2
number of NR cGTOs = 1
basis = {'He': [[0, [2.412788029573067, 1.0], [0.3382384308991336, 1.0]]]}
ecp = {}
CPU time:         8.63
Set gradient conv threshold to 3.16228e-05
cond(S) = 1.0
E1 = -3.6874659537516723  E_coul = 1.0993666439747871
init E= -2.58809930977689
    CPU time for initialize scf      0.02 sec, wall time      0.02 sec
  mo_energy =
[-0.75413045]
E1 = -3.7358357494461005  E_coul = 1.1283973690068554
cycle= 1 E= -2.60743838043925  delta_E= -0.0193  |g|=    0  |ddm|= 0.0259
    CPU time for cycle= 1      0.01 sec, wall time      0.01 sec
  mo_energy =
[-0.73952051]
E1 = -3.7358357494461005  E_coul = 1.1283973690068554
cycle= 2 E= -2.60743838043925  delta_E=    0  |g|=    0  |ddm|=    0
    CPU time for cycle= 2      0.01 sec, wall time      0.01 sec
E1 = -3.7358357494461005  E_coul = 1.1283973690068554
  mo_energy =
[-0.73952051]
E1 = -3.7358357494461005  E_coul = 1.1283973690068554
Extra cycle  E= -2.60743838043925  delta_E=    0  |g|=    0  |ddm|=    0
    CPU time for scf_cycle      0.03 sec, wall time      0.03 sec
Set gradient conv threshold to 3.16228e-05
cond(S) = 1.0
E1 = -3.7358357494461005  E_coul = 1.1283973690068554
init E= -2.60743838043925
    CPU time for initialize scf      0.03 sec, wall time      0.03 sec
  mo_energy =
[-0.73952051]
E1 = -3.7358357494461005  E_coul = 1.1283973690068554
cycle= 1 E= -2.60743838043925  delta_E=    0  |g|=    0  |ddm|=    0
    CPU time for cycle= 1      0.00 sec, wall time      0.00 sec
E1 = -3.7358357494461005  E_coul = 1.1283973690068554
  mo_energy =
[-0.73952051]
E1 = -3.7358357494461005  E_coul = 1.1283973690068554
Extra cycle  E= -2.60743838043925  delta_E=    0  |g|=    0  |ddm|=    0
    CPU time for scf_cycle      0.07 sec, wall time      0.07 sec
#INFO: **** input file is /Users/deyanmihaylov/Documents/Work/h5py_mpi_test/pyscfad_test.py ****
import pyscf
from pyscfad import gto, scf
import numpy as np

from scipy.optimize import minimize, Bounds

"""
Analytic nuclear gradient for RHF computed by auto-differentiation
"""


def He_energy(exponent):
    mol = gto.Mole()
    mol.atom    = 'He 0 0 0'  # in Angstrom

    mol.basis = {'He': pyscf.gto.basis.parse(f'''
    He   S
        {exponent[0]}              1.0
        {exponent[1]}              1.0
    ''')}
    mol.verbose = 5
    mol.build()

    mf = scf.RHF(mol)
    e = mf.kernel()

    return e

def grad_He_energy(exponent):
    mol = gto.Mole()
    mol.atom    = 'He 0 0 0'  # in Angstrom

    mol.basis = {'He': pyscf.gto.basis.parse(f'''
    He   S
        {exponent[0]}              1.0
        {exponent[1]}              1.0
    ''')}
    mol.verbose = 5
    mol.build()

    mf = scf.RHF(mol)
    mf.kernel()
    jac = mf.energy_grad()

    return jac.exp

x0 = [0.2432879285E+01, 0.4330512863E+00]
res = minimize(He_energy, x0, jac=grad_He_energy,
               bounds=Bounds(lb=1e-4),
               method='SLSQP', tol=1e-6)

print(res.x)
print(res.values())

# print("E", He_energy(71.6168370))

# print(f'Nuclaer gradient:\n{jac.coords}')
# print(f'Gradient wrt basis exponents:\n{jac.exp}')
# print(f'Gradient wrt basis contraction coefficients:\n{jac.ctr_coeff}')#INFO: ******************** input file end ********************


System: uname_result(system='Darwin', node='Deyans-MacBook-Pro-Home.local', release='22.1.0', version='Darwin Kernel Version 22.1.0: Sun Oct  9 20:14:54 PDT 2022; root:xnu-8792.41.9~2/RELEASE_X86_64', machine='x86_64', processor='i386')  Threads 1
Python 3.8.16 (default, Jan 17 2023, 16:42:09) 
[Clang 14.0.6 ]
numpy 1.24.2  scipy 1.10.1
Date: Fri Mar  3 21:43:34 2023
PySCF version 2.1.1
PySCF path  /Users/deyanmihaylov/opt/anaconda3/envs/pyscfad_env/lib/python3.8/site-packages/pyscf

[CONFIG] conf_file /Users/deyanmihaylov/.pyscf_conf.py
[INPUT] verbose = 5
[INPUT] max_memory = 4000 
[INPUT] num. atoms = 1
[INPUT] num. electrons = 2
[INPUT] charge = 0
[INPUT] spin (= nelec alpha-beta = 2S) = 0
[INPUT] symmetry False subgroup None
[INPUT] Mole.unit = angstrom
[INPUT] Symbol           X                Y                Z      unit          X                Y                Z       unit  Magmom
[INPUT]  1 He     0.000000000000   0.000000000000   0.000000000000 AA    0.000000000000   0.000000000000   0.000000000000 Bohr   0.0
[INPUT] ---------------- BASIS SET ---------------- 
[INPUT] l, kappa, [nprim/nctr], expnt,             c_1 c_2 ...
[INPUT] He
[INPUT] 0    0    [2    /1   ]  2.12224892106        1
                                0.154459832082       1

nuclear repulsion = 0
number of shells = 1
number of NR pGTOs = 2
number of NR cGTOs = 1
basis = {'He': [[0, [2.1222489210636573, 1.0], [0.15445983208164157, 1.0]]]}
ecp = {}
CPU time:        10.05
Set gradient conv threshold to 3.16228e-05
cond(S) = 1.0
E1 = -3.199009161544754  E_coul = 0.8079294049183734
init E= -2.39107975662638
    CPU time for initialize scf      0.02 sec, wall time      0.02 sec
  mo_energy =
[-0.84075616]
E1 = -3.3977652966087697  E_coul = 0.9114423407010481
cycle= 1 E= -2.48632295590772  delta_E= -0.0952  |g|=    0  |ddm|= 0.117
    CPU time for cycle= 1      0.01 sec, wall time      0.01 sec
  mo_energy =
[-0.78744031]
E1 = -3.3977652966087697  E_coul = 0.9114423407010481
cycle= 2 E= -2.48632295590772  delta_E=    0  |g|=    0  |ddm|=    0
    CPU time for cycle= 2      0.01 sec, wall time      0.01 sec
E1 = -3.3977652966087697  E_coul = 0.9114423407010481
  mo_energy =
[-0.78744031]
E1 = -3.3977652966087697  E_coul = 0.9114423407010481
Extra cycle  E= -2.48632295590772  delta_E=    0  |g|=    0  |ddm|=    0
    CPU time for scf_cycle      0.04 sec, wall time      0.04 sec
#INFO: **** input file is /Users/deyanmihaylov/Documents/Work/h5py_mpi_test/pyscfad_test.py ****
import pyscf
from pyscfad import gto, scf
import numpy as np

from scipy.optimize import minimize, Bounds

"""
Analytic nuclear gradient for RHF computed by auto-differentiation
"""


def He_energy(exponent):
    mol = gto.Mole()
    mol.atom    = 'He 0 0 0'  # in Angstrom

    mol.basis = {'He': pyscf.gto.basis.parse(f'''
    He   S
        {exponent[0]}              1.0
        {exponent[1]}              1.0
    ''')}
    mol.verbose = 5
    mol.build()

    mf = scf.RHF(mol)
    e = mf.kernel()

    return e

def grad_He_energy(exponent):
    mol = gto.Mole()
    mol.atom    = 'He 0 0 0'  # in Angstrom

    mol.basis = {'He': pyscf.gto.basis.parse(f'''
    He   S
        {exponent[0]}              1.0
        {exponent[1]}              1.0
    ''')}
    mol.verbose = 5
    mol.build()

    mf = scf.RHF(mol)
    mf.kernel()
    jac = mf.energy_grad()

    return jac.exp

x0 = [0.2432879285E+01, 0.4330512863E+00]
res = minimize(He_energy, x0, jac=grad_He_energy,
               bounds=Bounds(lb=1e-4),
               method='SLSQP', tol=1e-6)

print(res.x)
print(res.values())

# print("E", He_energy(71.6168370))

# print(f'Nuclaer gradient:\n{jac.coords}')
# print(f'Gradient wrt basis exponents:\n{jac.exp}')
# print(f'Gradient wrt basis contraction coefficients:\n{jac.ctr_coeff}')#INFO: ******************** input file end ********************


System: uname_result(system='Darwin', node='Deyans-MacBook-Pro-Home.local', release='22.1.0', version='Darwin Kernel Version 22.1.0: Sun Oct  9 20:14:54 PDT 2022; root:xnu-8792.41.9~2/RELEASE_X86_64', machine='x86_64', processor='i386')  Threads 1
Python 3.8.16 (default, Jan 17 2023, 16:42:09) 
[Clang 14.0.6 ]
numpy 1.24.2  scipy 1.10.1
Date: Fri Mar  3 21:43:34 2023
PySCF version 2.1.1
PySCF path  /Users/deyanmihaylov/opt/anaconda3/envs/pyscfad_env/lib/python3.8/site-packages/pyscf

[CONFIG] conf_file /Users/deyanmihaylov/.pyscf_conf.py
[INPUT] verbose = 5
[INPUT] max_memory = 4000 
[INPUT] num. atoms = 1
[INPUT] num. electrons = 2
[INPUT] charge = 0
[INPUT] spin (= nelec alpha-beta = 2S) = 0
[INPUT] symmetry False subgroup None
[INPUT] Mole.unit = angstrom
[INPUT] Symbol           X                Y                Z      unit          X                Y                Z       unit  Magmom
[INPUT]  1 He     0.000000000000   0.000000000000   0.000000000000 AA    0.000000000000   0.000000000000   0.000000000000 Bohr   0.0
[INPUT] ---------------- BASIS SET ---------------- 
[INPUT] l, kappa, [nprim/nctr], expnt,             c_1 c_2 ...
[INPUT] He
[INPUT] 0    0    [2    /1   ]  2.33126145011        1
                                0.286669330214       1

nuclear repulsion = 0
number of shells = 1
number of NR pGTOs = 2
number of NR cGTOs = 1
basis = {'He': [[0, [2.3312614501122546, 1.0], [0.286669330213999, 1.0]]]}
ecp = {}
CPU time:        10.17
Set gradient conv threshold to 3.16228e-05
cond(S) = 1.0
E1 = -3.6423933170518694  E_coul = 1.0523834558320588
init E= -2.59000986121981
    CPU time for initialize scf      0.02 sec, wall time      0.02 sec
  mo_energy =
[-0.77774332]
E1 = -3.6847013906423287  E_coul = 1.0769732779652756
cycle= 1 E= -2.60772811267705  delta_E= -0.0177  |g|=    0  |ddm|= 0.023
    CPU time for cycle= 1      0.01 sec, wall time      0.01 sec
  mo_energy =
[-0.76537742]
E1 = -3.6847013906423287  E_coul = 1.0769732779652756
cycle= 2 E= -2.60772811267705  delta_E=    0  |g|=    0  |ddm|=    0
    CPU time for cycle= 2      0.01 sec, wall time      0.01 sec
E1 = -3.6847013906423287  E_coul = 1.0769732779652756
  mo_energy =
[-0.76537742]
E1 = -3.6847013906423287  E_coul = 1.0769732779652756
Extra cycle  E= -2.60772811267705  delta_E=    0  |g|=    0  |ddm|=    0
    CPU time for scf_cycle      0.03 sec, wall time      0.04 sec
#INFO: **** input file is /Users/deyanmihaylov/Documents/Work/h5py_mpi_test/pyscfad_test.py ****
import pyscf
from pyscfad import gto, scf
import numpy as np

from scipy.optimize import minimize, Bounds

"""
Analytic nuclear gradient for RHF computed by auto-differentiation
"""


def He_energy(exponent):
    mol = gto.Mole()
    mol.atom    = 'He 0 0 0'  # in Angstrom

    mol.basis = {'He': pyscf.gto.basis.parse(f'''
    He   S
        {exponent[0]}              1.0
        {exponent[1]}              1.0
    ''')}
    mol.verbose = 5
    mol.build()

    mf = scf.RHF(mol)
    e = mf.kernel()

    return e

def grad_He_energy(exponent):
    mol = gto.Mole()
    mol.atom    = 'He 0 0 0'  # in Angstrom

    mol.basis = {'He': pyscf.gto.basis.parse(f'''
    He   S
        {exponent[0]}              1.0
        {exponent[1]}              1.0
    ''')}
    mol.verbose = 5
    mol.build()

    mf = scf.RHF(mol)
    mf.kernel()
    jac = mf.energy_grad()

    return jac.exp

x0 = [0.2432879285E+01, 0.4330512863E+00]
res = minimize(He_energy, x0, jac=grad_He_energy,
               bounds=Bounds(lb=1e-4),
               method='SLSQP', tol=1e-6)

print(res.x)
print(res.values())

# print("E", He_energy(71.6168370))

# print(f'Nuclaer gradient:\n{jac.coords}')
# print(f'Gradient wrt basis exponents:\n{jac.exp}')
# print(f'Gradient wrt basis contraction coefficients:\n{jac.ctr_coeff}')#INFO: ******************** input file end ********************


System: uname_result(system='Darwin', node='Deyans-MacBook-Pro-Home.local', release='22.1.0', version='Darwin Kernel Version 22.1.0: Sun Oct  9 20:14:54 PDT 2022; root:xnu-8792.41.9~2/RELEASE_X86_64', machine='x86_64', processor='i386')  Threads 1
Python 3.8.16 (default, Jan 17 2023, 16:42:09) 
[Clang 14.0.6 ]
numpy 1.24.2  scipy 1.10.1
Date: Fri Mar  3 21:43:34 2023
PySCF version 2.1.1
PySCF path  /Users/deyanmihaylov/opt/anaconda3/envs/pyscfad_env/lib/python3.8/site-packages/pyscf

[CONFIG] conf_file /Users/deyanmihaylov/.pyscf_conf.py
[INPUT] verbose = 5
[INPUT] max_memory = 4000 
[INPUT] num. atoms = 1
[INPUT] num. electrons = 2
[INPUT] charge = 0
[INPUT] spin (= nelec alpha-beta = 2S) = 0
[INPUT] symmetry False subgroup None
[INPUT] Mole.unit = angstrom
[INPUT] Symbol           X                Y                Z      unit          X                Y                Z       unit  Magmom
[INPUT]  1 He     0.000000000000   0.000000000000   0.000000000000 AA    0.000000000000   0.000000000000   0.000000000000 Bohr   0.0
[INPUT] ---------------- BASIS SET ---------------- 
[INPUT] l, kappa, [nprim/nctr], expnt,             c_1 c_2 ...
[INPUT] He
[INPUT] 0    0    [2    /1   ]  2.37175120694        1
                                0.31228085912        1

nuclear repulsion = 0
number of shells = 1
number of NR pGTOs = 2
number of NR cGTOs = 1
basis = {'He': [[0, [2.3717512069384776, 1.0], [0.3122808591202467, 1.0]]]}
ecp = {}
CPU time:        10.29
Set gradient conv threshold to 3.16228e-05
cond(S) = 1.0
E1 = -3.6704716464345153  E_coul = 1.078048938603782
init E= -2.59242270783073
    CPU time for initialize scf      0.02 sec, wall time      0.02 sec
  mo_energy =
[-0.76594828]
E1 = -3.7129426275547432  E_coul = 1.103141457488933
cycle= 1 E= -2.60980117006581  delta_E= -0.0174  |g|=    0  |ddm|= 0.0229
    CPU time for cycle= 1      0.01 sec, wall time      0.01 sec
  mo_energy =
[-0.75332986]
E1 = -3.7129426275547432  E_coul = 1.103141457488933
cycle= 2 E= -2.60980117006581  delta_E=    0  |g|=    0  |ddm|=    0
    CPU time for cycle= 2      0.01 sec, wall time      0.01 sec
E1 = -3.7129426275547432  E_coul = 1.103141457488933
  mo_energy =
[-0.75332986]
E1 = -3.7129426275547432  E_coul = 1.103141457488933
Extra cycle  E= -2.60980117006581  delta_E=    0  |g|=    0  |ddm|=    0
    CPU time for scf_cycle      0.04 sec, wall time      0.04 sec
#INFO: **** input file is /Users/deyanmihaylov/Documents/Work/h5py_mpi_test/pyscfad_test.py ****
import pyscf
from pyscfad import gto, scf
import numpy as np

from scipy.optimize import minimize, Bounds

"""
Analytic nuclear gradient for RHF computed by auto-differentiation
"""


def He_energy(exponent):
    mol = gto.Mole()
    mol.atom    = 'He 0 0 0'  # in Angstrom

    mol.basis = {'He': pyscf.gto.basis.parse(f'''
    He   S
        {exponent[0]}              1.0
        {exponent[1]}              1.0
    ''')}
    mol.verbose = 5
    mol.build()

    mf = scf.RHF(mol)
    e = mf.kernel()

    return e

def grad_He_energy(exponent):
    mol = gto.Mole()
    mol.atom    = 'He 0 0 0'  # in Angstrom

    mol.basis = {'He': pyscf.gto.basis.parse(f'''
    He   S
        {exponent[0]}              1.0
        {exponent[1]}              1.0
    ''')}
    mol.verbose = 5
    mol.build()

    mf = scf.RHF(mol)
    mf.kernel()
    jac = mf.energy_grad()

    return jac.exp

x0 = [0.2432879285E+01, 0.4330512863E+00]
res = minimize(He_energy, x0, jac=grad_He_energy,
               bounds=Bounds(lb=1e-4),
               method='SLSQP', tol=1e-6)

print(res.x)
print(res.values())

# print("E", He_energy(71.6168370))

# print(f'Nuclaer gradient:\n{jac.coords}')
# print(f'Gradient wrt basis exponents:\n{jac.exp}')
# print(f'Gradient wrt basis contraction coefficients:\n{jac.ctr_coeff}')#INFO: ******************** input file end ********************


System: uname_result(system='Darwin', node='Deyans-MacBook-Pro-Home.local', release='22.1.0', version='Darwin Kernel Version 22.1.0: Sun Oct  9 20:14:54 PDT 2022; root:xnu-8792.41.9~2/RELEASE_X86_64', machine='x86_64', processor='i386')  Threads 1
Python 3.8.16 (default, Jan 17 2023, 16:42:09) 
[Clang 14.0.6 ]
numpy 1.24.2  scipy 1.10.1
Date: Fri Mar  3 21:43:34 2023
PySCF version 2.1.1
PySCF path  /Users/deyanmihaylov/opt/anaconda3/envs/pyscfad_env/lib/python3.8/site-packages/pyscf

[CONFIG] conf_file /Users/deyanmihaylov/.pyscf_conf.py
[INPUT] verbose = 5
[INPUT] max_memory = 4000 
[INPUT] num. atoms = 1
[INPUT] num. electrons = 2
[INPUT] charge = 0
[INPUT] spin (= nelec alpha-beta = 2S) = 0
[INPUT] symmetry False subgroup None
[INPUT] Mole.unit = angstrom
[INPUT] Symbol           X                Y                Z      unit          X                Y                Z       unit  Magmom
[INPUT]  1 He     0.000000000000   0.000000000000   0.000000000000 AA    0.000000000000   0.000000000000   0.000000000000 Bohr   0.0
[INPUT] ---------------- BASIS SET ---------------- 
[INPUT] l, kappa, [nprim/nctr], expnt,             c_1 c_2 ...
[INPUT] He
[INPUT] 0    0    [2    /1   ]  2.37175120694        1
                                0.31228085912        1

nuclear repulsion = 0
number of shells = 1
number of NR pGTOs = 2
number of NR cGTOs = 1
basis = {'He': [[0, [2.3717512069384776, 1.0], [0.3122808591202467, 1.0]]]}
ecp = {}
CPU time:        10.40
Set gradient conv threshold to 3.16228e-05
cond(S) = 1.0
E1 = -3.6704716464345153  E_coul = 1.078048938603782
init E= -2.59242270783073
    CPU time for initialize scf      0.02 sec, wall time      0.02 sec
  mo_energy =
[-0.76594828]
E1 = -3.7129426275547432  E_coul = 1.103141457488933
cycle= 1 E= -2.60980117006581  delta_E= -0.0174  |g|=    0  |ddm|= 0.0229
    CPU time for cycle= 1      0.01 sec, wall time      0.01 sec
  mo_energy =
[-0.75332986]
E1 = -3.7129426275547432  E_coul = 1.103141457488933
cycle= 2 E= -2.60980117006581  delta_E=    0  |g|=    0  |ddm|=    0
[...]
    CPU time for cycle= 1      0.01 sec, wall time      0.01 sec
  mo_energy =
[-0.825956]
E1 = -3.6376914626809023  E_coul = 0.9928897324672398
cycle= 2 E= -2.64480173021366  delta_E=    0  |g|=    0  |ddm|=    0
    CPU time for cycle= 2      0.01 sec, wall time      0.01 sec
E1 = -3.6376914626809023  E_coul = 0.9928897324672398
  mo_energy =
[-0.825956]
E1 = -3.6376914626809023  E_coul = 0.9928897324672398
Extra cycle  E= -2.64480173021366  delta_E=    0  |g|=    0  |ddm|=    0
    CPU time for scf_cycle      0.04 sec, wall time      0.04 sec
#INFO: **** input file is /Users/deyanmihaylov/Documents/Work/h5py_mpi_test/pyscfad_test.py ****
import pyscf
from pyscfad import gto, scf
import numpy as np

from scipy.optimize import minimize, Bounds

"""
Analytic nuclear gradient for RHF computed by auto-differentiation
"""


def He_energy(exponent):
    mol = gto.Mole()
    mol.atom    = 'He 0 0 0'  # in Angstrom

    mol.basis = {'He': pyscf.gto.basis.parse(f'''
    He   S
        {exponent[0]}              1.0
        {exponent[1]}              1.0
    ''')}
    mol.verbose = 5
    mol.build()

    mf = scf.RHF(mol)
    e = mf.kernel()

    return e

def grad_He_energy(exponent):
    mol = gto.Mole()
    mol.atom    = 'He 0 0 0'  # in Angstrom

    mol.basis = {'He': pyscf.gto.basis.parse(f'''
    He   S
        {exponent[0]}              1.0
        {exponent[1]}              1.0
    ''')}
    mol.verbose = 5
    mol.build()

    mf = scf.RHF(mol)
    mf.kernel()
    jac = mf.energy_grad()

    return jac.exp

x0 = [0.2432879285E+01, 0.4330512863E+00]
res = minimize(He_energy, x0, jac=grad_He_energy,
               bounds=Bounds(lb=1e-4),
               method='SLSQP', tol=1e-6)

print(res.x)
print(res.values())

# print("E", He_energy(71.6168370))

# print(f'Nuclaer gradient:\n{jac.coords}')
# print(f'Gradient wrt basis exponents:\n{jac.exp}')
# print(f'Gradient wrt basis contraction coefficients:\n{jac.ctr_coeff}')#INFO: ******************** input file end ********************


System: uname_result(system='Darwin', node='Deyans-MacBook-Pro-Home.local', release='22.1.0', version='Darwin Kernel Version 22.1.0: Sun Oct  9 20:14:54 PDT 2022; root:xnu-8792.41.9~2/RELEASE_X86_64', machine='x86_64', processor='i386')  Threads 1
Python 3.8.16 (default, Jan 17 2023, 16:42:09) 
[Clang 14.0.6 ]
numpy 1.24.2  scipy 1.10.1
Date: Fri Mar  3 21:43:51 2023
PySCF version 2.1.1
PySCF path  /Users/deyanmihaylov/opt/anaconda3/envs/pyscfad_env/lib/python3.8/site-packages/pyscf

[CONFIG] conf_file /Users/deyanmihaylov/.pyscf_conf.py
[INPUT] verbose = 5
[INPUT] max_memory = 4000 
[INPUT] num. atoms = 1
[INPUT] num. electrons = 2
[INPUT] charge = 0
[INPUT] spin (= nelec alpha-beta = 2S) = 0
[INPUT] symmetry False subgroup None
[INPUT] Mole.unit = angstrom
[INPUT] Symbol           X                Y                Z      unit          X                Y                Z       unit  Magmom
[INPUT]  1 He     0.000000000000   0.000000000000   0.000000000000 AA    0.000000000000   0.000000000000   0.000000000000 Bohr   0.0
[INPUT] ---------------- BASIS SET ---------------- 
[INPUT] l, kappa, [nprim/nctr], expnt,             c_1 c_2 ...
[INPUT] He
[INPUT] 0    0    [2    /1   ]  1.86039981768        1
                                0.263211500259       1

nuclear repulsion = 0
number of shells = 1
number of NR pGTOs = 2
number of NR cGTOs = 1
basis = {'He': [[0, [1.8603998176809606, 1.0], [0.2632115002585492, 1.0]]]}
ecp = {}
CPU time:        26.61
Set gradient conv threshold to 3.16228e-05
cond(S) = 1.0
E1 = -3.606922315475066  E_coul = 0.9761616649016827
init E= -2.63076065057338
    CPU time for initialize scf      0.02 sec, wall time      0.02 sec
  mo_energy =
[-0.83435616]
E1 = -3.637688517296593  E_coul = 0.9928855477416051
cycle= 1 E= -2.64480296955499  delta_E= -0.014  |g|=    0  |ddm|= 0.0169
    CPU time for cycle= 1      0.01 sec, wall time      0.01 sec
  mo_energy =
[-0.82595871]
E1 = -3.637688517296593  E_coul = 0.9928855477416051
cycle= 2 E= -2.64480296955499  delta_E=    0  |g|=    0  |ddm|=    0
    CPU time for cycle= 2      0.01 sec, wall time      0.01 sec
E1 = -3.637688517296593  E_coul = 0.9928855477416051
  mo_energy =
[-0.82595871]
E1 = -3.637688517296593  E_coul = 0.9928855477416051
Extra cycle  E= -2.64480296955499  delta_E=    0  |g|=    0  |ddm|=    0
    CPU time for scf_cycle      0.04 sec, wall time      0.04 sec
#INFO: **** input file is /Users/deyanmihaylov/Documents/Work/h5py_mpi_test/pyscfad_test.py ****
import pyscf
from pyscfad import gto, scf
import numpy as np

from scipy.optimize import minimize, Bounds

"""
Analytic nuclear gradient for RHF computed by auto-differentiation
"""


def He_energy(exponent):
    mol = gto.Mole()
    mol.atom    = 'He 0 0 0'  # in Angstrom

    mol.basis = {'He': pyscf.gto.basis.parse(f'''
    He   S
        {exponent[0]}              1.0
        {exponent[1]}              1.0
    ''')}
    mol.verbose = 5
    mol.build()

    mf = scf.RHF(mol)
    e = mf.kernel()

    return e

def grad_He_energy(exponent):
    mol = gto.Mole()
    mol.atom    = 'He 0 0 0'  # in Angstrom

    mol.basis = {'He': pyscf.gto.basis.parse(f'''
    He   S
        {exponent[0]}              1.0
        {exponent[1]}              1.0
    ''')}
    mol.verbose = 5
    mol.build()

    mf = scf.RHF(mol)
    mf.kernel()
    jac = mf.energy_grad()

    return jac.exp

x0 = [0.2432879285E+01, 0.4330512863E+00]
res = minimize(He_energy, x0, jac=grad_He_energy,
               bounds=Bounds(lb=1e-4),
               method='SLSQP', tol=1e-6)

print(res.x)
print(res.values())

# print("E", He_energy(71.6168370))

# print(f'Nuclaer gradient:\n{jac.coords}')
# print(f'Gradient wrt basis exponents:\n{jac.exp}')
# print(f'Gradient wrt basis contraction coefficients:\n{jac.ctr_coeff}')#INFO: ******************** input file end ********************


System: uname_result(system='Darwin', node='Deyans-MacBook-Pro-Home.local', release='22.1.0', version='Darwin Kernel Version 22.1.0: Sun Oct  9 20:14:54 PDT 2022; root:xnu-8792.41.9~2/RELEASE_X86_64', machine='x86_64', processor='i386')  Threads 1
Python 3.8.16 (default, Jan 17 2023, 16:42:09) 
[Clang 14.0.6 ]
numpy 1.24.2  scipy 1.10.1
Date: Fri Mar  3 21:43:51 2023
PySCF version 2.1.1
PySCF path  /Users/deyanmihaylov/opt/anaconda3/envs/pyscfad_env/lib/python3.8/site-packages/pyscf

[CONFIG] conf_file /Users/deyanmihaylov/.pyscf_conf.py
[INPUT] verbose = 5
[INPUT] max_memory = 4000 
[INPUT] num. atoms = 1
[INPUT] num. electrons = 2
[INPUT] charge = 0
[INPUT] spin (= nelec alpha-beta = 2S) = 0
[INPUT] symmetry False subgroup None
[INPUT] Mole.unit = angstrom
[INPUT] Symbol           X                Y                Z      unit          X                Y                Z       unit  Magmom
[INPUT]  1 He     0.000000000000   0.000000000000   0.000000000000 AA    0.000000000000   0.000000000000   0.000000000000 Bohr   0.0
[INPUT] ---------------- BASIS SET ---------------- 
[INPUT] l, kappa, [nprim/nctr], expnt,             c_1 c_2 ...
[INPUT] He
[INPUT] 0    0    [2    /1   ]  1.86039010236        1
                                0.263211928061       1

nuclear repulsion = 0
number of shells = 1
number of NR pGTOs = 2
number of NR cGTOs = 1
basis = {'He': [[0, [1.8603901023600011, 1.0], [0.2632119280610845, 1.0]]]}
ecp = {}
CPU time:        26.85
Set gradient conv threshold to 3.16228e-05
cond(S) = 1.0
E1 = -3.6069217961219824  E_coul = 0.9761607347077543
init E= -2.63076106141423
    CPU time for initialize scf      0.02 sec, wall time      0.02 sec
  mo_energy =
[-0.83435679]
E1 = -3.637687762485958  E_coul = 0.9928844754962054
cycle= 1 E= -2.64480328698975  delta_E= -0.014  |g|=    0  |ddm|= 0.0169
    CPU time for cycle= 1      0.01 sec, wall time      0.01 sec
  mo_energy =
[-0.82595941]
E1 = -3.637687762485958  E_coul = 0.9928844754962054
cycle= 2 E= -2.64480328698975  delta_E=    0  |g|=    0  |ddm|=    0
    CPU time for cycle= 2      0.01 sec, wall time      0.01 sec
E1 = -3.637687762485958  E_coul = 0.9928844754962054
  mo_energy =
[-0.82595941]
E1 = -3.637687762485958  E_coul = 0.9928844754962054
Extra cycle  E= -2.64480328698975  delta_E=    0  |g|=    0  |ddm|=    0
    CPU time for scf_cycle      0.04 sec, wall time      0.04 sec
#INFO: **** input file is /Users/deyanmihaylov/Documents/Work/h5py_mpi_test/pyscfad_test.py ****
import pyscf
from pyscfad import gto, scf
import numpy as np

from scipy.optimize import minimize, Bounds

"""
Analytic nuclear gradient for RHF computed by auto-differentiation
"""


def He_energy(exponent):
    mol = gto.Mole()
    mol.atom    = 'He 0 0 0'  # in Angstrom

    mol.basis = {'He': pyscf.gto.basis.parse(f'''
    He   S
        {exponent[0]}              1.0
        {exponent[1]}              1.0
    ''')}
    mol.verbose = 5
    mol.build()

    mf = scf.RHF(mol)
    e = mf.kernel()

    return e

def grad_He_energy(exponent):
    mol = gto.Mole()
    mol.atom    = 'He 0 0 0'  # in Angstrom

    mol.basis = {'He': pyscf.gto.basis.parse(f'''
    He   S
        {exponent[0]}              1.0
        {exponent[1]}              1.0
    ''')}
    mol.verbose = 5
    mol.build()

    mf = scf.RHF(mol)
    mf.kernel()
    jac = mf.energy_grad()

    return jac.exp

x0 = [0.2432879285E+01, 0.4330512863E+00]
res = minimize(He_energy, x0, jac=grad_He_energy,
               bounds=Bounds(lb=1e-4),
               method='SLSQP', tol=1e-6)

print(res.x)
print(res.values())

# print("E", He_energy(71.6168370))

# print(f'Nuclaer gradient:\n{jac.coords}')
# print(f'Gradient wrt basis exponents:\n{jac.exp}')
# print(f'Gradient wrt basis contraction coefficients:\n{jac.ctr_coeff}')#INFO: ******************** input file end ********************


System: uname_result(system='Darwin', node='Deyans-MacBook-Pro-Home.local', release='22.1.0', version='Darwin Kernel Version 22.1.0: Sun Oct  9 20:14:54 PDT 2022; root:xnu-8792.41.9~2/RELEASE_X86_64', machine='x86_64', processor='i386')  Threads 1
Python 3.8.16 (default, Jan 17 2023, 16:42:09) 
[Clang 14.0.6 ]
numpy 1.24.2  scipy 1.10.1
Date: Fri Mar  3 21:43:51 2023
PySCF version 2.1.1
PySCF path  /Users/deyanmihaylov/opt/anaconda3/envs/pyscfad_env/lib/python3.8/site-packages/pyscf

[CONFIG] conf_file /Users/deyanmihaylov/.pyscf_conf.py
[INPUT] verbose = 5
[INPUT] max_memory = 4000 
[INPUT] num. atoms = 1
[INPUT] num. electrons = 2
[INPUT] charge = 0
[INPUT] spin (= nelec alpha-beta = 2S) = 0
[INPUT] symmetry False subgroup None
[INPUT] Mole.unit = angstrom
[INPUT] Symbol           X                Y                Z      unit          X                Y                Z       unit  Magmom
[INPUT]  1 He     0.000000000000   0.000000000000   0.000000000000 AA    0.000000000000   0.000000000000   0.000000000000 Bohr   0.0
[INPUT] ---------------- BASIS SET ---------------- 
[INPUT] l, kappa, [nprim/nctr], expnt,             c_1 c_2 ...
[INPUT] He
[INPUT] 0    0    [2    /1   ]  1.86038761263        1
                                0.263212037694       1

nuclear repulsion = 0
number of shells = 1
number of NR pGTOs = 2
number of NR cGTOs = 1
basis = {'He': [[0, [1.8603876126267054, 1.0], [0.26321203769351154, 1.0]]]}
ecp = {}
CPU time:        27.09
Set gradient conv threshold to 3.16228e-05
cond(S) = 1.0
E1 = -3.6069216630157177  E_coul = 0.9761604963248891
init E= -2.63076116669083
    CPU time for initialize scf      0.02 sec, wall time      0.02 sec
  mo_energy =
[-0.83435695]
E1 = -3.6376875690428454  E_coul = 0.9928842007119689
cycle= 1 E= -2.64480336833088  delta_E= -0.014  |g|=    0  |ddm|= 0.0169
    CPU time for cycle= 1      0.01 sec, wall time      0.01 sec
  mo_energy =
[-0.82595958]
E1 = -3.6376875690428454  E_coul = 0.9928842007119689
cycle= 2 E= -2.64480336833088  delta_E=    0  |g|=    0  |ddm|=    0
    CPU time for cycle= 2      0.01 sec, wall time      0.01 sec
E1 = -3.6376875690428454  E_coul = 0.9928842007119689
  mo_energy =
[-0.82595958]
E1 = -3.6376875690428454  E_coul = 0.9928842007119689
Extra cycle  E= -2.64480336833088  delta_E=    0  |g|=    0  |ddm|=    0
    CPU time for scf_cycle      0.04 sec, wall time      0.04 sec
#INFO: **** input file is /Users/deyanmihaylov/Documents/Work/h5py_mpi_test/pyscfad_test.py ****
import pyscf
from pyscfad import gto, scf
import numpy as np

from scipy.optimize import minimize, Bounds

"""
Analytic nuclear gradient for RHF computed by auto-differentiation
"""


def He_energy(exponent):
    mol = gto.Mole()
    mol.atom    = 'He 0 0 0'  # in Angstrom

    mol.basis = {'He': pyscf.gto.basis.parse(f'''
    He   S
        {exponent[0]}              1.0
        {exponent[1]}              1.0
    ''')}
    mol.verbose = 5
    mol.build()

    mf = scf.RHF(mol)
    e = mf.kernel()

    return e

def grad_He_energy(exponent):
    mol = gto.Mole()
    mol.atom    = 'He 0 0 0'  # in Angstrom

    mol.basis = {'He': pyscf.gto.basis.parse(f'''
    He   S
        {exponent[0]}              1.0
        {exponent[1]}              1.0
    ''')}
    mol.verbose = 5
    mol.build()

    mf = scf.RHF(mol)
    mf.kernel()
    jac = mf.energy_grad()

    return jac.exp

x0 = [0.2432879285E+01, 0.4330512863E+00]
res = minimize(He_energy, x0, jac=grad_He_energy,
               bounds=Bounds(lb=1e-4),
               method='SLSQP', tol=1e-6)

print(res.x)
print(res.values())

# print("E", He_energy(71.6168370))

# print(f'Nuclaer gradient:\n{jac.coords}')
# print(f'Gradient wrt basis exponents:\n{jac.exp}')
# print(f'Gradient wrt basis contraction coefficients:\n{jac.ctr_coeff}')#INFO: ******************** input file end ********************


System: uname_result(system='Darwin', node='Deyans-MacBook-Pro-Home.local', release='22.1.0', version='Darwin Kernel Version 22.1.0: Sun Oct  9 20:14:54 PDT 2022; root:xnu-8792.41.9~2/RELEASE_X86_64', machine='x86_64', processor='i386')  Threads 1
Python 3.8.16 (default, Jan 17 2023, 16:42:09) 
[Clang 14.0.6 ]
numpy 1.24.2  scipy 1.10.1
Date: Fri Mar  3 21:43:51 2023
PySCF version 2.1.1
PySCF path  /Users/deyanmihaylov/opt/anaconda3/envs/pyscfad_env/lib/python3.8/site-packages/pyscf

[CONFIG] conf_file /Users/deyanmihaylov/.pyscf_conf.py
[INPUT] verbose = 5
[INPUT] max_memory = 4000 
[INPUT] num. atoms = 1
[INPUT] num. electrons = 2
[INPUT] charge = 0
[INPUT] spin (= nelec alpha-beta = 2S) = 0
[INPUT] symmetry False subgroup None
[INPUT] Mole.unit = angstrom
[INPUT] Symbol           X                Y                Z      unit          X                Y                Z       unit  Magmom
[INPUT]  1 He     0.000000000000   0.000000000000   0.000000000000 AA    0.000000000000   0.000000000000   0.000000000000 Bohr   0.0
[INPUT] ---------------- BASIS SET ---------------- 
[INPUT] l, kappa, [nprim/nctr], expnt,             c_1 c_2 ...
[INPUT] He
[INPUT] 0    0    [2    /1   ]  1.86038697456        1
                                0.26321206579        1

nuclear repulsion = 0
number of shells = 1
number of NR pGTOs = 2
number of NR cGTOs = 1
basis = {'He': [[0, [1.8603869745571893, 1.0], [0.26321206579013934, 1.0]]]}
ecp = {}
CPU time:        27.31
Set gradient conv threshold to 3.16228e-05
cond(S) = 1.0
E1 = -3.606921628902402  E_coul = 0.9761604352318537
init E= -2.63076119367055
    CPU time for initialize scf      0.02 sec, wall time      0.02 sec
  mo_energy =
[-0.83435699]
E1 = -3.637687519466621  E_coul = 0.9928841302901109
cycle= 1 E= -2.64480338917651  delta_E= -0.014  |g|=    0  |ddm|= 0.0169
    CPU time for cycle= 1      0.01 sec, wall time      0.01 sec
  mo_energy =
[-0.82595963]
E1 = -3.637687519466621  E_coul = 0.9928841302901109
cycle= 2 E= -2.64480338917651  delta_E=    0  |g|=    0  |ddm|=    0
    CPU time for cycle= 2      0.01 sec, wall time      0.01 sec
E1 = -3.637687519466621  E_coul = 0.9928841302901109
  mo_energy =
[-0.82595963]
E1 = -3.637687519466621  E_coul = 0.9928841302901109
Extra cycle  E= -2.64480338917651  delta_E=    0  |g|=    0  |ddm|=    0
    CPU time for scf_cycle      0.04 sec, wall time      0.04 sec
#INFO: **** input file is /Users/deyanmihaylov/Documents/Work/h5py_mpi_test/pyscfad_test.py ****
import pyscf
from pyscfad import gto, scf
import numpy as np

from scipy.optimize import minimize, Bounds

"""
Analytic nuclear gradient for RHF computed by auto-differentiation
"""


def He_energy(exponent):
    mol = gto.Mole()
    mol.atom    = 'He 0 0 0'  # in Angstrom

    mol.basis = {'He': pyscf.gto.basis.parse(f'''
    He   S
        {exponent[0]}              1.0
        {exponent[1]}              1.0
    ''')}
    mol.verbose = 5
    mol.build()

    mf = scf.RHF(mol)
    e = mf.kernel()

    return e

def grad_He_energy(exponent):
    mol = gto.Mole()
    mol.atom    = 'He 0 0 0'  # in Angstrom

    mol.basis = {'He': pyscf.gto.basis.parse(f'''
    He   S
        {exponent[0]}              1.0
        {exponent[1]}              1.0
    ''')}
    mol.verbose = 5
    mol.build()

    mf = scf.RHF(mol)
    mf.kernel()
    jac = mf.energy_grad()

    return jac.exp

x0 = [0.2432879285E+01, 0.4330512863E+00]
res = minimize(He_energy, x0, jac=grad_He_energy,
               bounds=Bounds(lb=1e-4),
               method='SLSQP', tol=1e-6)

print(res.x)
print(res.values())

# print("E", He_energy(71.6168370))

# print(f'Nuclaer gradient:\n{jac.coords}')
# print(f'Gradient wrt basis exponents:\n{jac.exp}')
# print(f'Gradient wrt basis contraction coefficients:\n{jac.ctr_coeff}')#INFO: ******************** input file end ********************


System: uname_result(system='Darwin', node='Deyans-MacBook-Pro-Home.local', release='22.1.0', version='Darwin Kernel Version 22.1.0: Sun Oct  9 20:14:54 PDT 2022; root:xnu-8792.41.9~2/RELEASE_X86_64', machine='x86_64', processor='i386')  Threads 1
Python 3.8.16 (default, Jan 17 2023, 16:42:09) 
[Clang 14.0.6 ]
numpy 1.24.2  scipy 1.10.1
Date: Fri Mar  3 21:43:52 2023
PySCF version 2.1.1
PySCF path  /Users/deyanmihaylov/opt/anaconda3/envs/pyscfad_env/lib/python3.8/site-packages/pyscf

[CONFIG] conf_file /Users/deyanmihaylov/.pyscf_conf.py
[INPUT] verbose = 5
[INPUT] max_memory = 4000 
[INPUT] num. atoms = 1
[INPUT] num. electrons = 2
[INPUT] charge = 0
[INPUT] spin (= nelec alpha-beta = 2S) = 0
[INPUT] symmetry False subgroup None
[INPUT] Mole.unit = angstrom
[INPUT] Symbol           X                Y                Z      unit          X                Y                Z       unit  Magmom
[INPUT]  1 He     0.000000000000   0.000000000000   0.000000000000 AA    0.000000000000   0.000000000000   0.000000000000 Bohr   0.0
[INPUT] ---------------- BASIS SET ---------------- 
[INPUT] l, kappa, [nprim/nctr], expnt,             c_1 c_2 ...
[INPUT] He
[INPUT] 0    0    [2    /1   ]  1.86038681103        1
                                0.263212072991       1

nuclear repulsion = 0
number of shells = 1
number of NR pGTOs = 2
number of NR cGTOs = 1
basis = {'He': [[0, [1.8603868110306838, 1.0], [0.2632120729908334, 1.0]]]}
ecp = {}
CPU time:        27.54
Set gradient conv threshold to 3.16228e-05
cond(S) = 1.0
E1 = -3.6069216201596745  E_coul = 0.9761604195747179
init E= -2.63076120058496
    CPU time for initialize scf      0.02 sec, wall time      0.02 sec
  mo_energy =
[-0.834357]
E1 = -3.6376875067610275  E_coul = 0.9928841122421647
cycle= 1 E= -2.64480339451886  delta_E= -0.014  |g|=    0  |ddm|= 0.0169
    CPU time for cycle= 1      0.01 sec, wall time      0.01 sec
  mo_energy =
[-0.82595964]
E1 = -3.6376875067610275  E_coul = 0.9928841122421647
cycle= 2 E= -2.64480339451886  delta_E=    0  |g|=    0  |ddm|=    0
    CPU time for cycle= 2      0.01 sec, wall time      0.01 sec
E1 = -3.6376875067610275  E_coul = 0.9928841122421647
  mo_energy =
[-0.82595964]
E1 = -3.6376875067610275  E_coul = 0.9928841122421647
Extra cycle  E= -2.64480339451886  delta_E=    0  |g|=    0  |ddm|=    0
    CPU time for scf_cycle      0.04 sec, wall time      0.04 sec
[1.86038681 0.26321207]
dict_values([array([1.86038681, 0.26321207]), -2.644803394518863, array([-0.0317776 ,  0.05851764]), 12, 41, 12, 0, 'Optimization terminated successfully', True])
