#INFO: **** input file is /Users/deyanmihaylov/Documents/Work/pyscf_basis_opt/pyscfad_test.py ****
import pyscf
from pyscfad import gto, scf
import numpy as np

from scipy import optimize

# basis_string = '\n'.join([f'''
#     He  S
#         {x}              1.0'''
#         for x in exponent])

def He_energy(exponent):
    mol = gto.Mole()
    mol.atom = 'He 0 0 0'  # in Angstrom

    basis_string = '\n'.join([f'''
    He  S
        {x}              1.0'''
        for x in exponent])
    mol.basis = {'He': pyscf.gto.basis.parse(basis_string)}

    mol.verbose = 5
    mol.build()

    mf = scf.RHF(mol)
    e = mf.kernel()

    print(f"exp = {exponent}")
    print(f"E = {e}")

    return e

def grad_He_energy(exponent):
    mol = gto.Mole()
    mol.atom = 'He 0 0 0'  # in Angstrom

    basis_string = '\n'.join([f'''
    He  S
        {x}              1.0'''
        for x in exponent])
    mol.basis = {'He': pyscf.gto.basis.parse(basis_string)}
    
    mol.verbose = 5
    mol.build()

    mf = scf.RHF(mol)
    mf.kernel()
    jac = mf.energy_grad()

    print(f"exp = {exponent}")
    print(f"grad_E = {jac.exp}")

    grad_E = np.array(jac.exp)

    return grad_E

def minimize_energy(n):
    x0 = [0.5 * (n-i) for i in range(n)]
    bnds = ((1e-6, None) for _ in range(n))

    res = optimize.minimize(
        He_energy,
        x0,
        args=(),
        method="SLSQP",
        jac=grad_He_energy,
        hess=None,
        hessp=None,
        bounds=bnds,
        tol=1e-8,
        callback=None,
        # options={"xtol": 1e-8, "ftol": 1e-8},
    )
    print(res)

minimize_energy(5)

#INFO: ******************** input file end ********************


System: uname_result(system='Darwin', node='Deyans-MacBook-Pro-Home.local', release='22.1.0', version='Darwin Kernel Version 22.1.0: Sun Oct  9 20:14:54 PDT 2022; root:xnu-8792.41.9~2/RELEASE_X86_64', machine='x86_64', processor='i386')  Threads 1
Python 3.8.16 (default, Mar  1 2023, 21:19:10) 
[Clang 14.0.6 ]
numpy 1.24.2  scipy 1.10.1
Date: Mon Mar  6 15:16:50 2023
PySCF version 2.1.1
PySCF path  /Users/deyanmihaylov/opt/anaconda3/envs/pyscfad_env/lib/python3.8/site-packages/pyscf

[CONFIG] conf_file /Users/deyanmihaylov/.pyscf_conf.py
[INPUT] verbose = 5
[INPUT] max_memory = 4000 
[INPUT] num. atoms = 1
[INPUT] num. electrons = 2
[INPUT] charge = 0
[INPUT] spin (= nelec alpha-beta = 2S) = 0
[INPUT] symmetry False subgroup None
[INPUT] Mole.unit = angstrom
[INPUT] Symbol           X                Y                Z      unit          X                Y                Z       unit  Magmom
[INPUT]  1 He     0.000000000000   0.000000000000   0.000000000000 AA    0.000000000000   0.000000000000   0.000000000000 Bohr   0.0
[INPUT] ---------------- BASIS SET ---------------- 
[INPUT] l, kappa, [nprim/nctr], expnt,             c_1 c_2 ...
[INPUT] He
[INPUT] 0    0    [1    /1   ]  2.5                  1
[INPUT] 0    0    [1    /1   ]  2                    1
[INPUT] 0    0    [1    /1   ]  1.5                  1
[INPUT] 0    0    [1    /1   ]  1                    1
[INPUT] 0    0    [1    /1   ]  0.5                  1

nuclear repulsion = 0
number of shells = 5
number of NR pGTOs = 5
number of NR cGTOs = 5
basis = {'He': [[0, [2.5, 1.0]], [0, [2.0, 1.0]], [0, [1.5, 1.0]], [0, [1.0, 1.0]], [0, [0.5, 1.0]]]}
ecp = {}
CPU time:         1.35
Set gradient conv threshold to 3.16228e-05
cond(S) = 378590.17957338446
E1 = -3.7746062585721467  E_coul = 1.0189813309456763
init E= -2.75562492762647
    CPU time for initialize scf      0.11 sec, wall time      0.11 sec
  HOMO = -0.876344617365818  LUMO = 1.12456103053976
  mo_energy =
[-0.87634462  1.12456103  3.68270862  8.74245069 16.19041383]
E1 = -3.7886643582534636  E_coul = 1.0163544137295824
cycle= 1 E= -2.77230994452388  delta_E= -0.0167  |g|= 0.0266  |ddm|=  352
    CPU time for cycle= 1      0.25 sec, wall time      0.25 sec
  HOMO = -0.87800579394393  LUMO = 1.12913231194683
  mo_energy =
[-0.87800579  1.12913231  3.68663323  8.74532471 16.18681823]
E1 = -3.788171299581449  E_coul = 1.01579957874051
cycle= 2 E= -2.77237172084094  delta_E= -6.18e-05  |g|= 0.0024  |ddm|= 21.4
    CPU time for cycle= 2      0.07 sec, wall time      0.07 sec
  HOMO = -0.878311728358986  LUMO = 1.12920321191474
  mo_energy =
[-0.87831173  1.12920321  3.68661838  8.74520516 16.18609351]
E1 = -3.788248464501732  E_coul = 1.0158759638364994
cycle= 3 E= -2.77237250066523  delta_E= -7.8e-07  |g|= 0.000129  |ddm|=  2.1
    CPU time for cycle= 3      0.01 sec, wall time      0.01 sec
  HOMO = -0.878236208109043  LUMO = 1.12923729378648
  mo_energy =
[-0.87823621  1.12923729  3.68669304  8.74531173 16.18624591]
E1 = -3.788269006318214  E_coul = 1.0158965024928368
cycle= 4 E= -2.77237250382538  delta_E= -3.16e-09  |g|= 5.57e-06  |ddm|= 0.0748
    CPU time for cycle= 4      0.01 sec, wall time      0.01 sec
  HOMO = -0.878238195383851  LUMO = 1.12923643912992
  mo_energy =
[-0.8782382   1.12923644  3.68669137  8.74530932 16.18624189]
E1 = -3.788268614058139  E_coul = 1.0158961102218238
cycle= 5 E= -2.77237250383632  delta_E= -1.09e-11  |g|= 2.65e-08  |ddm|= 0.000525
    CPU time for cycle= 5      0.01 sec, wall time      0.01 sec
E1 = -3.788268614058139  E_coul = 1.0158961102218238
  HOMO = -0.878238196807231  LUMO = 1.1292364357019
  mo_energy =
[-0.8782382   1.12923644  3.68669136  8.74530931 16.18624187]
E1 = -3.78826861301109  E_coul = 1.015896109180421
Extra cycle  E= -2.77237250383067  delta_E= 5.65e-12  |g|= 2.29e-09  |ddm|= 2.56e-05
    CPU time for scf_cycle      0.46 sec, wall time      0.47 sec
exp = [2.5 2.  1.5 1.  0.5]
E = -2.7723725038306686
#INFO: **** input file is /Users/deyanmihaylov/Documents/Work/pyscf_basis_opt/pyscfad_test.py ****
import pyscf
from pyscfad import gto, scf
import numpy as np

from scipy import optimize

# basis_string = '\n'.join([f'''
#     He  S
#         {x}              1.0'''
#         for x in exponent])

def He_energy(exponent):
    mol = gto.Mole()
    mol.atom = 'He 0 0 0'  # in Angstrom

    basis_string = '\n'.join([f'''
    He  S
        {x}              1.0'''
        for x in exponent])
    mol.basis = {'He': pyscf.gto.basis.parse(basis_string)}

    mol.verbose = 5
    mol.build()

    mf = scf.RHF(mol)
    e = mf.kernel()

    print(f"exp = {exponent}")
    print(f"E = {e}")

    return e

def grad_He_energy(exponent):
    mol = gto.Mole()
    mol.atom = 'He 0 0 0'  # in Angstrom

    basis_string = '\n'.join([f'''
    He  S
        {x}              1.0'''
        for x in exponent])
    mol.basis = {'He': pyscf.gto.basis.parse(basis_string)}
    
    mol.verbose = 5
    mol.build()

    mf = scf.RHF(mol)
    mf.kernel()
    jac = mf.energy_grad()

    print(f"exp = {exponent}")
    print(f"grad_E = {jac.exp}")

    grad_E = np.array(jac.exp)

    return grad_E

def minimize_energy(n):
    x0 = [0.5 * (n-i) for i in range(n)]
    bnds = ((1e-6, None) for _ in range(n))

    res = optimize.minimize(
        He_energy,
        x0,
        args=(),
        method="SLSQP",
        jac=grad_He_energy,
        hess=None,
        hessp=None,
        bounds=bnds,
        tol=1e-8,
        callback=None,
        # options={"xtol": 1e-8, "ftol": 1e-8},
    )
    print(res)

minimize_energy(5)

#INFO: ******************** input file end ********************


System: uname_result(system='Darwin', node='Deyans-MacBook-Pro-Home.local', release='22.1.0', version='Darwin Kernel Version 22.1.0: Sun Oct  9 20:14:54 PDT 2022; root:xnu-8792.41.9~2/RELEASE_X86_64', machine='x86_64', processor='i386')  Threads 1
Python 3.8.16 (default, Mar  1 2023, 21:19:10) 
[Clang 14.0.6 ]
numpy 1.24.2  scipy 1.10.1
Date: Mon Mar  6 15:16:51 2023
PySCF version 2.1.1
PySCF path  /Users/deyanmihaylov/opt/anaconda3/envs/pyscfad_env/lib/python3.8/site-packages/pyscf

[CONFIG] conf_file /Users/deyanmihaylov/.pyscf_conf.py
[INPUT] verbose = 5
[INPUT] max_memory = 4000 
[INPUT] num. atoms = 1
[INPUT] num. electrons = 2
[INPUT] charge = 0
[INPUT] spin (= nelec alpha-beta = 2S) = 0
[INPUT] symmetry False subgroup None
[INPUT] Mole.unit = angstrom
[INPUT] Symbol           X                Y                Z      unit          X                Y                Z       unit  Magmom
[INPUT]  1 He     0.000000000000   0.000000000000   0.000000000000 AA    0.000000000000   0.000000000000   0.000000000000 Bohr   0.0
[INPUT] ---------------- BASIS SET ---------------- 
[INPUT] l, kappa, [nprim/nctr], expnt,             c_1 c_2 ...
[INPUT] He
[INPUT] 0    0    [1    /1   ]  2.5                  1
[INPUT] 0    0    [1    /1   ]  2                    1
[INPUT] 0    0    [1    /1   ]  1.5                  1
[INPUT] 0    0    [1    /1   ]  1                    1
[INPUT] 0    0    [1    /1   ]  0.5                  1

nuclear repulsion = 0
number of shells = 5
number of NR pGTOs = 5
number of NR cGTOs = 5
basis = {'He': [[0, [2.5, 1.0]], [0, [2.0, 1.0]], [0, [1.5, 1.0]], [0, [1.0, 1.0]], [0, [0.5, 1.0]]]}
ecp = {}
CPU time:         1.92
Set gradient conv threshold to 3.16228e-05
cond(S) = 378590.17957338446
E1 = -3.7746062585721467  E_coul = 1.0189813309456763
init E= -2.75562492762647
    CPU time for initialize scf      0.02 sec, wall time      0.02 sec
  HOMO = -0.876344617365818  LUMO = 1.12456103053976
  mo_energy =
[-0.87634462  1.12456103  3.68270862  8.74245069 16.19041383]
E1 = -3.7886643582534636  E_coul = 1.0163544137295824
cycle= 1 E= -2.77230994452388  delta_E= -0.0167  |g|= 0.0266  |ddm|=  352
    CPU time for cycle= 1      0.01 sec, wall time      0.01 sec
  HOMO = -0.87800579394393  LUMO = 1.12913231194683
  mo_energy =
[-0.87800579  1.12913231  3.68663323  8.74532471 16.18681823]
E1 = -3.788171299581449  E_coul = 1.01579957874051
cycle= 2 E= -2.77237172084094  delta_E= -6.18e-05  |g|= 0.0024  |ddm|= 21.4
    CPU time for cycle= 2      0.01 sec, wall time      0.01 sec
  HOMO = -0.878311728358986  LUMO = 1.12920321191474
  mo_energy =
[-0.87831173  1.12920321  3.68661838  8.74520516 16.18609351]
E1 = -3.788248464501732  E_coul = 1.0158759638364994
cycle= 3 E= -2.77237250066523  delta_E= -7.8e-07  |g|= 0.000129  |ddm|=  2.1
    CPU time for cycle= 3      0.01 sec, wall time      0.01 sec
  HOMO = -0.878236208109043  LUMO = 1.12923729378648
  mo_energy =
[-0.87823621  1.12923729  3.68669304  8.74531173 16.18624591]
E1 = -3.788269006318214  E_coul = 1.0158965024928368
cycle= 4 E= -2.77237250382538  delta_E= -3.16e-09  |g|= 5.57e-06  |ddm|= 0.0748
    CPU time for cycle= 4      0.01 sec, wall time      0.01 sec
  HOMO = -0.878238195383851  LUMO = 1.12923643912992
  mo_energy =
[-0.8782382   1.12923644  3.68669137  8.74530932 16.18624189]
E1 = -3.788268614058139  E_coul = 1.0158961102218238
cycle= 5 E= -2.77237250383632  delta_E= -1.09e-11  |g|= 2.65e-08  |ddm|= 0.000525
    CPU time for cycle= 5      0.01 sec, wall time      0.01 sec
E1 = -3.788268614058139  E_coul = 1.0158961102218238
  HOMO = -0.878238196807231  LUMO = 1.1292364357019
  mo_energy =
[-0.8782382   1.12923644  3.68669136  8.74530931 16.18624187]
E1 = -3.78826861301109  E_coul = 1.015896109180421
Extra cycle  E= -2.77237250383067  delta_E= 5.65e-12  |g|= 2.29e-09  |ddm|= 2.56e-05
    CPU time for scf_cycle      0.07 sec, wall time      0.07 sec
Set gradient conv threshold to 3.16228e-05
cond(S) = 378590.17957338446
E1 = -3.78826861301109  E_coul = 1.015896109180421
init E= -2.77237250383067
    CPU time for initialize scf      0.24 sec, wall time      0.24 sec
  HOMO = -0.878238197325124  LUMO = 1.12923643539114
  mo_energy =
[-0.8782382   1.12923644  3.68669136  8.74530931 16.18624188]
E1 = -3.788268612820842  E_coul = 1.0158961089886709
cycle= 1 E= -2.77237250383217  delta_E= -1.5e-12  |g|= 3.29e-10  |ddm|= 2.08e-06
    CPU time for cycle= 1      0.01 sec, wall time      0.01 sec
E1 = -3.788268612820842  E_coul = 1.0158961089886709
  HOMO = -0.878238197421758  LUMO = 1.12923643534321
  mo_energy =
[-0.8782382   1.12923644  3.68669136  8.74530931 16.18624187]
E1 = -3.788268612789221  E_coul = 1.015896108958003
Extra cycle  E= -2.77237250383122  delta_E= 9.53e-13  |g|= 5.57e-11  |ddm|= 2.78e-07
    CPU time for scf_cycle      0.82 sec, wall time      0.82 sec
exp = [2.5 2.  1.5 1.  0.5]
grad_E = [-0.01289999 -0.01092835 -0.00894378 -0.00410076  0.02965771]
#INFO: **** input file is /Users/deyanmihaylov/Documents/Work/pyscf_basis_opt/pyscfad_test.py ****
import pyscf
from pyscfad import gto, scf
import numpy as np

from scipy import optimize

# basis_string = '\n'.join([f'''
#     He  S
#         {x}              1.0'''
#         for x in exponent])

def He_energy(exponent):
    mol = gto.Mole()
    mol.atom = 'He 0 0 0'  # in Angstrom

    basis_string = '\n'.join([f'''
    He  S
        {x}              1.0'''
        for x in exponent])
    mol.basis = {'He': pyscf.gto.basis.parse(basis_string)}

    mol.verbose = 5
    mol.build()

    mf = scf.RHF(mol)
    e = mf.kernel()

    print(f"exp = {exponent}")
    print(f"E = {e}")

    return e

def grad_He_energy(exponent):
    mol = gto.Mole()
    mol.atom = 'He 0 0 0'  # in Angstrom

    basis_string = '\n'.join([f'''
    He  S
        {x}              1.0'''
        for x in exponent])
    mol.basis = {'He': pyscf.gto.basis.parse(basis_string)}
    
    mol.verbose = 5
    mol.build()

    mf = scf.RHF(mol)
    mf.kernel()
    jac = mf.energy_grad()

    print(f"exp = {exponent}")
    print(f"grad_E = {jac.exp}")

    grad_E = np.array(jac.exp)

    return grad_E

def minimize_energy(n):
    x0 = [0.5 * (n-i) for i in range(n)]
    bnds = ((1e-6, None) for _ in range(n))

    res = optimize.minimize(
        He_energy,
        x0,
        args=(),
        method="SLSQP",
        jac=grad_He_energy,
        hess=None,
        hessp=None,
        bounds=bnds,
        tol=1e-8,
        callback=None,
        # options={"xtol": 1e-8, "ftol": 1e-8},
    )
    print(res)

minimize_energy(5)

#INFO: ******************** input file end ********************


System: uname_result(system='Darwin', node='Deyans-MacBook-Pro-Home.local', release='22.1.0', version='Darwin Kernel Version 22.1.0: Sun Oct  9 20:14:54 PDT 2022; root:xnu-8792.41.9~2/RELEASE_X86_64', machine='x86_64', processor='i386')  Threads 1
Python 3.8.16 (default, Mar  1 2023, 21:19:10) 
[Clang 14.0.6 ]
numpy 1.24.2  scipy 1.10.1
Date: Mon Mar  6 15:16:55 2023
PySCF version 2.1.1
PySCF path  /Users/deyanmihaylov/opt/anaconda3/envs/pyscfad_env/lib/python3.8/site-packages/pyscf

[CONFIG] conf_file /Users/deyanmihaylov/.pyscf_conf.py
[INPUT] verbose = 5
[INPUT] max_memory = 4000 
[INPUT] num. atoms = 1
[INPUT] num. electrons = 2
[INPUT] charge = 0
[INPUT] spin (= nelec alpha-beta = 2S) = 0
[INPUT] symmetry False subgroup None
[INPUT] Mole.unit = angstrom
[INPUT] Symbol           X                Y                Z      unit          X                Y                Z       unit  Magmom
[INPUT]  1 He     0.000000000000   0.000000000000   0.000000000000 AA    0.000000000000   0.000000000000   0.000000000000 Bohr   0.0
[INPUT] ---------------- BASIS SET ---------------- 
[INPUT] l, kappa, [nprim/nctr], expnt,             c_1 c_2 ...
[INPUT] He
[INPUT] 0    0    [1    /1   ]  2.51289999098        1
[INPUT] 0    0    [1    /1   ]  2.01092834641        1
[INPUT] 0    0    [1    /1   ]  1.50894378267        1
[INPUT] 0    0    [1    /1   ]  1.00410075654        1
[INPUT] 0    0    [1    /1   ]  0.470342288781       1

nuclear repulsion = 0
number of shells = 5
number of NR pGTOs = 5
number of NR cGTOs = 5
basis = {'He': [[0, [2.512899990976905, 1.0]], [0, [2.0109283464094396, 1.0]], [0, [1.50894378266808, 1.0]], [0, [1.0041007565437194, 1.0]], [0, [0.470342288781346, 1.0]]]}
ecp = {}
CPU time:         6.20
Set gradient conv threshold to 3.16228e-05
cond(S) = 346727.15851170535
E1 = -3.7778597027019183  E_coul = 1.0190308852064016
init E= -2.75882881749552
    CPU time for initialize scf      0.02 sec, wall time      0.02 sec
  HOMO = -0.876992073762827  LUMO = 1.09092833998773
  mo_energy =
[-0.87699207  1.09092834  3.6256359   8.68261066 16.15830028]
E1 = -3.787559539300696  E_coul = 1.0139899607989304
cycle= 1 E= -2.77356957850177  delta_E= -0.0147  |g|= 0.0245  |ddm|=  276
    CPU time for cycle= 1      0.01 sec, wall time      0.01 sec
  HOMO = -0.879813681940536  LUMO = 1.09460535181353
  mo_energy =
[-0.87981368  1.09460535  3.62817016  8.68360452 16.15218746]
E1 = -3.7869592857187193  E_coul = 1.0133371446277968
cycle= 2 E= -2.77362214109092  delta_E= -5.26e-05  |g|= 0.0022  |ddm|=   17
    CPU time for cycle= 2      0.01 sec, wall time      0.01 sec
  HOMO = -0.880171737259845  LUMO = 1.09464407310207
  mo_energy =
[-0.88017174  1.09464407  3.62809613  8.68339625 16.15135265]
E1 = -3.7870199824596256  E_coul = 1.0133971876286982
cycle= 3 E= -2.77362279483093  delta_E= -6.54e-07  |g|= 0.000121  |ddm|= 1.67
    CPU time for cycle= 3      0.01 sec, wall time      0.01 sec
  HOMO = -0.880101379168177  LUMO = 1.09467575928571
  mo_energy =
[-0.88010138  1.09467576  3.62816635  8.6834967  16.15149534]
E1 = -3.7870393740801984  E_coul = 1.0134165763822638
cycle= 4 E= -2.77362279769793  delta_E= -2.87e-09  |g|= 5.29e-06  |ddm|= 0.0642
    CPU time for cycle= 4      0.01 sec, wall time      0.01 sec
  HOMO = -0.880103303612466  LUMO = 1.09467491518812
  mo_energy =
[-0.8801033   1.09467492  3.6281647   8.68349431 16.15149141]
E1 = -3.787038985692153  E_coul = 1.0134161879995403
cycle= 5 E= -2.77362279769261  delta_E= 5.32e-12  |g|= 2.65e-08  |ddm|= 0.000613
    CPU time for cycle= 5      0.01 sec, wall time      0.01 sec
E1 = -3.787038985692153  E_coul = 1.0134161879995403
  HOMO = -0.880103304846556  LUMO = 1.09467491219634
  mo_energy =
[-0.8801033   1.09467491  3.62816469  8.6834943  16.1514914 ]
E1 = -3.787038984582164  E_coul = 1.0134161868852072
Extra cycle  E= -2.77362279769696  delta_E= -4.34e-12  |g|= 2.54e-09  |ddm|= 2.27e-05
    CPU time for scf_cycle      0.07 sec, wall time      0.07 sec
exp = [2.51289999 2.01092835 1.50894378 1.00410076 0.47034229]
E = -2.773622797696957
#INFO: **** input file is /Users/deyanmihaylov/Documents/Work/pyscf_basis_opt/pyscfad_test.py ****
import pyscf
from pyscfad import gto, scf
import numpy as np

from scipy import optimize

# basis_string = '\n'.join([f'''
#     He  S
#         {x}              1.0'''
#         for x in exponent])

def He_energy(exponent):
    mol = gto.Mole()
    mol.atom = 'He 0 0 0'  # in Angstrom

    basis_string = '\n'.join([f'''
    He  S
        {x}              1.0'''
        for x in exponent])
    mol.basis = {'He': pyscf.gto.basis.parse(basis_string)}

    mol.verbose = 5
    mol.build()

    mf = scf.RHF(mol)
    e = mf.kernel()

    print(f"exp = {exponent}")
    print(f"E = {e}")

    return e

def grad_He_energy(exponent):
    mol = gto.Mole()
    mol.atom = 'He 0 0 0'  # in Angstrom

    basis_string = '\n'.join([f'''
    He  S
        {x}              1.0'''
        for x in exponent])
    mol.basis = {'He': pyscf.gto.basis.parse(basis_string)}
    
    mol.verbose = 5
    mol.build()

    mf = scf.RHF(mol)
    mf.kernel()
    jac = mf.energy_grad()

    print(f"exp = {exponent}")
    print(f"grad_E = {jac.exp}")

    grad_E = np.array(jac.exp)

    return grad_E

def minimize_energy(n):
    x0 = [0.5 * (n-i) for i in range(n)]
    bnds = ((1e-6, None) for _ in range(n))

    res = optimize.minimize(
        He_energy,
        x0,
        args=(),
        method="SLSQP",
        jac=grad_He_energy,
        hess=None,
        hessp=None,
        bounds=bnds,
        tol=1e-8,
        callback=None,
        # options={"xtol": 1e-8, "ftol": 1e-8},
    )
    print(res)

minimize_energy(5)

#INFO: ******************** input file end ********************


System: uname_result(system='Darwin', node='Deyans-MacBook-Pro-Home.local', release='22.1.0', version='Darwin Kernel Version 22.1.0: Sun Oct  9 20:14:54 PDT 2022; root:xnu-8792.41.9~2/RELEASE_X86_64', machine='x86_64', processor='i386')  Threads 1
Python 3.8.16 (default, Mar  1 2023, 21:19:10) 
[Clang 14.0.6 ]
numpy 1.24.2  scipy 1.10.1
Date: Mon Mar  6 15:16:55 2023
PySCF version 2.1.1
PySCF path  /Users/deyanmihaylov/opt/anaconda3/envs/pyscfad_env/lib/python3.8/site-packages/pyscf

[CONFIG] conf_file /Users/deyanmihaylov/.pyscf_conf.py
[INPUT] verbose = 5
[INPUT] max_memory = 4000 
[INPUT] num. atoms = 1
[INPUT] num. electrons = 2
[INPUT] charge = 0
[INPUT] spin (= nelec alpha-beta = 2S) = 0
[INPUT] symmetry False subgroup None
[INPUT] Mole.unit = angstrom
[INPUT] Symbol           X                Y                Z      unit          X                Y                Z       unit  Magmom
[INPUT]  1 He     0.000000000000   0.000000000000   0.000000000000 AA    0.000000000000   0.000000000000   0.000000000000 Bohr   0.0
[INPUT] ---------------- BASIS SET ---------------- 
[INPUT] l, kappa, [nprim/nctr], expnt,             c_1 c_2 ...
[INPUT] He
[INPUT] 0    0    [1    /1   ]  2.51289999098        1
[INPUT] 0    0    [1    /1   ]  2.01092834641        1
[INPUT] 0    0    [1    /1   ]  1.50894378267        1
[INPUT] 0    0    [1    /1   ]  1.00410075654        1
[INPUT] 0    0    [1    /1   ]  0.470342288781       1

nuclear repulsion = 0
number of shells = 5
number of NR pGTOs = 5
number of NR cGTOs = 5
basis = {'He': [[0, [2.512899990976905, 1.0]], [0, [2.0109283464094396, 1.0]], [0, [1.50894378266808, 1.0]], [0, [1.0041007565437194, 1.0]], [0, [0.470342288781346, 1.0]]]}
ecp = {}
CPU time:         6.31
Set gradient conv threshold to 3.16228e-05
cond(S) = 346727.15851170535
E1 = -3.7778597027019183  E_coul = 1.0190308852064016
init E= -2.75882881749552
    CPU time for initialize scf      0.02 sec, wall time      0.02 sec
  HOMO = -0.876992073762827  LUMO = 1.09092833998773
  mo_energy =
[-0.87699207  1.09092834  3.6256359   8.68261066 16.15830028]
E1 = -3.787559539300696  E_coul = 1.0139899607989304
cycle= 1 E= -2.77356957850177  delta_E= -0.0147  |g|= 0.0245  |ddm|=  276
    CPU time for cycle= 1      0.01 sec, wall time      0.01 sec
  HOMO = -0.879813681940536  LUMO = 1.09460535181353
  mo_energy =
[-0.87981368  1.09460535  3.62817016  8.68360452 16.15218746]
E1 = -3.7869592857187193  E_coul = 1.0133371446277968
cycle= 2 E= -2.77362214109092  delta_E= -5.26e-05  |g|= 0.0022  |ddm|=   17
    CPU time for cycle= 2      0.01 sec, wall time      0.01 sec
  HOMO = -0.880171737259845  LUMO = 1.09464407310207
  mo_energy =
[-0.88017174  1.09464407  3.62809613  8.68339625 16.15135265]
E1 = -3.7870199824596256  E_coul = 1.0133971876286982
cycle= 3 E= -2.77362279483093  delta_E= -6.54e-07  |g|= 0.000121  |ddm|= 1.67
    CPU time for cycle= 3      0.01 sec, wall time      0.01 sec
  HOMO = -0.880101379168177  LUMO = 1.09467575928571
  mo_energy =
[-0.88010138  1.09467576  3.62816635  8.6834967  16.15149534]
E1 = -3.7870393740801984  E_coul = 1.0134165763822638
cycle= 4 E= -2.77362279769793  delta_E= -2.87e-09  |g|= 5.29e-06  |ddm|= 0.0642
    CPU time for cycle= 4      0.01 sec, wall time      0.01 sec
  HOMO = -0.880103303612466  LUMO = 1.09467491518812
  mo_energy =
[-0.8801033   1.09467492  3.6281647   8.68349431 16.15149141]
E1 = -3.787038985692153  E_coul = 1.0134161879995403
cycle= 5 E= -2.77362279769261  delta_E= 5.32e-12  |g|= 2.65e-08  |ddm|= 0.000613
    CPU time for cycle= 5      0.01 sec, wall time      0.01 sec
E1 = -3.787038985692153  E_coul = 1.0134161879995403
  HOMO = -0.880103304846556  LUMO = 1.09467491219634
  mo_energy =
[-0.8801033   1.09467491  3.62816469  8.6834943  16.1514914 ]
E1 = -3.787038984582164  E_coul = 1.0134161868852072
Extra cycle  E= -2.77362279769696  delta_E= -4.34e-12  |g|= 2.54e-09  |ddm|= 2.27e-05
    CPU time for scf_cycle      0.07 sec, wall time      0.07 sec
Set gradient conv threshold to 3.16228e-05
cond(S) = 346727.15851170535
E1 = -3.787038984582164  E_coul = 1.0134161868852072
init E= -2.77362279769696
    CPU time for initialize scf      0.03 sec, wall time      0.03 sec
  HOMO = -0.880103305405891  LUMO = 1.0946749118276
  mo_energy =
[-0.88010331  1.09467491  3.62816469  8.6834943  16.1514914 ]
E1 = -3.7870389843783467  E_coul = 1.013416186682999
cycle= 1 E= -2.77362279769535  delta_E= 1.61e-12  |g|= 3.12e-10  |ddm|= 2.12e-06
    CPU time for cycle= 1      0.01 sec, wall time      0.01 sec
E1 = -3.7870389843783467  E_coul = 1.013416186682999
  HOMO = -0.880103305506177  LUMO = 1.09467491177709
  mo_energy =
[-0.88010331  1.09467491  3.62816469  8.6834943  16.1514914 ]
E1 = -3.7870389843445027  E_coul = 1.0134161866510172
Extra cycle  E= -2.77362279769349  delta_E= 1.86e-12  |g|= 7.48e-11  |ddm|= 1.84e-07
    CPU time for scf_cycle      0.08 sec, wall time      0.08 sec
exp = [2.51289999 2.01092835 1.50894378 1.00410076 0.47034229]
grad_E = [-0.01317494 -0.01127287 -0.00953583 -0.00529175  0.02807895]
#INFO: **** input file is /Users/deyanmihaylov/Documents/Work/pyscf_basis_opt/pyscfad_test.py ****
import pyscf
from pyscfad import gto, scf
import numpy as np

from scipy import optimize

# basis_string = '\n'.join([f'''
#     He  S
#         {x}              1.0'''
#         for x in exponent])

def He_energy(exponent):
    mol = gto.Mole()
    mol.atom = 'He 0 0 0'  # in Angstrom

    basis_string = '\n'.join([f'''
    He  S
        {x}              1.0'''
        for x in exponent])
    mol.basis = {'He': pyscf.gto.basis.parse(basis_string)}

    mol.verbose = 5
    mol.build()

    mf = scf.RHF(mol)
    e = mf.kernel()

    print(f"exp = {exponent}")
    print(f"E = {e}")

    return e

def grad_He_energy(exponent):
    mol = gto.Mole()
    mol.atom = 'He 0 0 0'  # in Angstrom

    basis_string = '\n'.join([f'''
    He  S
        {x}              1.0'''
        for x in exponent])
    mol.basis = {'He': pyscf.gto.basis.parse(basis_string)}
    
    mol.verbose = 5
    mol.build()

    mf = scf.RHF(mol)
    mf.kernel()
    jac = mf.energy_grad()

    print(f"exp = {exponent}")
    print(f"grad_E = {jac.exp}")

    grad_E = np.array(jac.exp)

    return grad_E

def minimize_energy(n):
    x0 = [0.5 * (n-i) for i in range(n)]
    bnds = ((1e-6, None) for _ in range(n))

    res = optimize.minimize(
        He_energy,
        x0,
        args=(),
        method="SLSQP",
        jac=grad_He_energy,
        hess=None,
        hessp=None,
        bounds=bnds,
        tol=1e-8,
        callback=None,
        # options={"xtol": 1e-8, "ftol": 1e-8},
    )
    print(res)

minimize_energy(5)

#INFO: ******************** input file end ********************


System: uname_result(system='Darwin', node='Deyans-MacBook-Pro-Home.local', release='22.1.0', version='Darwin Kernel Version 22.1.0: Sun Oct  9 20:14:54 PDT 2022; root:xnu-8792.41.9~2/RELEASE_X86_64', machine='x86_64', processor='i386')  Threads 1
Python 3.8.16 (default, Mar  1 2023, 21:19:10) 
[Clang 14.0.6 ]
numpy 1.24.2  scipy 1.10.1
Date: Mon Mar  6 15:16:57 2023
PySCF version 2.1.1
PySCF path  /Users/deyanmihaylov/opt/anaconda3/envs/pyscfad_env/lib/python3.8/site-packages/pyscf

[CONFIG] conf_file /Users/deyanmihaylov/.pyscf_conf.py
[INPUT] verbose = 5
[INPUT] max_memory = 4000 
[INPUT] num. atoms = 1
[INPUT] num. electrons = 2
[INPUT] charge = 0
[INPUT] spin (= nelec alpha-beta = 2S) = 0
[INPUT] symmetry False subgroup None
[INPUT] Mole.unit = angstrom
[INPUT] Symbol           X                Y                Z      unit          X                Y                Z       unit  Magmom
[INPUT]  1 He     0.000000000000   0.000000000000   0.000000000000 AA    0.000000000000   0.000000000000   0.000000000000 Bohr   0.0
[INPUT] ---------------- BASIS SET ---------------- 
[INPUT] l, kappa, [nprim/nctr], expnt,             c_1 c_2 ...
[INPUT] He
[INPUT] 0    0    [1    /1   ]  2.57956449917        1
[INPUT] 0    0    [1    /1   ]  2.06796178729        1
[INPUT] 0    0    [1    /1   ]  1.55717050663        1
[INPUT] 0    0    [1    /1   ]  1.03081055714        1
[INPUT] 0    0    [1    /1   ]  0.328131753336       1

nuclear repulsion = 0
number of shells = 5
number of NR pGTOs = 5
number of NR cGTOs = 5
basis = {'He': [[0, [2.5795644991672266, 1.0]], [0, [2.0679617872888776, 1.0]], [0, [1.557170506634233, 1.0]], [0, [1.0308105571389112, 1.0]], [0, [0.3281317533359349, 1.0]]]}
ecp = {}
CPU time:         8.29
Set gradient conv threshold to 3.16228e-05
cond(S) = 239990.17000919196
E1 = -3.789946247643925  E_coul = 1.0188254144494802
init E= -2.77112083319444
    CPU time for initialize scf      0.02 sec, wall time      0.02 sec
  HOMO = -0.879541401570138  LUMO = 0.889604503223684
  mo_energy =
[-0.8795414   0.8896045   3.31264972  8.39453308 16.04323308]
E1 = -3.7787472941078475  E_coul = 1.0006087099230523
cycle= 1 E= -2.77813858418479  delta_E= -0.00702  |g|= 0.0137  |ddm|= 33.5
    CPU time for cycle= 1      0.01 sec, wall time      0.01 sec
  HOMO = -0.88877212429461  LUMO = 0.888868467499891
  mo_energy =
[-0.88877212  0.88886847  3.30749625  8.38486354 16.0230912 ]
E1 = -3.777380845318439  E_coul = 0.9992269171119149
cycle= 2 E= -2.77815392820652  delta_E= -1.53e-05  |g|= 0.000897  |ddm|= 2.23
    CPU time for cycle= 2      0.01 sec, wall time      0.01 sec
  HOMO = -0.889512756701055  LUMO = 0.888690183558961
  mo_energy =
[-0.88951276  0.88869018  3.30696441  8.38398144 16.02144186]
E1 = -3.7773127127694495  E_coul = 0.9991587006591968
cycle= 3 E= -2.77815401211025  delta_E= -8.39e-08  |g|= 3.7e-05  |ddm|= 0.218
    CPU time for cycle= 3      0.01 sec, wall time      0.01 sec
  HOMO = -0.889493975215533  LUMO = 0.888698880290662
  mo_energy =
[-0.88949398  0.88869888  3.30698432  8.38400968 16.02148096]
E1 = -3.7773180719149115  E_coul = 0.9991640595354295
cycle= 4 E= -2.77815401237948  delta_E= -2.69e-10  |g|= 3.57e-06  |ddm|= 0.0134
    CPU time for cycle= 4      0.01 sec, wall time      0.01 sec
E1 = -3.7773180719149115  E_coul = 0.9991640595354295
  HOMO = -0.889494976422626  LUMO = 0.888698389924499
  mo_energy =
[-0.88949498  0.88869839  3.30698336  8.38400833 16.02147886]
E1 = -3.7773178638907337  E_coul = 0.9991638515103165
Extra cycle  E= -2.77815401238042  delta_E= -9.35e-13  |g|= 3.75e-07  |ddm|= 0.00075
    CPU time for scf_cycle      0.06 sec, wall time      0.06 sec
exp = [2.5795645  2.06796179 1.55717051 1.03081056 0.32813175]
E = -2.7781540123804174
#INFO: **** input file is /Users/deyanmihaylov/Documents/Work/pyscf_basis_opt/pyscfad_test.py ****
import pyscf
from pyscfad import gto, scf
import numpy as np

from scipy import optimize

# basis_string = '\n'.join([f'''
#     He  S
#         {x}              1.0'''
#         for x in exponent])

def He_energy(exponent):
    mol = gto.Mole()
    mol.atom = 'He 0 0 0'  # in Angstrom

    basis_string = '\n'.join([f'''
    He  S
        {x}              1.0'''
        for x in exponent])
    mol.basis = {'He': pyscf.gto.basis.parse(basis_string)}

    mol.verbose = 5
    mol.build()

    mf = scf.RHF(mol)
    e = mf.kernel()

    print(f"exp = {exponent}")
    print(f"E = {e}")

    return e

def grad_He_energy(exponent):
    mol = gto.Mole()
    mol.atom = 'He 0 0 0'  # in Angstrom

    basis_string = '\n'.join([f'''
    He  S
        {x}              1.0'''
        for x in exponent])
    mol.basis = {'He': pyscf.gto.basis.parse(basis_string)}
    
    mol.verbose = 5
    mol.build()

    mf = scf.RHF(mol)
    mf.kernel()
    jac = mf.energy_grad()

    print(f"exp = {exponent}")
    print(f"grad_E = {jac.exp}")

    grad_E = np.array(jac.exp)

    return grad_E

def minimize_energy(n):
    x0 = [0.5 * (n-i) for i in range(n)]
    bnds = ((1e-6, None) for _ in range(n))

    res = optimize.minimize(
        He_energy,
        x0,
        args=(),
        method="SLSQP",
        jac=grad_He_energy,
        hess=None,
        hessp=None,
        bounds=bnds,
        tol=1e-8,
        callback=None,
        # options={"xtol": 1e-8, "ftol": 1e-8},
    )
    print(res)

minimize_energy(5)

#INFO: ******************** input file end ********************


System: uname_result(system='Darwin', node='Deyans-MacBook-Pro-Home.local', release='22.1.0', version='Darwin Kernel Version 22.1.0: Sun Oct  9 20:14:54 PDT 2022; root:xnu-8792.41.9~2/RELEASE_X86_64', machine='x86_64', processor='i386')  Threads 1
Python 3.8.16 (default, Mar  1 2023, 21:19:10) 
[Clang 14.0.6 ]
numpy 1.24.2  scipy 1.10.1
Date: Mon Mar  6 15:16:57 2023
PySCF version 2.1.1
PySCF path  /Users/deyanmihaylov/opt/anaconda3/envs/pyscfad_env/lib/python3.8/site-packages/pyscf

[CONFIG] conf_file /Users/deyanmihaylov/.pyscf_conf.py
[INPUT] verbose = 5
[INPUT] max_memory = 4000 
[INPUT] num. atoms = 1
[INPUT] num. electrons = 2
[INPUT] charge = 0
[INPUT] spin (= nelec alpha-beta = 2S) = 0
[INPUT] symmetry False subgroup None
[INPUT] Mole.unit = angstrom
[INPUT] Symbol           X                Y                Z      unit          X                Y                Z       unit  Magmom
[INPUT]  1 He     0.000000000000   0.000000000000   0.000000000000 AA    0.000000000000   0.000000000000   0.000000000000 Bohr   0.0
[INPUT] ---------------- BASIS SET ---------------- 
[INPUT] l, kappa, [nprim/nctr], expnt,             c_1 c_2 ...
[INPUT] He
[INPUT] 0    0    [1    /1   ]  2.57956449917        1
[INPUT] 0    0    [1    /1   ]  2.06796178729        1
[INPUT] 0    0    [1    /1   ]  1.55717050663        1
[INPUT] 0    0    [1    /1   ]  1.03081055714        1
[INPUT] 0    0    [1    /1   ]  0.328131753336       1

nuclear repulsion = 0
number of shells = 5
number of NR pGTOs = 5
number of NR cGTOs = 5
basis = {'He': [[0, [2.5795644991672266, 1.0]], [0, [2.0679617872888776, 1.0]], [0, [1.557170506634233, 1.0]], [0, [1.0308105571389112, 1.0]], [0, [0.3281317533359349, 1.0]]]}
ecp = {}
CPU time:         8.40
Set gradient conv threshold to 3.16228e-05
cond(S) = 239990.17000919196
E1 = -3.789946247643925  E_coul = 1.0188254144494802
init E= -2.77112083319444
    CPU time for initialize scf      0.02 sec, wall time      0.02 sec
  HOMO = -0.879541401570138  LUMO = 0.889604503223684
  mo_energy =
[-0.8795414   0.8896045   3.31264972  8.39453308 16.04323308]
E1 = -3.7787472941078475  E_coul = 1.0006087099230523
cycle= 1 E= -2.77813858418479  delta_E= -0.00702  |g|= 0.0137  |ddm|= 33.5
    CPU time for cycle= 1      0.01 sec, wall time      0.01 sec
  HOMO = -0.88877212429461  LUMO = 0.888868467499891
  mo_energy =
[-0.88877212  0.88886847  3.30749625  8.38486354 16.0230912 ]
E1 = -3.777380845318439  E_coul = 0.9992269171119149
cycle= 2 E= -2.77815392820652  delta_E= -1.53e-05  |g|= 0.000897  |ddm|= 2.23
    CPU time for cycle= 2      0.01 sec, wall time      0.01 sec
  HOMO = -0.889512756701055  LUMO = 0.888690183558961
  mo_energy =
[-0.88951276  0.88869018  3.30696441  8.38398144 16.02144186]
E1 = -3.7773127127694495  E_coul = 0.9991587006591968
cycle= 3 E= -2.77815401211025  delta_E= -8.39e-08  |g|= 3.7e-05  |ddm|= 0.218
    CPU time for cycle= 3      0.01 sec, wall time      0.01 sec
  HOMO = -0.889493975215533  LUMO = 0.888698880290662
  mo_energy =
[-0.88949398  0.88869888  3.30698432  8.38400968 16.02148096]
E1 = -3.7773180719149115  E_coul = 0.9991640595354295
cycle= 4 E= -2.77815401237948  delta_E= -2.69e-10  |g|= 3.57e-06  |ddm|= 0.0134
    CPU time for cycle= 4      0.01 sec, wall time      0.01 sec
E1 = -3.7773180719149115  E_coul = 0.9991640595354295
  HOMO = -0.889494976422626  LUMO = 0.888698389924499
  mo_energy =
[-0.88949498  0.88869839  3.30698336  8.38400833 16.02147886]
E1 = -3.7773178638907337  E_coul = 0.9991638515103165
Extra cycle  E= -2.77815401238042  delta_E= -9.35e-13  |g|= 3.75e-07  |ddm|= 0.00075
    CPU time for scf_cycle      0.06 sec, wall time      0.06 sec
Set gradient conv threshold to 3.16228e-05
cond(S) = 239990.17000919196
E1 = -3.7773178638907337  E_coul = 0.9991638515103165
init E= -2.77815401238042
    CPU time for initialize scf      0.03 sec, wall time      0.03 sec
  HOMO = -0.889495080435059  LUMO = 0.888698333057812
  mo_energy =
[-0.88949508  0.88869833  3.30698324  8.38400817 16.02147864]
E1 = -3.7773178304752197  E_coul = 0.9991638180948447
cycle= 1 E= -2.77815401238038  delta_E= 4.22e-14  |g|= 5.25e-08  |ddm|= 0.000113
    CPU time for cycle= 1      0.01 sec, wall time      0.01 sec
E1 = -3.7773178304752197  E_coul = 0.9991638180948447
  HOMO = -0.889495097142767  LUMO = 0.888698324529525
  mo_energy =
[-0.8894951   0.88869832  3.30698322  8.38400814 16.02147861]
E1 = -3.7773178246350225  E_coul = 0.9991638122548526
Extra cycle  E= -2.77815401238017  delta_E= 2.05e-13  |g|= 8.12e-09  |ddm|= 1.63e-05
    CPU time for scf_cycle      0.07 sec, wall time      0.07 sec
exp = [2.5795645  2.06796179 1.55717051 1.03081056 0.32813175]
grad_E = [-0.01426843 -0.01241305 -0.01130931 -0.00745709 -0.00784978]
#INFO: **** input file is /Users/deyanmihaylov/Documents/Work/pyscf_basis_opt/pyscfad_test.py ****
import pyscf
from pyscfad import gto, scf
import numpy as np

from scipy import optimize

# basis_string = '\n'.join([f'''
#     He  S
#         {x}              1.0'''
#         for x in exponent])

def He_energy(exponent):
    mol = gto.Mole()
    mol.atom = 'He 0 0 0'  # in Angstrom

    basis_string = '\n'.join([f'''
    He  S
        {x}              1.0'''
        for x in exponent])
    mol.basis = {'He': pyscf.gto.basis.parse(basis_string)}

    mol.verbose = 5
    mol.build()

    mf = scf.RHF(mol)
    e = mf.kernel()

    print(f"exp = {exponent}")
    print(f"E = {e}")

    return e

def grad_He_energy(exponent):
    mol = gto.Mole()
    mol.atom = 'He 0 0 0'  # in Angstrom

    basis_string = '\n'.join([f'''
    He  S
        {x}              1.0'''
        for x in exponent])
    mol.basis = {'He': pyscf.gto.basis.parse(basis_string)}
    
    mol.verbose = 5
    mol.build()

    mf = scf.RHF(mol)
    mf.kernel()
    jac = mf.energy_grad()

    print(f"exp = {exponent}")
    print(f"grad_E = {jac.exp}")

    grad_E = np.array(jac.exp)

    return grad_E

def minimize_energy(n):
    x0 = [0.5 * (n-i) for i in range(n)]
    bnds = ((1e-6, None) for _ in range(n))

    res = optimize.minimize(
        He_energy,
        x0,
        args=(),
        method="SLSQP",
        jac=grad_He_energy,
        hess=None,
        hessp=None,
        bounds=bnds,
        tol=1e-8,
        callback=None,
        # options={"xtol": 1e-8, "ftol": 1e-8},
    )
    print(res)

minimize_energy(5)

#INFO: ******************** input file end ********************


System: uname_result(system='Darwin', node='Deyans-MacBook-Pro-Home.local', release='22.1.0', version='Darwin Kernel Version 22.1.0: Sun Oct  9 20:14:54 PDT 2022; root:xnu-8792.41.9~2/RELEASE_X86_64', machine='x86_64', processor='i386')  Threads 1
Python 3.8.16 (default, Mar  1 2023, 21:19:10) 
[Clang 14.0.6 ]
numpy 1.24.2  scipy 1.10.1
Date: Mon Mar  6 15:16:59 2023
PySCF version 2.1.1
PySCF path  /Users/deyanmihaylov/opt/anaconda3/envs/pyscfad_env/lib/python3.8/site-packages/pyscf

[CONFIG] conf_file /Users/deyanmihaylov/.pyscf_conf.py
[INPUT] verbose = 5
[INPUT] max_memory = 4000 
[INPUT] num. atoms = 1
[INPUT] num. electrons = 2
[INPUT] charge = 0
[INPUT] spin (= nelec alpha-beta = 2S) = 0
[INPUT] symmetry False subgroup None
[INPUT] Mole.unit = angstrom
[INPUT] Symbol           X                Y                Z      unit          X                Y                Z       unit  Magmom
[INPUT]  1 He     0.000000000000   0.000000000000   0.000000000000 AA    0.000000000000   0.000000000000   0.000000000000 Bohr   0.0
[INPUT] ---------------- BASIS SET ---------------- 
[INPUT] l, kappa, [nprim/nctr], expnt,             c_1 c_2 ...
[INPUT] He
[INPUT] 0    0    [1    /1   ]  2.62131254756        1
[INPUT] 0    0    [1    /1   ]  2.10392108831        1
[INPUT] 0    0    [1    /1   ]  1.58855663785        1
[INPUT] 0    0    [1    /1   ]  1.04956067306        1
[INPUT] 0    0    [1    /1   ]  0.287207997406       1

nuclear repulsion = 0
number of shells = 5
number of NR pGTOs = 5
number of NR cGTOs = 5
basis = {'He': [[0, [2.621312547564896, 1.0]], [0, [2.103921088305986, 1.0]], [0, [1.5885566378467428, 1.0]], [0, [1.0495606730556062, 1.0]], [0, [0.2872079974063408, 1.0]]]}
ecp = {}
CPU time:        10.28
Set gradient conv threshold to 3.16228e-05
cond(S) = 220325.65454136077
E1 = -3.790973135465115  E_coul = 1.0185535325821629
init E= -2.77241960288295
    CPU time for initialize scf      0.02 sec, wall time      0.02 sec
  HOMO = -0.879994231480085  LUMO = 0.820096223778548
  mo_energy =
[-0.87999423  0.82009622  3.23249354  8.37934444 16.16135728]
E1 = -3.7753840178758913  E_coul = 0.9966158232487284
cycle= 1 E= -2.77876819462716  delta_E= -0.00635  |g|= 0.0125  |ddm|= 7.74
    CPU time for cycle= 1      0.01 sec, wall time      0.01 sec
  HOMO = -0.89108270407871  LUMO = 0.818243119595094
  mo_energy =
[-0.8910827   0.81824312  3.22495564  8.36632327 16.1370147 ]
E1 = -3.773689394227302  E_coul = 0.9949073920443575
cycle= 2 E= -2.77878200218294  delta_E= -1.38e-05  |g|= 0.000633  |ddm|= 0.62
    CPU time for cycle= 2      0.01 sec, wall time      0.01 sec
  HOMO = -0.891993420658045  LUMO = 0.817974153181633
  mo_energy =
[-0.89199342  0.81797415  3.22419867  8.36512115 16.13499202]
E1 = -3.7735596149398964  E_coul = 0.9947775591957954
cycle= 3 E= -2.7787820557441  delta_E= -5.36e-08  |g|= 2.66e-05  |ddm|= 0.0606
    CPU time for cycle= 3      0.01 sec, wall time      0.01 sec
  HOMO = -0.892004011879754  LUMO = 0.817969900663694
  mo_energy =
[-0.89200401  0.8179699   3.22418608  8.36510313 16.13497011]
E1 = -3.7735556038734774  E_coul = 0.9947735480113401
cycle= 4 E= -2.77878205586214  delta_E= -1.18e-10  |g|= 7.52e-07  |ddm|= 0.0041
    CPU time for cycle= 4      0.01 sec, wall time      0.01 sec
E1 = -3.7735556038734774  E_coul = 0.9947735480113401
  HOMO = -0.892004253925433  LUMO = 0.817969796984921
  mo_energy =
[-0.89200425  0.8179698   3.22418585  8.3651028  16.13496962]
E1 = -3.7735555474300506  E_coul = 0.9947734915676935
Extra cycle  E= -2.77878205586236  delta_E= -2.2e-13  |g|= 8.92e-08  |ddm|= 0.000134
    CPU time for scf_cycle      0.06 sec, wall time      0.06 sec
exp = [2.62131255 2.10392109 1.58855664 1.04956067 0.287208  ]
E = -2.778782055862357
#INFO: **** input file is /Users/deyanmihaylov/Documents/Work/pyscf_basis_opt/pyscfad_test.py ****
import pyscf
from pyscfad import gto, scf
import numpy as np

from scipy import optimize

# basis_string = '\n'.join([f'''
#     He  S
#         {x}              1.0'''
#         for x in exponent])

def He_energy(exponent):
    mol = gto.Mole()
    mol.atom = 'He 0 0 0'  # in Angstrom

    basis_string = '\n'.join([f'''
    He  S
        {x}              1.0'''
        for x in exponent])
    mol.basis = {'He': pyscf.gto.basis.parse(basis_string)}

    mol.verbose = 5
    mol.build()

    mf = scf.RHF(mol)
    e = mf.kernel()

    print(f"exp = {exponent}")
    print(f"E = {e}")

    return e

def grad_He_energy(exponent):
    mol = gto.Mole()
    mol.atom = 'He 0 0 0'  # in Angstrom

    basis_string = '\n'.join([f'''
    He  S
        {x}              1.0'''
        for x in exponent])
    mol.basis = {'He': pyscf.gto.basis.parse(basis_string)}
    
    mol.verbose = 5
    mol.build()

    mf = scf.RHF(mol)
    mf.kernel()
    jac = mf.energy_grad()

    print(f"exp = {exponent}")
    print(f"grad_E = {jac.exp}")

    grad_E = np.array(jac.exp)

    return grad_E

def minimize_energy(n):
    x0 = [0.5 * (n-i) for i in range(n)]
    bnds = ((1e-6, None) for _ in range(n))

    res = optimize.minimize(
        He_energy,
        x0,
        args=(),
        method="SLSQP",
        jac=grad_He_energy,
        hess=None,
        hessp=None,
        bounds=bnds,
        tol=1e-8,
        callback=None,
        # options={"xtol": 1e-8, "ftol": 1e-8},
    )
    print(res)

minimize_energy(5)

#INFO: ******************** input file end ********************


System: uname_result(system='Darwin', node='Deyans-MacBook-Pro-Home.local', release='22.1.0', version='Darwin Kernel Version 22.1.0: Sun Oct  9 20:14:54 PDT 2022; root:xnu-8792.41.9~2/RELEASE_X86_64', machine='x86_64', processor='i386')  Threads 1
Python 3.8.16 (default, Mar  1 2023, 21:19:10) 
[Clang 14.0.6 ]
numpy 1.24.2  scipy 1.10.1
Date: Mon Mar  6 15:16:59 2023
PySCF version 2.1.1
PySCF path  /Users/deyanmihaylov/opt/anaconda3/envs/pyscfad_env/lib/python3.8/site-packages/pyscf

[CONFIG] conf_file /Users/deyanmihaylov/.pyscf_conf.py
[INPUT] verbose = 5
[INPUT] max_memory = 4000 
[INPUT] num. atoms = 1
[INPUT] num. electrons = 2
[INPUT] charge = 0
[INPUT] spin (= nelec alpha-beta = 2S) = 0
[INPUT] symmetry False subgroup None
[INPUT] Mole.unit = angstrom
[INPUT] Symbol           X                Y                Z      unit          X                Y                Z       unit  Magmom
[INPUT]  1 He     0.000000000000   0.000000000000   0.000000000000 AA    0.000000000000   0.000000000000   0.000000000000 Bohr   0.0
[INPUT] ---------------- BASIS SET ---------------- 
[INPUT] l, kappa, [nprim/nctr], expnt,             c_1 c_2 ...
[INPUT] He
[INPUT] 0    0    [1    /1   ]  2.62131254756        1
[INPUT] 0    0    [1    /1   ]  2.10392108831        1
[INPUT] 0    0    [1    /1   ]  1.58855663785        1
[INPUT] 0    0    [1    /1   ]  1.04956067306        1
[INPUT] 0    0    [1    /1   ]  0.287207997406       1

nuclear repulsion = 0
number of shells = 5
number of NR pGTOs = 5
number of NR cGTOs = 5
basis = {'He': [[0, [2.621312547564896, 1.0]], [0, [2.103921088305986, 1.0]], [0, [1.5885566378467428, 1.0]], [0, [1.0495606730556062, 1.0]], [0, [0.2872079974063408, 1.0]]]}
ecp = {}
CPU time:        10.41
Set gradient conv threshold to 3.16228e-05
cond(S) = 220325.65454136077
E1 = -3.790973135465115  E_coul = 1.0185535325821629
init E= -2.77241960288295
    CPU time for initialize scf      0.02 sec, wall time      0.02 sec
  HOMO = -0.879994231480085  LUMO = 0.820096223778548
  mo_energy =
[-0.87999423  0.82009622  3.23249354  8.37934444 16.16135728]
E1 = -3.7753840178758913  E_coul = 0.9966158232487284
cycle= 1 E= -2.77876819462716  delta_E= -0.00635  |g|= 0.0125  |ddm|= 7.74
    CPU time for cycle= 1      0.01 sec, wall time      0.01 sec
  HOMO = -0.89108270407871  LUMO = 0.818243119595094
  mo_energy =
[-0.8910827   0.81824312  3.22495564  8.36632327 16.1370147 ]
E1 = -3.773689394227302  E_coul = 0.9949073920443575
cycle= 2 E= -2.77878200218294  delta_E= -1.38e-05  |g|= 0.000633  |ddm|= 0.62
    CPU time for cycle= 2      0.01 sec, wall time      0.01 sec
  HOMO = -0.891993420658045  LUMO = 0.817974153181633
  mo_energy =
[-0.89199342  0.81797415  3.22419867  8.36512115 16.13499202]
E1 = -3.7735596149398964  E_coul = 0.9947775591957954
cycle= 3 E= -2.7787820557441  delta_E= -5.36e-08  |g|= 2.66e-05  |ddm|= 0.0606
    CPU time for cycle= 3      0.01 sec, wall time      0.01 sec
  HOMO = -0.892004011879754  LUMO = 0.817969900663694
  mo_energy =
[-0.89200401  0.8179699   3.22418608  8.36510313 16.13497011]
E1 = -3.7735556038734774  E_coul = 0.9947735480113401
cycle= 4 E= -2.77878205586214  delta_E= -1.18e-10  |g|= 7.52e-07  |ddm|= 0.0041
    CPU time for cycle= 4      0.01 sec, wall time      0.01 sec
E1 = -3.7735556038734774  E_coul = 0.9947735480113401
  HOMO = -0.892004253925433  LUMO = 0.817969796984921
  mo_energy =
[-0.89200425  0.8179698   3.22418585  8.3651028  16.13496962]
E1 = -3.7735555474300506  E_coul = 0.9947734915676935
Extra cycle  E= -2.77878205586236  delta_E= -2.2e-13  |g|= 8.92e-08  |ddm|= 0.000134
    CPU time for scf_cycle      0.06 sec, wall time      0.06 sec
Set gradient conv threshold to 3.16228e-05
cond(S) = 220325.65454136077
E1 = -3.7735555474300506  E_coul = 0.9947734915676935
init E= -2.77878205586236
    CPU time for initialize scf      0.03 sec, wall time      0.03 sec
  HOMO = -0.89200428214733  LUMO = 0.817969782758725
  mo_energy =
[-0.89200428  0.81796978  3.22418581  8.36510275 16.13496956]
E1 = -3.7735555380084738  E_coul = 0.9947734821453578
cycle= 1 E= -2.77878205586312  delta_E= -7.59e-13  |g|= 1.34e-08  |ddm|= 2.13e-05
    CPU time for cycle= 1      0.01 sec, wall time      0.01 sec
E1 = -3.7735555380084738  E_coul = 0.9947734821453578
  HOMO = -0.892004286858881  LUMO = 0.817969780521729
  mo_energy =
[-0.89200429  0.81796978  3.22418581  8.36510274 16.13496955]
E1 = -3.7735555363586126  E_coul = 0.9947734804958231
Extra cycle  E= -2.77878205586279  delta_E= 3.26e-13  |g|= 2.15e-09  |ddm|= 3.2e-06
    CPU time for scf_cycle      0.07 sec, wall time      0.07 sec
exp = [2.62131255 2.10392109 1.58855664 1.04956067 0.287208  ]
grad_E = [-0.01415621 -0.01215903 -0.0108767  -0.00552715 -0.03802154]
#INFO: **** input file is /Users/deyanmihaylov/Documents/Work/pyscf_basis_opt/pyscfad_test.py ****
import pyscf
from pyscfad import gto, scf
import numpy as np

from scipy import optimize

# basis_string = '\n'.join([f'''
#     He  S
#         {x}              1.0'''
#         for x in exponent])

def He_energy(exponent):
    mol = gto.Mole()
    mol.atom = 'He 0 0 0'  # in Angstrom

    basis_string = '\n'.join([f'''
    He  S
        {x}              1.0'''
        for x in exponent])
    mol.basis = {'He': pyscf.gto.basis.parse(basis_string)}

    mol.verbose = 5
    mol.build()

    mf = scf.RHF(mol)
    e = mf.kernel()

    print(f"exp = {exponent}")
    print(f"E = {e}")

    return e

def grad_He_energy(exponent):
    mol = gto.Mole()
    mol.atom = 'He 0 0 0'  # in Angstrom

    basis_string = '\n'.join([f'''
    He  S
        {x}              1.0'''
        for x in exponent])
    mol.basis = {'He': pyscf.gto.basis.parse(basis_string)}
    
    mol.verbose = 5
    mol.build()

    mf = scf.RHF(mol)
    mf.kernel()
    jac = mf.energy_grad()

    print(f"exp = {exponent}")
    print(f"grad_E = {jac.exp}")

    grad_E = np.array(jac.exp)

    return grad_E

def minimize_energy(n):
    x0 = [0.5 * (n-i) for i in range(n)]
    bnds = ((1e-6, None) for _ in range(n))

    res = optimize.minimize(
        He_energy,
        x0,
        args=(),
        method="SLSQP",
        jac=grad_He_energy,
        hess=None,
        hessp=None,
        bounds=bnds,
        tol=1e-8,
        callback=None,
        # options={"xtol": 1e-8, "ftol": 1e-8},
    )
    print(res)

minimize_energy(5)

#INFO: ******************** input file end ********************


System: uname_result(system='Darwin', node='Deyans-MacBook-Pro-Home.local', release='22.1.0', version='Darwin Kernel Version 22.1.0: Sun Oct  9 20:14:54 PDT 2022; root:xnu-8792.41.9~2/RELEASE_X86_64', machine='x86_64', processor='i386')  Threads 1
Python 3.8.16 (default, Mar  1 2023, 21:19:10) 
[Clang 14.0.6 ]
numpy 1.24.2  scipy 1.10.1
Date: Mon Mar  6 15:17:01 2023
PySCF version 2.1.1
PySCF path  /Users/deyanmihaylov/opt/anaconda3/envs/pyscfad_env/lib/python3.8/site-packages/pyscf

[CONFIG] conf_file /Users/deyanmihaylov/.pyscf_conf.py
[INPUT] verbose = 5
[INPUT] max_memory = 4000 
[INPUT] num. atoms = 1
[INPUT] num. electrons = 2
[INPUT] charge = 0
[INPUT] spin (= nelec alpha-beta = 2S) = 0
[INPUT] symmetry False subgroup None
[INPUT] Mole.unit = angstrom
[INPUT] Symbol           X                Y                Z      unit          X                Y                Z       unit  Magmom
[INPUT]  1 He     0.000000000000   0.000000000000   0.000000000000 AA    0.000000000000   0.000000000000   0.000000000000 Bohr   0.0
[INPUT] ---------------- BASIS SET ---------------- 
[INPUT] l, kappa, [nprim/nctr], expnt,             c_1 c_2 ...
[INPUT] He
[INPUT] 0    0    [1    /1   ]  2.68037521807        1
[INPUT] 0    0    [1    /1   ]  2.15481855942        1
[INPUT] 0    0    [1    /1   ]  1.63348223698        1
[INPUT] 0    0    [1    /1   ]  1.07574740293        1
[INPUT] 0    0    [1    /1   ]  0.292917925548       1

nuclear repulsion = 0
number of shells = 5
number of NR pGTOs = 5
number of NR cGTOs = 5
basis = {'He': [[0, [2.680375218067687, 1.0]], [0, [2.154818559423237, 1.0]], [0, [1.6334822369833923, 1.0]], [0, [1.0757474029300926, 1.0]], [0, [0.2929179255483889, 1.0]]]}
ecp = {}
CPU time:        12.31
Set gradient conv threshold to 3.16228e-05
cond(S) = 228420.60171390278
E1 = -3.793756422563663  E_coul = 1.018892690958173
init E= -2.77486373160549
    CPU time for initialize scf      0.02 sec, wall time      0.02 sec
  HOMO = -0.880952783938903  LUMO = 0.843257766608742
  mo_energy =
[-0.88095278  0.84325777  3.31868897  8.59326196 16.57746546]
E1 = -3.7789951956759062  E_coul = 0.9979858047360813
cycle= 1 E= -2.78100939093983  delta_E= -0.00615  |g|= 0.0122  |ddm|=    5
    CPU time for cycle= 1      0.01 sec, wall time      0.01 sec
  HOMO = -0.891517802457164  LUMO = 0.841506299115233
  mo_energy =
[-0.8915178   0.8415063   3.31141935  8.58066624 16.5538393 ]
E1 = -3.7773974138656463  E_coul = 0.9963753111814609
cycle= 2 E= -2.78102210268419  delta_E= -1.27e-05  |g|= 0.000617  |ddm|= 0.377
    CPU time for cycle= 2      0.02 sec, wall time      0.02 sec
  HOMO = -0.892376016582733  LUMO = 0.841250927174613
  mo_energy =
[-0.89237602  0.84125093  3.31069919  8.57952082 16.5519016 ]
E1 = -3.7772806301021875  E_coul = 0.9962584822350519
cycle= 3 E= -2.78102214786714  delta_E= -4.52e-08  |g|= 1.98e-05  |ddm|= 0.0337
    CPU time for cycle= 3      0.02 sec, wall time      0.02 sec
  HOMO = -0.892382956794891  LUMO = 0.84124823027437
  mo_energy =
[-0.89238296  0.84124823  3.31069075  8.57950869 16.55188718]
E1 = -3.7772779231199713  E_coul = 0.9962557751997114
cycle= 4 E= -2.78102214792026  delta_E= -5.31e-11  |g|= 7.02e-07  |ddm|= 0.00213
    CPU time for cycle= 4      0.02 sec, wall time      0.02 sec
E1 = -3.7772779231199713  E_coul = 0.9962557751997114
  HOMO = -0.892383186360309  LUMO = 0.84124812834978
  mo_energy =
[-0.89238319  0.84124813  3.31069052  8.57950837 16.5518867 ]
E1 = -3.777277869445436  E_coul = 0.9962557215248101
Extra cycle  E= -2.78102214792063  delta_E= -3.65e-13  |g|= 8.33e-08  |ddm|= 0.000127
    CPU time for scf_cycle      0.09 sec, wall time      0.10 sec
exp = [2.68037522 2.15481856 1.63348224 1.0757474  0.29291793]
E = -2.7810221479206256
#INFO: **** input file is /Users/deyanmihaylov/Documents/Work/pyscf_basis_opt/pyscfad_test.py ****
import pyscf
from pyscfad import gto, scf
import numpy as np

from scipy import optimize

# basis_string = '\n'.join([f'''
#     He  S
#         {x}              1.0'''
#         for x in exponent])

def He_energy(exponent):
    mol = gto.Mole()
    mol.atom = 'He 0 0 0'  # in Angstrom

    basis_string = '\n'.join([f'''
    He  S
        {x}              1.0'''
        for x in exponent])
    mol.basis = {'He': pyscf.gto.basis.parse(basis_string)}

    mol.verbose = 5
    mol.build()

    mf = scf.RHF(mol)
    e = mf.kernel()

    print(f"exp = {exponent}")
    print(f"E = {e}")

    return e

def grad_He_energy(exponent):
    mol = gto.Mole()
    mol.atom = 'He 0 0 0'  # in Angstrom

    basis_string = '\n'.join([f'''
    He  S
        {x}              1.0'''
        for x in exponent])
    mol.basis = {'He': pyscf.gto.basis.parse(basis_string)}
    
    mol.verbose = 5
    mol.build()

    mf = scf.RHF(mol)
    mf.kernel()
    jac = mf.energy_grad()

    print(f"exp = {exponent}")
    print(f"grad_E = {jac.exp}")

    grad_E = np.array(jac.exp)

    return grad_E

def minimize_energy(n):
    x0 = [0.5 * (n-i) for i in range(n)]
    bnds = ((1e-6, None) for _ in range(n))

    res = optimize.minimize(
        He_energy,
        x0,
        args=(),
        method="SLSQP",
        jac=grad_He_energy,
        hess=None,
        hessp=None,
        bounds=bnds,
        tol=1e-8,
        callback=None,
        # options={"xtol": 1e-8, "ftol": 1e-8},
    )
    print(res)

minimize_energy(5)

#INFO: ******************** input file end ********************


System: uname_result(system='Darwin', node='Deyans-MacBook-Pro-Home.local', release='22.1.0', version='Darwin Kernel Version 22.1.0: Sun Oct  9 20:14:54 PDT 2022; root:xnu-8792.41.9~2/RELEASE_X86_64', machine='x86_64', processor='i386')  Threads 1
Python 3.8.16 (default, Mar  1 2023, 21:19:10) 
[Clang 14.0.6 ]
numpy 1.24.2  scipy 1.10.1
Date: Mon Mar  6 15:17:01 2023
PySCF version 2.1.1
PySCF path  /Users/deyanmihaylov/opt/anaconda3/envs/pyscfad_env/lib/python3.8/site-packages/pyscf

[CONFIG] conf_file /Users/deyanmihaylov/.pyscf_conf.py
[INPUT] verbose = 5
[INPUT] max_memory = 4000 
[INPUT] num. atoms = 1
[INPUT] num. electrons = 2
[INPUT] charge = 0
[INPUT] spin (= nelec alpha-beta = 2S) = 0
[INPUT] symmetry False subgroup None
[INPUT] Mole.unit = angstrom
[INPUT] Symbol           X                Y                Z      unit          X                Y                Z       unit  Magmom
[INPUT]  1 He     0.000000000000   0.000000000000   0.000000000000 AA    0.000000000000   0.000000000000   0.000000000000 Bohr   0.0
[INPUT] ---------------- BASIS SET ---------------- 
[INPUT] l, kappa, [nprim/nctr], expnt,             c_1 c_2 ...
[INPUT] He
[INPUT] 0    0    [1    /1   ]  2.68037521807        1
[INPUT] 0    0    [1    /1   ]  2.15481855942        1
[INPUT] 0    0    [1    /1   ]  1.63348223698        1
[INPUT] 0    0    [1    /1   ]  1.07574740293        1
[INPUT] 0    0    [1    /1   ]  0.292917925548       1

nuclear repulsion = 0
number of shells = 5
number of NR pGTOs = 5
number of NR cGTOs = 5
basis = {'He': [[0, [2.680375218067687, 1.0]], [0, [2.154818559423237, 1.0]], [0, [1.6334822369833923, 1.0]], [0, [1.0757474029300926, 1.0]], [0, [0.2929179255483889, 1.0]]]}
ecp = {}
CPU time:        12.52
Set gradient conv threshold to 3.16228e-05
cond(S) = 228420.60171390278
E1 = -3.793756422563663  E_coul = 1.018892690958173
init E= -2.77486373160549
    CPU time for initialize scf      0.02 sec, wall time      0.02 sec
  HOMO = -0.880952783938903  LUMO = 0.843257766608742
  mo_energy =
[-0.88095278  0.84325777  3.31868897  8.59326196 16.57746546]
E1 = -3.7789951956759062  E_coul = 0.9979858047360813
cycle= 1 E= -2.78100939093983  delta_E= -0.00615  |g|= 0.0122  |ddm|=    5
    CPU time for cycle= 1      0.01 sec, wall time      0.01 sec
  HOMO = -0.891517802457164  LUMO = 0.841506299115233
  mo_energy =
[-0.8915178   0.8415063   3.31141935  8.58066624 16.5538393 ]
E1 = -3.7773974138656463  E_coul = 0.9963753111814609
cycle= 2 E= -2.78102210268419  delta_E= -1.27e-05  |g|= 0.000617  |ddm|= 0.377
    CPU time for cycle= 2      0.01 sec, wall time      0.01 sec
  HOMO = -0.892376016582733  LUMO = 0.841250927174613
  mo_energy =
[-0.89237602  0.84125093  3.31069919  8.57952082 16.5519016 ]
E1 = -3.7772806301021875  E_coul = 0.9962584822350519
cycle= 3 E= -2.78102214786714  delta_E= -4.52e-08  |g|= 1.98e-05  |ddm|= 0.0337
    CPU time for cycle= 3      0.01 sec, wall time      0.01 sec
  HOMO = -0.892382956794891  LUMO = 0.84124823027437
  mo_energy =
[-0.89238296  0.84124823  3.31069075  8.57950869 16.55188718]
E1 = -3.7772779231199713  E_coul = 0.9962557751997114
cycle= 4 E= -2.78102214792026  delta_E= -5.31e-11  |g|= 7.02e-07  |ddm|= 0.00213
    CPU time for cycle= 4      0.01 sec, wall time      0.01 sec
E1 = -3.7772779231199713  E_coul = 0.9962557751997114
  HOMO = -0.892383186360309  LUMO = 0.84124812834978
  mo_energy =
[-0.89238319  0.84124813  3.31069052  8.57950837 16.5518867 ]
E1 = -3.777277869445436  E_coul = 0.9962557215248101
Extra cycle  E= -2.78102214792063  delta_E= -3.65e-13  |g|= 8.33e-08  |ddm|= 0.000127
    CPU time for scf_cycle      0.06 sec, wall time      0.07 sec
Set gradient conv threshold to 3.16228e-05
cond(S) = 228420.60171390278
E1 = -3.777277869445436  E_coul = 0.9962557215248101
init E= -2.78102214792063
    CPU time for initialize scf      0.03 sec, wall time      0.03 sec
  HOMO = -0.892383213197914  LUMO = 0.841248114667014
  mo_energy =
[-0.89238321  0.84124811  3.31069048  8.57950833 16.55188664]
E1 = -3.7772778605792197  E_coul = 0.9962557126587775
cycle= 1 E= -2.78102214792044  delta_E= 1.83e-13  |g|= 1.25e-08  |ddm|= 1.99e-05
    CPU time for cycle= 1      0.01 sec, wall time      0.01 sec
E1 = -3.7772778605792197  E_coul = 0.9962557126587775
  HOMO = -0.892383217630827  LUMO = 0.841248112538493
  mo_energy =
[-0.89238322  0.84124811  3.31069048  8.57950832 16.55188664]
E1 = -3.777277859048478  E_coul = 0.9962557111281156
Extra cycle  E= -2.78102214792036  delta_E= 7.99e-14  |g|= 1.98e-09  |ddm|= 2.95e-06
    CPU time for scf_cycle      0.07 sec, wall time      0.07 sec
exp = [2.68037522 2.15481856 1.63348224 1.0757474  0.29291793]
grad_E = [-0.01344195 -0.01155553 -0.01033652 -0.00516906 -0.03399519]
#INFO: **** input file is /Users/deyanmihaylov/Documents/Work/pyscf_basis_opt/pyscfad_test.py ****
import pyscf
from pyscfad import gto, scf
import numpy as np

from scipy import optimize

# basis_string = '\n'.join([f'''
#     He  S
#         {x}              1.0'''
#         for x in exponent])

def He_energy(exponent):
    mol = gto.Mole()
    mol.atom = 'He 0 0 0'  # in Angstrom

    basis_string = '\n'.join([f'''
    He  S
        {x}              1.0'''
        for x in exponent])
    mol.basis = {'He': pyscf.gto.basis.parse(basis_string)}

    mol.verbose = 5
    mol.build()

    mf = scf.RHF(mol)
    e = mf.kernel()

    print(f"exp = {exponent}")
    print(f"E = {e}")

    return e

def grad_He_energy(exponent):
    mol = gto.Mole()
    mol.atom = 'He 0 0 0'  # in Angstrom

    basis_string = '\n'.join([f'''
    He  S
        {x}              1.0'''
        for x in exponent])
    mol.basis = {'He': pyscf.gto.basis.parse(basis_string)}
    
    mol.verbose = 5
    mol.build()

    mf = scf.RHF(mol)
    mf.kernel()
    jac = mf.energy_grad()

    print(f"exp = {exponent}")
    print(f"grad_E = {jac.exp}")

    grad_E = np.array(jac.exp)

    return grad_E

def minimize_energy(n):
    x0 = [0.5 * (n-i) for i in range(n)]
    bnds = ((1e-6, None) for _ in range(n))

    res = optimize.minimize(
        He_energy,
        x0,
        args=(),
        method="SLSQP",
        jac=grad_He_energy,
        hess=None,
        hessp=None,
        bounds=bnds,
        tol=1e-8,
        callback=None,
        # options={"xtol": 1e-8, "ftol": 1e-8},
    )
    print(res)

minimize_energy(5)

#INFO: ******************** input file end ********************


System: uname_result(system='Darwin', node='Deyans-MacBook-Pro-Home.local', release='22.1.0', version='Darwin Kernel Version 22.1.0: Sun Oct  9 20:14:54 PDT 2022; root:xnu-8792.41.9~2/RELEASE_X86_64', machine='x86_64', processor='i386')  Threads 1
Python 3.8.16 (default, Mar  1 2023, 21:19:10) 
[Clang 14.0.6 ]
numpy 1.24.2  scipy 1.10.1
Date: Mon Mar  6 15:17:03 2023
PySCF version 2.1.1
PySCF path  /Users/deyanmihaylov/opt/anaconda3/envs/pyscfad_env/lib/python3.8/site-packages/pyscf

[CONFIG] conf_file /Users/deyanmihaylov/.pyscf_conf.py
[INPUT] verbose = 5
[INPUT] max_memory = 4000 
[INPUT] num. atoms = 1
[INPUT] num. electrons = 2
[INPUT] charge = 0
[INPUT] spin (= nelec alpha-beta = 2S) = 0
[INPUT] symmetry False subgroup None
[INPUT] Mole.unit = angstrom
[INPUT] Symbol           X                Y                Z      unit          X                Y                Z       unit  Magmom
[INPUT]  1 He     0.000000000000   0.000000000000   0.000000000000 AA    0.000000000000   0.000000000000   0.000000000000 Bohr   0.0
[INPUT] ---------------- BASIS SET ---------------- 
[INPUT] l, kappa, [nprim/nctr], expnt,             c_1 c_2 ...
[INPUT] He
[INPUT] 0    0    [1    /1   ]  2.97676150423        1
[INPUT] 0    0    [1    /1   ]  2.41022280997        1
[INPUT] 0    0    [1    /1   ]  1.85873679235        1
[INPUT] 0    0    [1    /1   ]  1.20621305185        1
[INPUT] 0    0    [1    /1   ]  0.306753895225       1

nuclear repulsion = 0
number of shells = 5
number of NR pGTOs = 5
number of NR cGTOs = 5
basis = {'He': [[0, [2.976761504228398, 1.0]], [0, [2.410222809973452, 1.0]], [0, [1.8587367923548677, 1.0]], [0, [1.2062130518488694, 1.0]], [0, [0.30675389522483026, 1.0]]]}
ecp = {}
CPU time:        14.38
Set gradient conv threshold to 3.16228e-05
cond(S) = 260578.08775064864
E1 = -3.804810955996107  E_coul = 1.0200958357996128
init E= -2.78471512019649
    CPU time for initialize scf      0.02 sec, wall time      0.02 sec
  HOMO = -0.884958137776023  LUMO = 0.929512717686302
  mo_energy =
[-0.88495814  0.92951272  3.70359312  9.61030679 18.60970984]
E1 = -3.7929271882489153  E_coul = 1.0027504999307773
cycle= 1 E= -2.79017668831814  delta_E= -0.00546  |g|= 0.0113  |ddm|= 2.56
    CPU time for cycle= 1      0.01 sec, wall time      0.01 sec
  HOMO = -0.893717636932989  LUMO = 0.928030040577995
  mo_energy =
[-0.89371764  0.92803004  3.69701972  9.5988819  18.58835436]
E1 = -3.7916215813787844  E_coul = 1.0014353061224734
cycle= 2 E= -2.79018627525631  delta_E= -9.59e-06  |g|= 0.00057  |ddm|= 0.127
    CPU time for cycle= 2      0.01 sec, wall time      0.01 sec
  HOMO = -0.894417053873615  LUMO = 0.927805692243125
  mo_energy =
[-0.89441705  0.92780569  3.69638447  9.59787486 18.58665313]
E1 = -3.7915373347540093  E_coul = 1.0013510292719672
cycle= 3 E= -2.79018630548204  delta_E= -3.02e-08  |g|= 1.06e-05  |ddm|= 0.0108
    CPU time for cycle= 3      0.01 sec, wall time      0.01 sec
  HOMO = -0.894417831932949  LUMO = 0.927805693741516
  mo_energy =
[-0.89441783  0.92780569  3.69638327  9.597873   18.5866516 ]
E1 = -3.7915368300849317  E_coul = 1.0013505245964467
cycle= 4 E= -2.79018630548849  delta_E= -6.44e-12  |g|= 1.65e-07  |ddm|= 0.000909
    CPU time for cycle= 4      0.01 sec, wall time      0.01 sec
E1 = -3.7915368300849317  E_coul = 1.0013505245964467
  HOMO = -0.894417890446018  LUMO = 0.927805670403052
  mo_energy =
[-0.89441789  0.92780567  3.69638321  9.59787292 18.58665147]
E1 = -3.791536818453366  E_coul = 1.0013505129654743
Extra cycle  E= -2.79018630548789  delta_E= 5.93e-13  |g|= 1.6e-08  |ddm|= 9.8e-06
    CPU time for scf_cycle      0.07 sec, wall time      0.07 sec
exp = [2.9767615  2.41022281 1.85873679 1.20621305 0.3067539 ]
E = -2.790186305487892
#INFO: **** input file is /Users/deyanmihaylov/Documents/Work/pyscf_basis_opt/pyscfad_test.py ****
import pyscf
from pyscfad import gto, scf
import numpy as np

from scipy import optimize

# basis_string = '\n'.join([f'''
#     He  S
#         {x}              1.0'''
#         for x in exponent])

def He_energy(exponent):
    mol = gto.Mole()
    mol.atom = 'He 0 0 0'  # in Angstrom

    basis_string = '\n'.join([f'''
    He  S
        {x}              1.0'''
        for x in exponent])
    mol.basis = {'He': pyscf.gto.basis.parse(basis_string)}

    mol.verbose = 5
    mol.build()

    mf = scf.RHF(mol)
    e = mf.kernel()

    print(f"exp = {exponent}")
    print(f"E = {e}")

    return e

def grad_He_energy(exponent):
    mol = gto.Mole()
    mol.atom = 'He 0 0 0'  # in Angstrom

    basis_string = '\n'.join([f'''
    He  S
        {x}              1.0'''
        for x in exponent])
    mol.basis = {'He': pyscf.gto.basis.parse(basis_string)}
    
    mol.verbose = 5
    mol.build()

    mf = scf.RHF(mol)
    mf.kernel()
    jac = mf.energy_grad()

    print(f"exp = {exponent}")
    print(f"grad_E = {jac.exp}")

    grad_E = np.array(jac.exp)

    return grad_E

def minimize_energy(n):
    x0 = [0.5 * (n-i) for i in range(n)]
    bnds = ((1e-6, None) for _ in range(n))

    res = optimize.minimize(
        He_energy,
        x0,
        args=(),
        method="SLSQP",
        jac=grad_He_energy,
        hess=None,
        hessp=None,
        bounds=bnds,
        tol=1e-8,
        callback=None,
        # options={"xtol": 1e-8, "ftol": 1e-8},
    )
    print(res)

minimize_energy(5)

#INFO: ******************** input file end ********************


System: uname_result(system='Darwin', node='Deyans-MacBook-Pro-Home.local', release='22.1.0', version='Darwin Kernel Version 22.1.0: Sun Oct  9 20:14:54 PDT 2022; root:xnu-8792.41.9~2/RELEASE_X86_64', machine='x86_64', processor='i386')  Threads 1
Python 3.8.16 (default, Mar  1 2023, 21:19:10) 
[Clang 14.0.6 ]
numpy 1.24.2  scipy 1.10.1
Date: Mon Mar  6 15:17:03 2023
PySCF version 2.1.1
PySCF path  /Users/deyanmihaylov/opt/anaconda3/envs/pyscfad_env/lib/python3.8/site-packages/pyscf

[CONFIG] conf_file /Users/deyanmihaylov/.pyscf_conf.py
[INPUT] verbose = 5
[INPUT] max_memory = 4000 
[INPUT] num. atoms = 1
[INPUT] num. electrons = 2
[INPUT] charge = 0
[INPUT] spin (= nelec alpha-beta = 2S) = 0
[INPUT] symmetry False subgroup None
[INPUT] Mole.unit = angstrom
[INPUT] Symbol           X                Y                Z      unit          X                Y                Z       unit  Magmom
[INPUT]  1 He     0.000000000000   0.000000000000   0.000000000000 AA    0.000000000000   0.000000000000   0.000000000000 Bohr   0.0
[INPUT] ---------------- BASIS SET ---------------- 
[INPUT] l, kappa, [nprim/nctr], expnt,             c_1 c_2 ...
[INPUT] He
[INPUT] 0    0    [1    /1   ]  2.97676150423        1
[INPUT] 0    0    [1    /1   ]  2.41022280997        1
[INPUT] 0    0    [1    /1   ]  1.85873679235        1
[INPUT] 0    0    [1    /1   ]  1.20621305185        1
[INPUT] 0    0    [1    /1   ]  0.306753895225       1

nuclear repulsion = 0
number of shells = 5
number of NR pGTOs = 5
number of NR cGTOs = 5
basis = {'He': [[0, [2.976761504228398, 1.0]], [0, [2.410222809973452, 1.0]], [0, [1.8587367923548677, 1.0]], [0, [1.2062130518488694, 1.0]], [0, [0.30675389522483026, 1.0]]]}
ecp = {}
CPU time:        14.54
Set gradient conv threshold to 3.16228e-05
cond(S) = 260578.08775064864
E1 = -3.804810955996107  E_coul = 1.0200958357996128
init E= -2.78471512019649
    CPU time for initialize scf      0.02 sec, wall time      0.02 sec
  HOMO = -0.884958137776023  LUMO = 0.929512717686302
  mo_energy =
[-0.88495814  0.92951272  3.70359312  9.61030679 18.60970984]
E1 = -3.7929271882489153  E_coul = 1.0027504999307773
cycle= 1 E= -2.79017668831814  delta_E= -0.00546  |g|= 0.0113  |ddm|= 2.56
    CPU time for cycle= 1      0.01 sec, wall time      0.01 sec
  HOMO = -0.893717636932989  LUMO = 0.928030040577995
  mo_energy =
[-0.89371764  0.92803004  3.69701972  9.5988819  18.58835436]
E1 = -3.7916215813787844  E_coul = 1.0014353061224734
cycle= 2 E= -2.79018627525631  delta_E= -9.59e-06  |g|= 0.00057  |ddm|= 0.127
    CPU time for cycle= 2      0.01 sec, wall time      0.01 sec
  HOMO = -0.894417053873615  LUMO = 0.927805692243125
  mo_energy =
[-0.89441705  0.92780569  3.69638447  9.59787486 18.58665313]
E1 = -3.7915373347540093  E_coul = 1.0013510292719672
cycle= 3 E= -2.79018630548204  delta_E= -3.02e-08  |g|= 1.06e-05  |ddm|= 0.0108
    CPU time for cycle= 3      0.01 sec, wall time      0.01 sec
  HOMO = -0.894417831932949  LUMO = 0.927805693741516
  mo_energy =
[-0.89441783  0.92780569  3.69638327  9.597873   18.5866516 ]
E1 = -3.7915368300849317  E_coul = 1.0013505245964467
cycle= 4 E= -2.79018630548849  delta_E= -6.44e-12  |g|= 1.65e-07  |ddm|= 0.000909
    CPU time for cycle= 4      0.01 sec, wall time      0.01 sec
E1 = -3.7915368300849317  E_coul = 1.0013505245964467
  HOMO = -0.894417890446018  LUMO = 0.927805670403052
  mo_energy =
[-0.89441789  0.92780567  3.69638321  9.59787292 18.58665147]
E1 = -3.791536818453366  E_coul = 1.0013505129654743
Extra cycle  E= -2.79018630548789  delta_E= 5.93e-13  |g|= 1.6e-08  |ddm|= 9.8e-06
    CPU time for scf_cycle      0.06 sec, wall time      0.06 sec
Set gradient conv threshold to 3.16228e-05
cond(S) = 260578.08775064864
E1 = -3.791536818453366  E_coul = 1.0013505129654743
init E= -2.79018630548789
    CPU time for initialize scf      0.03 sec, wall time      0.03 sec
  HOMO = -0.894417896261204  LUMO = 0.92780566745197
  mo_energy =
[-0.8944179   0.92780567  3.6963832   9.59787291 18.58665146]
E1 = -3.791536816687086  E_coul = 1.0013505111988625
cycle= 1 E= -2.79018630548822  delta_E= -3.31e-13  |g|= 2.25e-09  |ddm|= 2.73e-06
    CPU time for cycle= 1      0.01 sec, wall time      0.01 sec
E1 = -3.791536816687086  E_coul = 1.0013505111988625
  HOMO = -0.894417897144678  LUMO = 0.927805667009423
  mo_energy =
[-0.8944179   0.92780567  3.6963832   9.59787291 18.58665146]
E1 = -3.7915368164043923  E_coul = 1.001350510916255
Extra cycle  E= -2.79018630548814  delta_E= 8.62e-14  |g|= 3.43e-10  |ddm|= 4.57e-07
    CPU time for scf_cycle      0.08 sec, wall time      0.08 sec
exp = [2.9767615  2.41022281 1.85873679 1.20621305 0.3067539 ]
grad_E = [-0.01060096 -0.00908277 -0.00803291 -0.00305468 -0.02710159]
#INFO: **** input file is /Users/deyanmihaylov/Documents/Work/pyscf_basis_opt/pyscfad_test.py ****
import pyscf
from pyscfad import gto, scf
import numpy as np

from scipy import optimize

# basis_string = '\n'.join([f'''
#     He  S
#         {x}              1.0'''
#         for x in exponent])

def He_energy(exponent):
    mol = gto.Mole()
    mol.atom = 'He 0 0 0'  # in Angstrom

    basis_string = '\n'.join([f'''
    He  S
        {x}              1.0'''
        for x in exponent])
    mol.basis = {'He': pyscf.gto.basis.parse(basis_string)}

    mol.verbose = 5
    mol.build()

    mf = scf.RHF(mol)
    e = mf.kernel()

    print(f"exp = {exponent}")
    print(f"E = {e}")

    return e

def grad_He_energy(exponent):
    mol = gto.Mole()
    mol.atom = 'He 0 0 0'  # in Angstrom

    basis_string = '\n'.join([f'''
    He  S
        {x}              1.0'''
        for x in exponent])
    mol.basis = {'He': pyscf.gto.basis.parse(basis_string)}
    
    mol.verbose = 5
    mol.build()

    mf = scf.RHF(mol)
    mf.kernel()
    jac = mf.energy_grad()

    print(f"exp = {exponent}")
    print(f"grad_E = {jac.exp}")

    grad_E = np.array(jac.exp)

    return grad_E

def minimize_energy(n):
    x0 = [0.5 * (n-i) for i in range(n)]
    bnds = ((1e-6, None) for _ in range(n))

    res = optimize.minimize(
        He_energy,
        x0,
        args=(),
        method="SLSQP",
        jac=grad_He_energy,
        hess=None,
        hessp=None,
        bounds=bnds,
        tol=1e-8,
        callback=None,
        # options={"xtol": 1e-8, "ftol": 1e-8},
    )
    print(res)

minimize_energy(5)

#INFO: ******************** input file end ********************


System: uname_result(system='Darwin', node='Deyans-MacBook-Pro-Home.local', release='22.1.0', version='Darwin Kernel Version 22.1.0: Sun Oct  9 20:14:54 PDT 2022; root:xnu-8792.41.9~2/RELEASE_X86_64', machine='x86_64', processor='i386')  Threads 1
Python 3.8.16 (default, Mar  1 2023, 21:19:10) 
[Clang 14.0.6 ]
numpy 1.24.2  scipy 1.10.1
Date: Mon Mar  6 15:17:05 2023
PySCF version 2.1.1
PySCF path  /Users/deyanmihaylov/opt/anaconda3/envs/pyscfad_env/lib/python3.8/site-packages/pyscf

[CONFIG] conf_file /Users/deyanmihaylov/.pyscf_conf.py
[INPUT] verbose = 5
[INPUT] max_memory = 4000 
[INPUT] num. atoms = 1
[INPUT] num. electrons = 2
[INPUT] charge = 0
[INPUT] spin (= nelec alpha-beta = 2S) = 0
[INPUT] symmetry False subgroup None
[INPUT] Mole.unit = angstrom
[INPUT] Symbol           X                Y                Z      unit          X                Y                Z       unit  Magmom
[INPUT]  1 He     0.000000000000   0.000000000000   0.000000000000 AA    0.000000000000   0.000000000000   0.000000000000 Bohr   0.0
[INPUT] ---------------- BASIS SET ---------------- 
[INPUT] l, kappa, [nprim/nctr], expnt,             c_1 c_2 ...
[INPUT] He
[INPUT] 0    0    [1    /1   ]  3.98259027707        1
[INPUT] 0    0    [1    /1   ]  3.27685909782        1
[INPUT] 0    0    [1    /1   ]  2.62273935473        1
[INPUT] 0    0    [1    /1   ]  1.64460648229        1
[INPUT] 0    0    [1    /1   ]  0.358583207657       1

nuclear repulsion = 0
number of shells = 5
number of NR pGTOs = 5
number of NR cGTOs = 5
basis = {'He': [[0, [3.9825902770664277, 1.0]], [0, [3.276859097823821, 1.0]], [0, [2.6227393547273476, 1.0]], [0, [1.6446064822942867, 1.0]], [0, [0.35858320765736373, 1.0]]]}
ecp = {}
CPU time:        16.38
Set gradient conv threshold to 3.16228e-05
cond(S) = 366426.18720369507
E1 = -3.8252672079376637  E_coul = 1.022355176356984
init E= -2.80291203158068
    CPU time for initialize scf      0.02 sec, wall time      0.02 sec
  HOMO = -0.893142489220938  LUMO = 1.23706818945363
  mo_energy =
[-0.89314249  1.23706819  5.03845811 13.08768374 25.57254907]
E1 = -3.8258656489413725  E_coul = 1.0171207215842688
cycle= 1 E= -2.8087449273571  delta_E= -0.00583  |g|= 0.0109  |ddm|= 21.1
    CPU time for cycle= 1      0.01 sec, wall time      0.01 sec
  HOMO = -0.895815650596139  LUMO = 1.2383102283104
  mo_energy =
[-0.89581565  1.23831023  5.03723699 13.08382399 25.56245309]
E1 = -3.8252643151327326  E_coul = 1.0165117752218658
cycle= 2 E= -2.80875253991087  delta_E= -7.61e-06  |g|= 0.000763  |ddm|= 1.28
    CPU time for cycle= 2      0.01 sec, wall time      0.01 sec
  HOMO = -0.896140525974235  LUMO = 1.23821269110571
  mo_energy =
[-0.89614053  1.23821269  5.0369066  13.08326512 25.56140952]
E1 = -3.825256581619076  E_coul = 1.016503991458485
cycle= 3 E= -2.80875259016059  delta_E= -5.02e-08  |g|= 3.32e-05  |ddm|= 0.122
    CPU time for cycle= 3      0.01 sec, wall time      0.01 sec
  HOMO = -0.896121424289334  LUMO = 1.23822406161286
  mo_energy =
[-0.89612142  1.23822406  5.03693393 13.08330222 25.56145758]
E1 = -3.825261333186316  E_coul = 1.0165087428585
cycle= 4 E= -2.80875259032782  delta_E= -1.67e-10  |g|= 1.61e-06  |ddm|= 0.00641
    CPU time for cycle= 4      0.01 sec, wall time      0.01 sec
E1 = -3.825261333186316  E_coul = 1.0165087428585
  HOMO = -0.896121923734759  LUMO = 1.23822373474749
  mo_energy =
[-0.89612192  1.23822373  5.03693324 13.08330129 25.56145629]
E1 = -3.8252612251115035  E_coul = 1.0165086347834078
Extra cycle  E= -2.8087525903281  delta_E= -2.8e-13  |g|= 1.53e-07  |ddm|= 0.000207
    CPU time for scf_cycle      0.06 sec, wall time      0.06 sec
exp = [3.98259028 3.2768591  2.62273935 1.64460648 0.35858321]
E = -2.808752590328096
#INFO: **** input file is /Users/deyanmihaylov/Documents/Work/pyscf_basis_opt/pyscfad_test.py ****
import pyscf
from pyscfad import gto, scf
import numpy as np

from scipy import optimize

# basis_string = '\n'.join([f'''
#     He  S
#         {x}              1.0'''
#         for x in exponent])

def He_energy(exponent):
    mol = gto.Mole()
    mol.atom = 'He 0 0 0'  # in Angstrom

    basis_string = '\n'.join([f'''
    He  S
        {x}              1.0'''
        for x in exponent])
    mol.basis = {'He': pyscf.gto.basis.parse(basis_string)}

    mol.verbose = 5
    mol.build()

    mf = scf.RHF(mol)
    e = mf.kernel()

    print(f"exp = {exponent}")
    print(f"E = {e}")

    return e

def grad_He_energy(exponent):
    mol = gto.Mole()
    mol.atom = 'He 0 0 0'  # in Angstrom

    basis_string = '\n'.join([f'''
    He  S
        {x}              1.0'''
        for x in exponent])
    mol.basis = {'He': pyscf.gto.basis.parse(basis_string)}
    
    mol.verbose = 5
    mol.build()

    mf = scf.RHF(mol)
    mf.kernel()
    jac = mf.energy_grad()

    print(f"exp = {exponent}")
    print(f"grad_E = {jac.exp}")

    grad_E = np.array(jac.exp)

    return grad_E

def minimize_energy(n):
    x0 = [0.5 * (n-i) for i in range(n)]
    bnds = ((1e-6, None) for _ in range(n))

    res = optimize.minimize(
        He_energy,
        x0,
        args=(),
        method="SLSQP",
        jac=grad_He_energy,
        hess=None,
        hessp=None,
        bounds=bnds,
        tol=1e-8,
        callback=None,
        # options={"xtol": 1e-8, "ftol": 1e-8},
    )
    print(res)

minimize_energy(5)

#INFO: ******************** input file end ********************


System: uname_result(system='Darwin', node='Deyans-MacBook-Pro-Home.local', release='22.1.0', version='Darwin Kernel Version 22.1.0: Sun Oct  9 20:14:54 PDT 2022; root:xnu-8792.41.9~2/RELEASE_X86_64', machine='x86_64', processor='i386')  Threads 1
Python 3.8.16 (default, Mar  1 2023, 21:19:10) 
[Clang 14.0.6 ]
numpy 1.24.2  scipy 1.10.1
Date: Mon Mar  6 15:17:05 2023
PySCF version 2.1.1
PySCF path  /Users/deyanmihaylov/opt/anaconda3/envs/pyscfad_env/lib/python3.8/site-packages/pyscf

[CONFIG] conf_file /Users/deyanmihaylov/.pyscf_conf.py
[INPUT] verbose = 5
[INPUT] max_memory = 4000 
[INPUT] num. atoms = 1
[INPUT] num. electrons = 2
[INPUT] charge = 0
[INPUT] spin (= nelec alpha-beta = 2S) = 0
[INPUT] symmetry False subgroup None
[INPUT] Mole.unit = angstrom
[INPUT] Symbol           X                Y                Z      unit          X                Y                Z       unit  Magmom
[...]
cycle= 2 E= -2.85989527300058  delta_E= -2.66e-06  |g|= 0.000588  |ddm|= 0.00333
    CPU time for cycle= 2      0.01 sec, wall time      0.01 sec
  HOMO = -0.916869490245712  LUMO = 0.816228671845479
  mo_energy =
[ -0.91686949   0.81622867   5.20252292  26.56106356 173.51807205]
E1 = -3.8860862598288497  E_coul = 1.0261909242297085
cycle= 3 E= -2.85989533559914  delta_E= -6.26e-08  |g|= 2.02e-05  |ddm|= 0.000579
    CPU time for cycle= 3      0.01 sec, wall time      0.01 sec
  HOMO = -0.91685018624808  LUMO = 0.81623629292994
  mo_energy =
[ -0.91685019   0.81623629   5.20255899  26.56112882 173.51815474]
E1 = -3.8860911090679786  E_coul = 1.0261957733757814
cycle= 4 E= -2.8598953356922  delta_E= -9.31e-11  |g|= 3.51e-07  |ddm|= 2.24e-05
    CPU time for cycle= 4      0.01 sec, wall time      0.01 sec
E1 = -3.8860911090679786  E_coul = 1.0261957733757814
  HOMO = -0.916849781158216  LUMO = 0.816236422399911
  mo_energy =
[ -0.91684978   0.81623642   5.2025597   26.56113047 173.51815704]
E1 = -3.8860911639928055  E_coul = 1.0261958283005994
Extra cycle  E= -2.85989533569221  delta_E= -8.88e-15  |g|= 2.11e-08  |ddm|= 1.08e-07
    CPU time for scf_cycle      0.07 sec, wall time      0.07 sec
exp = [97.84683107 14.75266893  3.31721876  0.87447979  0.24497549]
E = -2.8598953356922063
#INFO: **** input file is /Users/deyanmihaylov/Documents/Work/pyscf_basis_opt/pyscfad_test.py ****
import pyscf
from pyscfad import gto, scf
import numpy as np

from scipy import optimize

# basis_string = '\n'.join([f'''
#     He  S
#         {x}              1.0'''
#         for x in exponent])

def He_energy(exponent):
    mol = gto.Mole()
    mol.atom = 'He 0 0 0'  # in Angstrom

    basis_string = '\n'.join([f'''
    He  S
        {x}              1.0'''
        for x in exponent])
    mol.basis = {'He': pyscf.gto.basis.parse(basis_string)}

    mol.verbose = 5
    mol.build()

    mf = scf.RHF(mol)
    e = mf.kernel()

    print(f"exp = {exponent}")
    print(f"E = {e}")

    return e

def grad_He_energy(exponent):
    mol = gto.Mole()
    mol.atom = 'He 0 0 0'  # in Angstrom

    basis_string = '\n'.join([f'''
    He  S
        {x}              1.0'''
        for x in exponent])
    mol.basis = {'He': pyscf.gto.basis.parse(basis_string)}
    
    mol.verbose = 5
    mol.build()

    mf = scf.RHF(mol)
    mf.kernel()
    jac = mf.energy_grad()

    print(f"exp = {exponent}")
    print(f"grad_E = {jac.exp}")

    grad_E = np.array(jac.exp)

    return grad_E

def minimize_energy(n):
    x0 = [0.5 * (n-i) for i in range(n)]
    bnds = ((1e-6, None) for _ in range(n))

    res = optimize.minimize(
        He_energy,
        x0,
        args=(),
        method="SLSQP",
        jac=grad_He_energy,
        hess=None,
        hessp=None,
        bounds=bnds,
        tol=1e-8,
        callback=None,
        # options={"xtol": 1e-8, "ftol": 1e-8},
    )
    print(res)

minimize_energy(5)

#INFO: ******************** input file end ********************


System: uname_result(system='Darwin', node='Deyans-MacBook-Pro-Home.local', release='22.1.0', version='Darwin Kernel Version 22.1.0: Sun Oct  9 20:14:54 PDT 2022; root:xnu-8792.41.9~2/RELEASE_X86_64', machine='x86_64', processor='i386')  Threads 1
Python 3.8.16 (default, Mar  1 2023, 21:19:10) 
[Clang 14.0.6 ]
numpy 1.24.2  scipy 1.10.1
Date: Mon Mar  6 15:20:16 2023
PySCF version 2.1.1
PySCF path  /Users/deyanmihaylov/opt/anaconda3/envs/pyscfad_env/lib/python3.8/site-packages/pyscf

[CONFIG] conf_file /Users/deyanmihaylov/.pyscf_conf.py
[INPUT] verbose = 5
[INPUT] max_memory = 4000 
[INPUT] num. atoms = 1
[INPUT] num. electrons = 2
[INPUT] charge = 0
[INPUT] spin (= nelec alpha-beta = 2S) = 0
[INPUT] symmetry False subgroup None
[INPUT] Mole.unit = angstrom
[INPUT] Symbol           X                Y                Z      unit          X                Y                Z       unit  Magmom
[INPUT]  1 He     0.000000000000   0.000000000000   0.000000000000 AA    0.000000000000   0.000000000000   0.000000000000 Bohr   0.0
[INPUT] ---------------- BASIS SET ---------------- 
[INPUT] l, kappa, [nprim/nctr], expnt,             c_1 c_2 ...
[INPUT] He
[INPUT] 0    0    [1    /1   ]  97.8468310668        1
[INPUT] 0    0    [1    /1   ]  14.7526689254        1
[INPUT] 0    0    [1    /1   ]  3.31721876197        1
[INPUT] 0    0    [1    /1   ]  0.874479785634       1
[INPUT] 0    0    [1    /1   ]  0.244975489462       1

nuclear repulsion = 0
number of shells = 5
number of NR pGTOs = 5
number of NR cGTOs = 5
basis = {'He': [[0, [97.84683106678074, 1.0]], [0, [14.752668925353925, 1.0]], [0, [3.3172187619717666, 1.0]], [0, [0.8744797856335238, 1.0]], [0, [0.24497548946219427, 1.0]]]}
ecp = {}
CPU time:       206.75
Set gradient conv threshold to 3.16228e-05
cond(S) = 35.327472133181374
E1 = -3.8830042812288186  E_coul = 1.0236825215965863
init E= -2.85932175963223
    CPU time for initialize scf      0.02 sec, wall time      0.02 sec
  HOMO = -0.918096757699649  LUMO = 0.815348760930915
  mo_energy =
[ -0.91809676   0.81534876   5.1998537   26.55881905 173.51699287]
E1 = -3.8855651776499527  E_coul = 1.0256725670050826
cycle= 1 E= -2.85989261064487  delta_E= -0.000571  |g|= 0.00429  |ddm|= 0.0238
    CPU time for cycle= 1      0.01 sec, wall time      0.01 sec
  HOMO = -0.917111180021053  LUMO = 0.816109422317084
  mo_energy =
[ -0.91711118   0.81610942   5.20203319  26.56043861 173.51745041]
E1 = -3.8859926021889084  E_coul = 1.0260973291883304
cycle= 2 E= -2.85989527300058  delta_E= -2.66e-06  |g|= 0.000588  |ddm|= 0.00333
    CPU time for cycle= 2      0.01 sec, wall time      0.01 sec
  HOMO = -0.916869490245712  LUMO = 0.816228671845479
  mo_energy =
[ -0.91686949   0.81622867   5.20252292  26.56106356 173.51807205]
E1 = -3.8860862598288497  E_coul = 1.0261909242297085
cycle= 3 E= -2.85989533559914  delta_E= -6.26e-08  |g|= 2.02e-05  |ddm|= 0.000579
    CPU time for cycle= 3      0.01 sec, wall time      0.01 sec
  HOMO = -0.91685018624808  LUMO = 0.81623629292994
  mo_energy =
[ -0.91685019   0.81623629   5.20255899  26.56112882 173.51815474]
E1 = -3.8860911090679786  E_coul = 1.0261957733757814
cycle= 4 E= -2.8598953356922  delta_E= -9.31e-11  |g|= 3.51e-07  |ddm|= 2.24e-05
    CPU time for cycle= 4      0.01 sec, wall time      0.01 sec
E1 = -3.8860911090679786  E_coul = 1.0261957733757814
  HOMO = -0.916849781158216  LUMO = 0.816236422399911
  mo_energy =
[ -0.91684978   0.81623642   5.2025597   26.56113047 173.51815704]
E1 = -3.8860911639928055  E_coul = 1.0261958283005994
Extra cycle  E= -2.85989533569221  delta_E= -8.88e-15  |g|= 2.11e-08  |ddm|= 1.08e-07
    CPU time for scf_cycle      0.07 sec, wall time      0.07 sec
Set gradient conv threshold to 3.16228e-05
cond(S) = 35.327472133181374
E1 = -3.8860911639928055  E_coul = 1.0261958283005994
init E= -2.85989533569221
    CPU time for initialize scf      0.03 sec, wall time      0.03 sec
  HOMO = -0.916849753695797  LUMO = 0.816236431566639
  mo_energy =
[ -0.91684975   0.81623643   5.20255975  26.56113058 173.51815719]
E1 = -3.886091168384833  E_coul = 1.0261958326926284
cycle= 1 E= -2.8598953356922  delta_E= 1.78e-15  |g|= 1.84e-09  |ddm|= 1.08e-08
    CPU time for cycle= 1      0.01 sec, wall time      0.01 sec
E1 = -3.886091168384833  E_coul = 1.0261958326926284
  HOMO = -0.916849751499793  LUMO = 0.816236432360588
  mo_energy =
[ -0.91684975   0.81623643   5.20255975  26.56113059 173.5181572 ]
E1 = -3.8860911688240916  E_coul = 1.0261958331318866
Extra cycle  E= -2.8598953356922  delta_E= -4.44e-16  |g|= 2.62e-10  |ddm|= 1.57e-09
    CPU time for scf_cycle      0.07 sec, wall time      0.07 sec
exp = [97.84683107 14.75266893  3.31721876  0.87447979  0.24497549]
grad_E = [-1.45121006e-07  1.13221159e-06 -3.39837875e-07 -9.02807587e-05
  5.04574221e-04]
#INFO: **** input file is /Users/deyanmihaylov/Documents/Work/pyscf_basis_opt/pyscfad_test.py ****
import pyscf
from pyscfad import gto, scf
import numpy as np

from scipy import optimize

# basis_string = '\n'.join([f'''
#     He  S
#         {x}              1.0'''
#         for x in exponent])

def He_energy(exponent):
    mol = gto.Mole()
    mol.atom = 'He 0 0 0'  # in Angstrom

    basis_string = '\n'.join([f'''
    He  S
        {x}              1.0'''
        for x in exponent])
    mol.basis = {'He': pyscf.gto.basis.parse(basis_string)}

    mol.verbose = 5
    mol.build()

    mf = scf.RHF(mol)
    e = mf.kernel()

    print(f"exp = {exponent}")
    print(f"E = {e}")

    return e

def grad_He_energy(exponent):
    mol = gto.Mole()
    mol.atom = 'He 0 0 0'  # in Angstrom

    basis_string = '\n'.join([f'''
    He  S
        {x}              1.0'''
        for x in exponent])
    mol.basis = {'He': pyscf.gto.basis.parse(basis_string)}
    
    mol.verbose = 5
    mol.build()

    mf = scf.RHF(mol)
    mf.kernel()
    jac = mf.energy_grad()

    print(f"exp = {exponent}")
    print(f"grad_E = {jac.exp}")

    grad_E = np.array(jac.exp)

    return grad_E

def minimize_energy(n):
    x0 = [0.5 * (n-i) for i in range(n)]
    bnds = ((1e-6, None) for _ in range(n))

    res = optimize.minimize(
        He_energy,
        x0,
        args=(),
        method="SLSQP",
        jac=grad_He_energy,
        hess=None,
        hessp=None,
        bounds=bnds,
        tol=1e-8,
        callback=None,
        # options={"xtol": 1e-8, "ftol": 1e-8},
    )
    print(res)

minimize_energy(5)

#INFO: ******************** input file end ********************


System: uname_result(system='Darwin', node='Deyans-MacBook-Pro-Home.local', release='22.1.0', version='Darwin Kernel Version 22.1.0: Sun Oct  9 20:14:54 PDT 2022; root:xnu-8792.41.9~2/RELEASE_X86_64', machine='x86_64', processor='i386')  Threads 1
Python 3.8.16 (default, Mar  1 2023, 21:19:10) 
[Clang 14.0.6 ]
numpy 1.24.2  scipy 1.10.1
Date: Mon Mar  6 15:20:19 2023
PySCF version 2.1.1
PySCF path  /Users/deyanmihaylov/opt/anaconda3/envs/pyscfad_env/lib/python3.8/site-packages/pyscf

[CONFIG] conf_file /Users/deyanmihaylov/.pyscf_conf.py
[INPUT] verbose = 5
[INPUT] max_memory = 4000 
[INPUT] num. atoms = 1
[INPUT] num. electrons = 2
[INPUT] charge = 0
[INPUT] spin (= nelec alpha-beta = 2S) = 0
[INPUT] symmetry False subgroup None
[INPUT] Mole.unit = angstrom
[INPUT] Symbol           X                Y                Z      unit          X                Y                Z       unit  Magmom
[INPUT]  1 He     0.000000000000   0.000000000000   0.000000000000 AA    0.000000000000   0.000000000000   0.000000000000 Bohr   0.0
[INPUT] ---------------- BASIS SET ---------------- 
[INPUT] l, kappa, [nprim/nctr], expnt,             c_1 c_2 ...
[INPUT] He
[INPUT] 0    0    [1    /1   ]  98.0074633614        1
[INPUT] 0    0    [1    /1   ]  14.7558908718        1
[INPUT] 0    0    [1    /1   ]  3.3173775223         1
[INPUT] 0    0    [1    /1   ]  0.873997305869       1
[INPUT] 0    0    [1    /1   ]  0.24462608981        1

nuclear repulsion = 0
number of shells = 5
number of NR pGTOs = 5
number of NR cGTOs = 5
basis = {'He': [[0, [98.00746336142836, 1.0]], [0, [14.755890871800585, 1.0]], [0, [3.317377522302804, 1.0]], [0, [0.8739973058687156, 1.0]], [0, [0.24462608981040848, 1.0]]]}
ecp = {}
CPU time:       209.31
Set gradient conv threshold to 3.16228e-05
cond(S) = 35.25640466390755
E1 = -3.883012596940141  E_coul = 1.0236823690728498
init E= -2.85933022786729
    CPU time for initialize scf      0.02 sec, wall time      0.02 sec
  HOMO = -0.918097080882226  LUMO = 0.814176506295897
  mo_energy =
[ -0.91809708   0.81417651   5.19734274  26.56011379 173.7279807 ]
E1 = -3.8855355106415783  E_coul = 1.025642757134882
cycle= 1 E= -2.8598927535067  delta_E= -0.000563  |g|= 0.00425  |ddm|= 0.0235
    CPU time for cycle= 1      0.01 sec, wall time      0.01 sec
  HOMO = -0.917126132573869  LUMO = 0.814926570834119
  mo_energy =
[ -0.91712613   0.81492657   5.19949231  26.56169518 173.72838904]
E1 = -3.8859585952316635  E_coul = 1.026063233899241
cycle= 2 E= -2.85989536133242  delta_E= -2.61e-06  |g|= 0.000583  |ddm|= 0.0033
    CPU time for cycle= 2      0.01 sec, wall time      0.01 sec
  HOMO = -0.916887020650155  LUMO = 0.81504442854795
  mo_energy =
[ -0.91688702   0.81504443   5.19997685  26.56231323 173.72900313]
E1 = -3.8860513177122233  E_coul = 1.026155894995363
cycle= 3 E= -2.85989542271686  delta_E= -6.14e-08  |g|= 2.04e-05  |ddm|= 0.000573
    CPU time for cycle= 3      0.01 sec, wall time      0.01 sec
  HOMO = -0.916867738039439  LUMO = 0.815052050443739
  mo_energy =
[ -0.91686774   0.81505205   5.2000129   26.56237831 173.72908554]
E1 = -3.8860561821024873  E_coul = 1.0261607592913884
cycle= 4 E= -2.8598954228111  delta_E= -9.42e-11  |g|= 3.46e-07  |ddm|= 2.26e-05
    CPU time for cycle= 4      0.01 sec, wall time      0.01 sec
E1 = -3.8860561821024873  E_coul = 1.0261607592913884
  HOMO = -0.91686733175986  LUMO = 0.815052180643865
  mo_energy =
[ -0.91686733   0.81505218   5.20001361  26.56237996 173.72908784]
E1 = -3.8860562378733197  E_coul = 1.0261608150622112
Extra cycle  E= -2.85989542281111  delta_E= -9.77e-15  |g|= 2.12e-08  |ddm|= 1.1e-07
    CPU time for scf_cycle      0.06 sec, wall time      0.07 sec
exp = [98.00746336 14.75589087  3.31737752  0.87399731  0.24462609]
E = -2.8598954228111086
#INFO: **** input file is /Users/deyanmihaylov/Documents/Work/pyscf_basis_opt/pyscfad_test.py ****
import pyscf
from pyscfad import gto, scf
import numpy as np

from scipy import optimize

# basis_string = '\n'.join([f'''
#     He  S
#         {x}              1.0'''
#         for x in exponent])

def He_energy(exponent):
    mol = gto.Mole()
    mol.atom = 'He 0 0 0'  # in Angstrom

    basis_string = '\n'.join([f'''
    He  S
        {x}              1.0'''
        for x in exponent])
    mol.basis = {'He': pyscf.gto.basis.parse(basis_string)}

    mol.verbose = 5
    mol.build()

    mf = scf.RHF(mol)
    e = mf.kernel()

    print(f"exp = {exponent}")
    print(f"E = {e}")

    return e

def grad_He_energy(exponent):
    mol = gto.Mole()
    mol.atom = 'He 0 0 0'  # in Angstrom

    basis_string = '\n'.join([f'''
    He  S
        {x}              1.0'''
        for x in exponent])
    mol.basis = {'He': pyscf.gto.basis.parse(basis_string)}
    
    mol.verbose = 5
    mol.build()

    mf = scf.RHF(mol)
    mf.kernel()
    jac = mf.energy_grad()

    print(f"exp = {exponent}")
    print(f"grad_E = {jac.exp}")

    grad_E = np.array(jac.exp)

    return grad_E

def minimize_energy(n):
    x0 = [0.5 * (n-i) for i in range(n)]
    bnds = ((1e-6, None) for _ in range(n))

    res = optimize.minimize(
        He_energy,
        x0,
        args=(),
        method="SLSQP",
        jac=grad_He_energy,
        hess=None,
        hessp=None,
        bounds=bnds,
        tol=1e-8,
        callback=None,
        # options={"xtol": 1e-8, "ftol": 1e-8},
    )
    print(res)

minimize_energy(5)

#INFO: ******************** input file end ********************


System: uname_result(system='Darwin', node='Deyans-MacBook-Pro-Home.local', release='22.1.0', version='Darwin Kernel Version 22.1.0: Sun Oct  9 20:14:54 PDT 2022; root:xnu-8792.41.9~2/RELEASE_X86_64', machine='x86_64', processor='i386')  Threads 1
Python 3.8.16 (default, Mar  1 2023, 21:19:10) 
[Clang 14.0.6 ]
numpy 1.24.2  scipy 1.10.1
Date: Mon Mar  6 15:20:19 2023
PySCF version 2.1.1
PySCF path  /Users/deyanmihaylov/opt/anaconda3/envs/pyscfad_env/lib/python3.8/site-packages/pyscf

[CONFIG] conf_file /Users/deyanmihaylov/.pyscf_conf.py
[INPUT] verbose = 5
[INPUT] max_memory = 4000 
[INPUT] num. atoms = 1
[INPUT] num. electrons = 2
[INPUT] charge = 0
[INPUT] spin (= nelec alpha-beta = 2S) = 0
[INPUT] symmetry False subgroup None
[INPUT] Mole.unit = angstrom
[INPUT] Symbol           X                Y                Z      unit          X                Y                Z       unit  Magmom
[INPUT]  1 He     0.000000000000   0.000000000000   0.000000000000 AA    0.000000000000   0.000000000000   0.000000000000 Bohr   0.0
[INPUT] ---------------- BASIS SET ---------------- 
[INPUT] l, kappa, [nprim/nctr], expnt,             c_1 c_2 ...
[INPUT] He
[INPUT] 0    0    [1    /1   ]  98.0074633614        1
[INPUT] 0    0    [1    /1   ]  14.7558908718        1
[INPUT] 0    0    [1    /1   ]  3.3173775223         1
[INPUT] 0    0    [1    /1   ]  0.873997305869       1
[INPUT] 0    0    [1    /1   ]  0.24462608981        1

nuclear repulsion = 0
number of shells = 5
number of NR pGTOs = 5
number of NR cGTOs = 5
basis = {'He': [[0, [98.00746336142836, 1.0]], [0, [14.755890871800585, 1.0]], [0, [3.317377522302804, 1.0]], [0, [0.8739973058687156, 1.0]], [0, [0.24462608981040848, 1.0]]]}
ecp = {}
CPU time:       210.20
Set gradient conv threshold to 3.16228e-05
cond(S) = 35.25640466390755
E1 = -3.883012596940141  E_coul = 1.0236823690728498
init E= -2.85933022786729
    CPU time for initialize scf      0.02 sec, wall time      0.02 sec
  HOMO = -0.918097080882226  LUMO = 0.814176506295897
  mo_energy =
[ -0.91809708   0.81417651   5.19734274  26.56011379 173.7279807 ]
E1 = -3.8855355106415783  E_coul = 1.025642757134882
cycle= 1 E= -2.8598927535067  delta_E= -0.000563  |g|= 0.00425  |ddm|= 0.0235
    CPU time for cycle= 1      0.01 sec, wall time      0.01 sec
  HOMO = -0.917126132573869  LUMO = 0.814926570834119
  mo_energy =
[ -0.91712613   0.81492657   5.19949231  26.56169518 173.72838904]
E1 = -3.8859585952316635  E_coul = 1.026063233899241
cycle= 2 E= -2.85989536133242  delta_E= -2.61e-06  |g|= 0.000583  |ddm|= 0.0033
    CPU time for cycle= 2      0.01 sec, wall time      0.01 sec
  HOMO = -0.916887020650155  LUMO = 0.81504442854795
  mo_energy =
[ -0.91688702   0.81504443   5.19997685  26.56231323 173.72900313]
E1 = -3.8860513177122233  E_coul = 1.026155894995363
cycle= 3 E= -2.85989542271686  delta_E= -6.14e-08  |g|= 2.04e-05  |ddm|= 0.000573
    CPU time for cycle= 3      0.01 sec, wall time      0.01 sec
  HOMO = -0.916867738039439  LUMO = 0.815052050443739
  mo_energy =
[ -0.91686774   0.81505205   5.2000129   26.56237831 173.72908554]
E1 = -3.8860561821024873  E_coul = 1.0261607592913884
cycle= 4 E= -2.8598954228111  delta_E= -9.42e-11  |g|= 3.46e-07  |ddm|= 2.26e-05
    CPU time for cycle= 4      0.01 sec, wall time      0.01 sec
E1 = -3.8860561821024873  E_coul = 1.0261607592913884
  HOMO = -0.91686733175986  LUMO = 0.815052180643865
  mo_energy =
[ -0.91686733   0.81505218   5.20001361  26.56237996 173.72908784]
E1 = -3.8860562378733197  E_coul = 1.0261608150622112
Extra cycle  E= -2.85989542281111  delta_E= -9.77e-15  |g|= 2.12e-08  |ddm|= 1.1e-07
    CPU time for scf_cycle      0.06 sec, wall time      0.06 sec
Set gradient conv threshold to 3.16228e-05
cond(S) = 35.25640466390755
E1 = -3.8860562378733197  E_coul = 1.0261608150622112
init E= -2.85989542281111
    CPU time for initialize scf      0.03 sec, wall time      0.03 sec
  HOMO = -0.91686730387445  LUMO = 0.815052190009922
  mo_energy =
[ -0.9168673    0.81505219   5.20001366  26.56238007 173.72908799]
E1 = -3.886056242428027  E_coul = 1.0261608196169179
cycle= 1 E= -2.85989542281111  delta_E= -4.44e-16  |g|= 1.96e-09  |ddm|= 1.16e-08
    CPU time for cycle= 1      0.01 sec, wall time      0.01 sec
E1 = -3.886056242428027  E_coul = 1.0261608196169179
  HOMO = -0.916867301597097  LUMO = 0.815052190840185
  mo_energy =
[ -0.9168673    0.81505219   5.20001366  26.56238008 173.729088  ]
E1 = -3.886056242894647  E_coul = 1.0261608200835364
Extra cycle  E= -2.85989542281111  delta_E= -1.33e-15  |g|= 2.88e-10  |ddm|= 1.72e-09
    CPU time for scf_cycle      0.07 sec, wall time      0.07 sec
exp = [98.00746336 14.75589087  3.31737752  0.87399731  0.24462609]
grad_E = [-2.63976232e-09 -3.04551839e-07  1.85684474e-06 -2.01358990e-05
  8.69666170e-05]
 message: Optimization terminated successfully
 success: True
  status: 0
     fun: -2.8598954228111086
       x: [ 9.801e+01  1.476e+01  3.317e+00  8.740e-01  2.446e-01]
     nit: 74
     jac: [-2.640e-09 -3.046e-07  1.857e-06 -2.014e-05  8.697e-05]
    nfev: 79
    njev: 74
