#INFO: **** input file is /Users/deyanmihaylov/Documents/Work/pyscf_basis_opt/pyscfad_test.py ****
import pyscf
from pyscfad import gto, scf
import numpy as np

from scipy import optimize

# basis_string = '\n'.join([f'''
#     He  S
#         {x}              1.0'''
#         for x in exponent])

def He_energy(exponent):
    mol = gto.Mole()
    mol.atom = 'He 0 0 0'  # in Angstrom

    basis_string = '\n'.join([f'''
    He  S
        {x}              1.0'''
        for x in exponent])
    mol.basis = {'He': pyscf.gto.basis.parse(basis_string)}

    mol.verbose = 5
    mol.build()

    mf = scf.RHF(mol)
    e = mf.kernel()

    print(f"exp = {exponent}")
    print(f"E = {e}")

    return e

def grad_He_energy(exponent):
    mol = gto.Mole()
    mol.atom = 'He 0 0 0'  # in Angstrom

    basis_string = '\n'.join([f'''
    He  S
        {x}              1.0'''
        for x in exponent])
    mol.basis = {'He': pyscf.gto.basis.parse(basis_string)}
    
    mol.verbose = 5
    mol.build()

    mf = scf.RHF(mol)
    mf.kernel()
    jac = mf.energy_grad()

    print(f"exp = {exponent}")
    print(f"grad_E = {jac.exp}")

    grad_E = np.array(jac.exp)

    return grad_E

def minimize_energy(n):
    x0 = [0.5 * (n-i) for i in range(n)]
    bnds = ((1e-6, None) for _ in range(n))

    res = optimize.minimize(
        He_energy,
        x0,
        args=(),
        method="SLSQP",
        jac=grad_He_energy,
        hess=None,
        hessp=None,
        bounds=bnds,
        tol=1e-8,
        callback=None,
        # options={"xtol": 1e-8, "ftol": 1e-8},
    )
    print(res)

minimize_energy(3)


System: uname_result(system='Darwin', node='Deyans-MacBook-Pro-Home.local', release='22.1.0', version='Darwin Kernel Version 22.1.0: Sun Oct  9 20:14:54 PDT 2022; root:xnu-8792.41.9~2/RELEASE_X86_64', machine='x86_64', processor='i386')  Threads 1
Python 3.8.16 (default, Mar  1 2023, 21:19:10) 
[Clang 14.0.6 ]
numpy 1.24.2  scipy 1.10.1
Date: Mon Mar  6 15:01:48 2023
PySCF version 2.1.1
PySCF path  /Users/deyanmihaylov/opt/anaconda3/envs/pyscfad_env/lib/python3.8/site-packages/pyscf

[CONFIG] conf_file /Users/deyanmihaylov/.pyscf_conf.py
[INPUT] verbose = 5
[INPUT] max_memory = 4000 
[INPUT] num. atoms = 1
[INPUT] num. electrons = 2
[INPUT] charge = 0
[INPUT] spin (= nelec alpha-beta = 2S) = 0
[INPUT] symmetry False subgroup None
[INPUT] Mole.unit = angstrom
[INPUT] Symbol           X                Y                Z      unit          X                Y                Z       unit  Magmom
[INPUT]  1 He     0.000000000000   0.000000000000   0.000000000000 AA    0.000000000000   0.000000000000   0.000000000000 Bohr   0.0
[INPUT] ---------------- BASIS SET ---------------- 
[INPUT] l, kappa, [nprim/nctr], expnt,             c_1 c_2 ...
[INPUT] He
[INPUT] 0    0    [1    /1   ]  1.5                  1
[INPUT] 0    0    [1    /1   ]  1                    1
[INPUT] 0    0    [1    /1   ]  0.5                  1

nuclear repulsion = 0
number of shells = 3
number of NR pGTOs = 3
number of NR cGTOs = 3
basis = {'He': [[0, [1.5, 1.0]], [0, [1.0, 1.0]], [0, [0.5, 1.0]]]}
ecp = {}
CPU time:         1.06
Set gradient conv threshold to 3.16228e-05
cond(S) = 534.7328219544956
E1 = -3.6165014208895343  E_coul = 0.9941505692055911
init E= -2.62235085168394
    CPU time for initialize scf      0.11 sec, wall time      0.11 sec
  HOMO = -0.828324530545272  LUMO = 1.48813617720673
  mo_energy =
[-0.82832453  1.48813618  4.77933295]
E1 = -3.629467726441384  E_coul = 0.9773529101589499
cycle= 1 E= -2.65211481628243  delta_E= -0.0298  |g|= 0.0344  |ddm|= 2.26
    CPU time for cycle= 1      0.25 sec, wall time      0.25 sec
  HOMO = -0.837444817598505  LUMO = 1.49554497596787
  mo_energy =
[-0.83744482  1.49554498  4.77435195]
E1 = -3.6255231804733  E_coul = 0.9732692913148208
cycle= 2 E= -2.65225388915848  delta_E= -0.000139  |g|= 0.00306  |ddm|= 0.197
    CPU time for cycle= 2      0.07 sec, wall time      0.07 sec
  HOMO = -0.839691458564032  LUMO = 1.49473990869774
  mo_energy =
[-0.83969146  1.49473991  4.77143048]
E1 = -3.6251315109365474  E_coul = 0.9728765145630002
cycle= 3 E= -2.65225499637355  delta_E= -1.11e-06  |g|= 4.32e-06  |ddm|= 0.0194
    CPU time for cycle= 3      0.01 sec, wall time      0.01 sec
  HOMO = -0.839688939712789  LUMO = 1.49474023900453
  mo_energy =
[-0.83968894  1.49474024  4.77143129]
E1 = -3.625131754825602  E_coul = 0.9728767584497712
cycle= 4 E= -2.65225499637583  delta_E= -2.28e-12  |g|= 5.41e-08  |ddm|= 5.88e-05
    CPU time for cycle= 4      0.01 sec, wall time      0.01 sec
E1 = -3.625131754825602  E_coul = 0.9728767584497712
  HOMO = -0.839689118963031  LUMO = 1.49474029891724
  mo_energy =
[-0.83968912  1.4947403   4.7714314 ]
E1 = -3.625131766594653  E_coul = 0.9728767702188204
Extra cycle  E= -2.65225499637583  delta_E= -1.78e-15  |g|= 6.61e-09  |ddm|= 4.92e-07
    CPU time for scf_cycle      0.45 sec, wall time      0.45 sec
exp = [1.5 1.  0.5]
E = -2.6522549963758326
#INFO: **** input file is /Users/deyanmihaylov/Documents/Work/pyscf_basis_opt/pyscfad_test.py ****
import pyscf
from pyscfad import gto, scf
import numpy as np

from scipy import optimize

# basis_string = '\n'.join([f'''
#     He  S
#         {x}              1.0'''
#         for x in exponent])

def He_energy(exponent):
    mol = gto.Mole()
    mol.atom = 'He 0 0 0'  # in Angstrom

    basis_string = '\n'.join([f'''
    He  S
        {x}              1.0'''
        for x in exponent])
    mol.basis = {'He': pyscf.gto.basis.parse(basis_string)}

    mol.verbose = 5
    mol.build()

    mf = scf.RHF(mol)
    e = mf.kernel()

    print(f"exp = {exponent}")
    print(f"E = {e}")

    return e

def grad_He_energy(exponent):
    mol = gto.Mole()
    mol.atom = 'He 0 0 0'  # in Angstrom

    basis_string = '\n'.join([f'''
    He  S
        {x}              1.0'''
        for x in exponent])
    mol.basis = {'He': pyscf.gto.basis.parse(basis_string)}
    
    mol.verbose = 5
    mol.build()

    mf = scf.RHF(mol)
    mf.kernel()
    jac = mf.energy_grad()

    print(f"exp = {exponent}")
    print(f"grad_E = {jac.exp}")

    grad_E = np.array(jac.exp)

    return grad_E

def run_minimize(n):
    print(f"Searching in {n} dimensions")
    
    cons = (
        {'type': 'ineq', 'fun': lambda x: x[i] - x[i+1]}
        for i in range(n-1)
    )

    minimize_methods = [
        "Nelder-Mead",
        "Powell",
        "CG",
        "BFGS",
        "Newton-CG",
        "L-BFGS-B",
        "TNC",
        "COBYLA",
        "SLSQP",
        "trust-constr",
        "dogleg",
        "trust-ncg",
        "trust-exact",
        "trust-krylov",
    ]

    for method in minimize_methods:
        print(f"Using method {method}")

        if method not in ["Powell", "COBYLA"]:
            jac = grad_He_energy
        else:
            jac = None

        if method not in ["CG", "BFGS", "Newton-CG", "COBYLA"]:
            bnds = ((1e-6, None) for _ in range(n))
        else:
            bnds = None

        counter = 0
        while True:
            try:
                x0 = np.random.uniform(low=1e-6, high=10.0, size=n)

                res = optimize.minimize(
                    He_energy,
                    x0,
                    args=(),
                    method=method,
                    jac=jac,
                    hess=None,
                    hessp=None,
                    bounds=bnds,
                    # constraints=cons,
                    tol=1e-8,
                    callback=None,
                    # options={"xtol": 1e-8, "ftol": 1e-8},
                )
                print(res)
                break
            except:
                print(f"Method {method} failed with x0 = {x0} for n = {n}")
                counter += 1

                if counter > 10: break


def minimize_energy(n):
    x0 = [0.5 * (n-i) for i in range(n)]
    bnds = ((1e-6, None) for _ in range(n))

    res = optimize.minimize(
        He_energy,
        x0,
        args=(),
        method="SLSQP",
        jac=grad_He_energy,
        hess=None,
        hessp=None,
        bounds=bnds,
        tol=1e-8,
        callback=None,
        # options={"xtol": 1e-8, "ftol": 1e-8},
    )
    print(res)

minimize_energy(3)





# res = optimize.root(
#     grad_He_energy,
#     [1, 1e-4],
#     args=(),
#     method='hybr',
#     jac=None,
#     tol=None,
#     callback=None,
#     options=None,
# )

# print(res)
# print(He_energy(res.x))



# print(grad_He_energy([1.880e+00, 3.031e-01]))

# resbrute = optimize.direct(
#     He_energy,
#     ((1e-4,20), (1e-4,20)),
#     maxfun=100000,
#     maxiter=100000,
#     locally_biased=False,
# )

# print(resbrute)



# x0 = [0.1432879285E+01]
# res = optimize.minimize(
#     He_energy,
#     x0,
#     jac=grad_He_energy,
#     bounds=(Bounds(lb=1e-4)),
#     method='SLSQP', tol=1e-8,
# )

# minimizer_kwargs = {"method": "SLSQP", "jac": grad_He_energy, "bounds": ((1e-4, None), (1e-4, None)),}
# res = basinhopping(
#     He_energy,
#     x0,
#     niter=100,
#     minimizer_kwargs=minimizer_kwargs,
#     T=1,
#     )

# print(res.x)
# print(He_energy(res.x))
# print(res.values())

# print("E", He_energy(71.6168370))

# print(f'Nuclaer gradient:\n{jac.coords}')
# print(f'Gradient wrt basis exponents:\n{jac.exp}')
# print(f'Gradient wrt basis contraction coefficients:\n{jac.ctr_coeff}')#INFO: ******************** input file end ********************


System: uname_result(system='Darwin', node='Deyans-MacBook-Pro-Home.local', release='22.1.0', version='Darwin Kernel Version 22.1.0: Sun Oct  9 20:14:54 PDT 2022; root:xnu-8792.41.9~2/RELEASE_X86_64', machine='x86_64', processor='i386')  Threads 1
Python 3.8.16 (default, Mar  1 2023, 21:19:10) 
[Clang 14.0.6 ]
numpy 1.24.2  scipy 1.10.1
Date: Mon Mar  6 15:01:48 2023
PySCF version 2.1.1
PySCF path  /Users/deyanmihaylov/opt/anaconda3/envs/pyscfad_env/lib/python3.8/site-packages/pyscf

[CONFIG] conf_file /Users/deyanmihaylov/.pyscf_conf.py
[INPUT] verbose = 5
[INPUT] max_memory = 4000 
[INPUT] num. atoms = 1
[INPUT] num. electrons = 2
[INPUT] charge = 0
[INPUT] spin (= nelec alpha-beta = 2S) = 0
[INPUT] symmetry False subgroup None
[INPUT] Mole.unit = angstrom
[INPUT] Symbol           X                Y                Z      unit          X                Y                Z       unit  Magmom
[INPUT]  1 He     0.000000000000   0.000000000000   0.000000000000 AA    0.000000000000   0.000000000000   0.000000000000 Bohr   0.0
[INPUT] ---------------- BASIS SET ---------------- 
[INPUT] l, kappa, [nprim/nctr], expnt,             c_1 c_2 ...
[INPUT] He
[INPUT] 0    0    [1    /1   ]  1.5                  1
[INPUT] 0    0    [1    /1   ]  1                    1
[INPUT] 0    0    [1    /1   ]  0.5                  1

nuclear repulsion = 0
number of shells = 3
number of NR pGTOs = 3
number of NR cGTOs = 3
basis = {'He': [[0, [1.5, 1.0]], [0, [1.0, 1.0]], [0, [0.5, 1.0]]]}
ecp = {}
CPU time:         1.61
Set gradient conv threshold to 3.16228e-05
cond(S) = 534.7328219544956
E1 = -3.6165014208895343  E_coul = 0.9941505692055911
init E= -2.62235085168394
    CPU time for initialize scf      0.02 sec, wall time      0.02 sec
  HOMO = -0.828324530545272  LUMO = 1.48813617720673
  mo_energy =
[-0.82832453  1.48813618  4.77933295]
E1 = -3.629467726441384  E_coul = 0.9773529101589499
cycle= 1 E= -2.65211481628243  delta_E= -0.0298  |g|= 0.0344  |ddm|= 2.26
    CPU time for cycle= 1      0.01 sec, wall time      0.01 sec
  HOMO = -0.837444817598505  LUMO = 1.49554497596787
  mo_energy =
[-0.83744482  1.49554498  4.77435195]
E1 = -3.6255231804733  E_coul = 0.9732692913148208
cycle= 2 E= -2.65225388915848  delta_E= -0.000139  |g|= 0.00306  |ddm|= 0.197
    CPU time for cycle= 2      0.01 sec, wall time      0.01 sec
  HOMO = -0.839691458564032  LUMO = 1.49473990869774
  mo_energy =
[-0.83969146  1.49473991  4.77143048]
E1 = -3.6251315109365474  E_coul = 0.9728765145630002
cycle= 3 E= -2.65225499637355  delta_E= -1.11e-06  |g|= 4.32e-06  |ddm|= 0.0194
    CPU time for cycle= 3      0.01 sec, wall time      0.01 sec
  HOMO = -0.839688939712789  LUMO = 1.49474023900453
  mo_energy =
[-0.83968894  1.49474024  4.77143129]
E1 = -3.625131754825602  E_coul = 0.9728767584497712
cycle= 4 E= -2.65225499637583  delta_E= -2.28e-12  |g|= 5.41e-08  |ddm|= 5.88e-05
    CPU time for cycle= 4      0.01 sec, wall time      0.01 sec
E1 = -3.625131754825602  E_coul = 0.9728767584497712
  HOMO = -0.839689118963031  LUMO = 1.49474029891724
  mo_energy =
[-0.83968912  1.4947403   4.7714314 ]
E1 = -3.625131766594653  E_coul = 0.9728767702188204
Extra cycle  E= -2.65225499637583  delta_E= -1.78e-15  |g|= 6.61e-09  |ddm|= 4.92e-07
    CPU time for scf_cycle      0.06 sec, wall time      0.06 sec
Set gradient conv threshold to 3.16228e-05
cond(S) = 534.7328219544956
E1 = -3.625131766594653  E_coul = 0.9728767702188204
init E= -2.65225499637583
    CPU time for initialize scf      0.22 sec, wall time      0.22 sec
  HOMO = -0.839689113078507  LUMO = 1.49474030188044
  mo_energy =
[-0.83968911  1.4947403   4.77143141]
E1 = -3.625131767923533  E_coul = 0.9728767715476988
cycle= 1 E= -2.65225499637583  delta_E= -1.33e-15  |g|= 8.56e-10  |ddm|= 7.25e-08
    CPU time for cycle= 1      0.01 sec, wall time      0.01 sec
E1 = -3.625131767923533  E_coul = 0.9728767715476988
  HOMO = -0.839689112414068  LUMO = 1.49474030222931
  mo_energy =
[-0.83968911  1.4947403   4.77143141]
E1 = -3.6251317680786066  E_coul = 0.9728767717027748
Extra cycle  E= -2.65225499637583  delta_E= 2.22e-15  |g|= 1.13e-10  |ddm|= 1.02e-08
    CPU time for scf_cycle      0.77 sec, wall time      0.77 sec
exp = [1.5 1.  0.5]
grad_E = [-0.07174848 -0.04232189 -0.0096549 ]
#INFO: **** input file is /Users/deyanmihaylov/Documents/Work/pyscf_basis_opt/pyscfad_test.py ****
import pyscf
from pyscfad import gto, scf
import numpy as np

from scipy import optimize

# basis_string = '\n'.join([f'''
#     He  S
#         {x}              1.0'''
#         for x in exponent])

def He_energy(exponent):
    mol = gto.Mole()
    mol.atom = 'He 0 0 0'  # in Angstrom

    basis_string = '\n'.join([f'''
    He  S
        {x}              1.0'''
        for x in exponent])
    mol.basis = {'He': pyscf.gto.basis.parse(basis_string)}

    mol.verbose = 5
    mol.build()

    mf = scf.RHF(mol)
    e = mf.kernel()

    print(f"exp = {exponent}")
    print(f"E = {e}")

    return e

def grad_He_energy(exponent):
    mol = gto.Mole()
    mol.atom = 'He 0 0 0'  # in Angstrom

    basis_string = '\n'.join([f'''
    He  S
        {x}              1.0'''
        for x in exponent])
    mol.basis = {'He': pyscf.gto.basis.parse(basis_string)}
    
    mol.verbose = 5
    mol.build()

    mf = scf.RHF(mol)
    mf.kernel()
    jac = mf.energy_grad()

    print(f"exp = {exponent}")
    print(f"grad_E = {jac.exp}")

    grad_E = np.array(jac.exp)

    return grad_E

def run_minimize(n):
    print(f"Searching in {n} dimensions")
    
    cons = (
        {'type': 'ineq', 'fun': lambda x: x[i] - x[i+1]}
        for i in range(n-1)
    )

    minimize_methods = [
        "Nelder-Mead",
        "Powell",
        "CG",
        "BFGS",
        "Newton-CG",
        "L-BFGS-B",
        "TNC",
        "COBYLA",
        "SLSQP",
        "trust-constr",
        "dogleg",
        "trust-ncg",
        "trust-exact",
        "trust-krylov",
    ]

    for method in minimize_methods:
        print(f"Using method {method}")

        if method not in ["Powell", "COBYLA"]:
            jac = grad_He_energy
        else:
            jac = None

        if method not in ["CG", "BFGS", "Newton-CG", "COBYLA"]:
            bnds = ((1e-6, None) for _ in range(n))
        else:
            bnds = None

        counter = 0
        while True:
            try:
                x0 = np.random.uniform(low=1e-6, high=10.0, size=n)

                res = optimize.minimize(
                    He_energy,
                    x0,
                    args=(),
                    method=method,
                    jac=jac,
                    hess=None,
                    hessp=None,
                    bounds=bnds,
                    # constraints=cons,
                    tol=1e-8,
                    callback=None,
                    # options={"xtol": 1e-8, "ftol": 1e-8},
                )
                print(res)
                break
            except:
                print(f"Method {method} failed with x0 = {x0} for n = {n}")
                counter += 1

                if counter > 10: break


def minimize_energy(n):
    x0 = [0.5 * (n-i) for i in range(n)]
    bnds = ((1e-6, None) for _ in range(n))

    res = optimize.minimize(
        He_energy,
        x0,
        args=(),
        method="SLSQP",
        jac=grad_He_energy,
        hess=None,
        hessp=None,
        bounds=bnds,
        tol=1e-8,
        callback=None,
        # options={"xtol": 1e-8, "ftol": 1e-8},
    )
    print(res)

minimize_energy(3)





# res = optimize.root(
#     grad_He_energy,
#     [1, 1e-4],
#     args=(),
#     method='hybr',
#     jac=None,
#     tol=None,
#     callback=None,
#     options=None,
# )

# print(res)
# print(He_energy(res.x))



# print(grad_He_energy([1.880e+00, 3.031e-01]))

# resbrute = optimize.direct(
#     He_energy,
#     ((1e-4,20), (1e-4,20)),
#     maxfun=100000,
#     maxiter=100000,
#     locally_biased=False,
# )

# print(resbrute)



# x0 = [0.1432879285E+01]
# res = optimize.minimize(
#     He_energy,
#     x0,
#     jac=grad_He_energy,
#     bounds=(Bounds(lb=1e-4)),
#     method='SLSQP', tol=1e-8,
# )

# minimizer_kwargs = {"method": "SLSQP", "jac": grad_He_energy, "bounds": ((1e-4, None), (1e-4, None)),}
# res = basinhopping(
#     He_energy,
#     x0,
#     niter=100,
#     minimizer_kwargs=minimizer_kwargs,
#     T=1,
#     )

# print(res.x)
# print(He_energy(res.x))
# print(res.values())

# print("E", He_energy(71.6168370))

# print(f'Nuclaer gradient:\n{jac.coords}')
# print(f'Gradient wrt basis exponents:\n{jac.exp}')
# print(f'Gradient wrt basis contraction coefficients:\n{jac.ctr_coeff}')#INFO: ******************** input file end ********************


System: uname_result(system='Darwin', node='Deyans-MacBook-Pro-Home.local', release='22.1.0', version='Darwin Kernel Version 22.1.0: Sun Oct  9 20:14:54 PDT 2022; root:xnu-8792.41.9~2/RELEASE_X86_64', machine='x86_64', processor='i386')  Threads 1
Python 3.8.16 (default, Mar  1 2023, 21:19:10) 
[Clang 14.0.6 ]
numpy 1.24.2  scipy 1.10.1
Date: Mon Mar  6 15:01:52 2023
PySCF version 2.1.1
PySCF path  /Users/deyanmihaylov/opt/anaconda3/envs/pyscfad_env/lib/python3.8/site-packages/pyscf

[CONFIG] conf_file /Users/deyanmihaylov/.pyscf_conf.py
[INPUT] verbose = 5
[INPUT] max_memory = 4000 
[INPUT] num. atoms = 1
[INPUT] num. electrons = 2
[INPUT] charge = 0
[INPUT] spin (= nelec alpha-beta = 2S) = 0
[INPUT] symmetry False subgroup None
[INPUT] Mole.unit = angstrom
[INPUT] Symbol           X                Y                Z      unit          X                Y                Z       unit  Magmom
[INPUT]  1 He     0.000000000000   0.000000000000   0.000000000000 AA    0.000000000000   0.000000000000   0.000000000000 Bohr   0.0
[INPUT] ---------------- BASIS SET ---------------- 
[INPUT] l, kappa, [nprim/nctr], expnt,             c_1 c_2 ...
[INPUT] He
[INPUT] 0    0    [1    /1   ]  1.57174848072        1
[INPUT] 0    0    [1    /1   ]  1.04232188718        1
[INPUT] 0    0    [1    /1   ]  0.509654901053       1

nuclear repulsion = 0
number of shells = 3
number of NR pGTOs = 3
number of NR cGTOs = 3
basis = {'He': [[0, [1.5717484807159159, 1.0]], [0, [1.0423218871767657, 1.0]], [0, [0.509654901052853, 1.0]]]}
ecp = {}
CPU time:         5.74
Set gradient conv threshold to 3.16228e-05
cond(S) = 491.9063391213217
E1 = -3.6259446450859665  E_coul = 0.9970299748473743
init E= -2.62891467023859
    CPU time for initialize scf      0.02 sec, wall time      0.02 sec
  HOMO = -0.830240548065818  LUMO = 1.54258269240557
  mo_energy =
[-0.83024055  1.54258269  4.97529457]
E1 = -3.6424802743563616  E_coul = 0.983705675162868
cycle= 1 E= -2.65877459919349  delta_E= -0.0299  |g|= 0.0349  |ddm|=  2.2
    CPU time for cycle= 1      0.01 sec, wall time      0.01 sec
  HOMO = -0.837595259317153  LUMO = 1.55086597584018
  mo_energy =
[-0.83759526  1.55086598  4.97234684]
E1 = -3.6389413239697355  E_coul = 0.9800344962780266
cycle= 2 E= -2.65890682769171  delta_E= -0.000132  |g|= 0.0031  |ddm|= 0.193
    CPU time for cycle= 2      0.01 sec, wall time      0.01 sec
  HOMO = -0.839608193276476  LUMO = 1.55015091862158
  mo_energy =
[-0.83960819  1.55015092  4.96968021]
E1 = -3.638609825528994  E_coul = 0.9797019745598605
cycle= 3 E= -2.65890785096913  delta_E= -1.02e-06  |g|= 2.02e-05  |ddm|= 0.0196
    CPU time for cycle= 3      0.01 sec, wall time      0.01 sec
  HOMO = -0.839602007380711  LUMO = 1.55015464284499
  mo_energy =
[-0.83960201  1.55015464  4.9696878 ]
E1 = -3.6386113384193184  E_coul = 0.979703487398733
cycle= 4 E= -2.65890785102059  delta_E= -5.15e-11  |g|= 6.24e-08  |ddm|= 0.000249
    CPU time for cycle= 4      0.01 sec, wall time      0.01 sec
E1 = -3.6386113384193184  E_coul = 0.979703487398733
  HOMO = -0.839602181810926  LUMO = 1.55015468600078
  mo_energy =
[-0.83960218  1.55015469  4.9696879 ]
E1 = -3.6386113520087253  E_coul = 0.9797035009881384
Extra cycle  E= -2.65890785102059  delta_E= -1.78e-15  |g|= 7.3e-09  |ddm|= 4.61e-07
    CPU time for scf_cycle      0.06 sec, wall time      0.06 sec
exp = [1.57174848 1.04232189 0.5096549 ]
E = -2.658907851020587
#INFO: **** input file is /Users/deyanmihaylov/Documents/Work/pyscf_basis_opt/pyscfad_test.py ****
import pyscf
from pyscfad import gto, scf
import numpy as np

from scipy import optimize

# basis_string = '\n'.join([f'''
#     He  S
#         {x}              1.0'''
#         for x in exponent])

def He_energy(exponent):
    mol = gto.Mole()
    mol.atom = 'He 0 0 0'  # in Angstrom

    basis_string = '\n'.join([f'''
    He  S
        {x}              1.0'''
        for x in exponent])
    mol.basis = {'He': pyscf.gto.basis.parse(basis_string)}

    mol.verbose = 5
    mol.build()

    mf = scf.RHF(mol)
    e = mf.kernel()

    print(f"exp = {exponent}")
    print(f"E = {e}")

    return e

def grad_He_energy(exponent):
    mol = gto.Mole()
    mol.atom = 'He 0 0 0'  # in Angstrom

    basis_string = '\n'.join([f'''
    He  S
        {x}              1.0'''
        for x in exponent])
    mol.basis = {'He': pyscf.gto.basis.parse(basis_string)}
    
    mol.verbose = 5
    mol.build()

    mf = scf.RHF(mol)
    mf.kernel()
    jac = mf.energy_grad()

    print(f"exp = {exponent}")
    print(f"grad_E = {jac.exp}")

    grad_E = np.array(jac.exp)

    return grad_E

def run_minimize(n):
    print(f"Searching in {n} dimensions")
    
    cons = (
        {'type': 'ineq', 'fun': lambda x: x[i] - x[i+1]}
        for i in range(n-1)
    )

    minimize_methods = [
        "Nelder-Mead",
        "Powell",
        "CG",
        "BFGS",
        "Newton-CG",
        "L-BFGS-B",
        "TNC",
        "COBYLA",
        "SLSQP",
        "trust-constr",
        "dogleg",
        "trust-ncg",
        "trust-exact",
        "trust-krylov",
    ]

    for method in minimize_methods:
        print(f"Using method {method}")

        if method not in ["Powell", "COBYLA"]:
            jac = grad_He_energy
        else:
            jac = None

        if method not in ["CG", "BFGS", "Newton-CG", "COBYLA"]:
            bnds = ((1e-6, None) for _ in range(n))
        else:
            bnds = None

        counter = 0
        while True:
            try:
                x0 = np.random.uniform(low=1e-6, high=10.0, size=n)

                res = optimize.minimize(
                    He_energy,
                    x0,
                    args=(),
                    method=method,
                    jac=jac,
                    hess=None,
                    hessp=None,
                    bounds=bnds,
                    # constraints=cons,
                    tol=1e-8,
                    callback=None,
                    # options={"xtol": 1e-8, "ftol": 1e-8},
                )
                print(res)
                break
            except:
                print(f"Method {method} failed with x0 = {x0} for n = {n}")
                counter += 1

                if counter > 10: break


def minimize_energy(n):
    x0 = [0.5 * (n-i) for i in range(n)]
    bnds = ((1e-6, None) for _ in range(n))

    res = optimize.minimize(
        He_energy,
        x0,
        args=(),
        method="SLSQP",
        jac=grad_He_energy,
        hess=None,
        hessp=None,
        bounds=bnds,
        tol=1e-8,
        callback=None,
        # options={"xtol": 1e-8, "ftol": 1e-8},
    )
    print(res)

minimize_energy(3)





# res = optimize.root(
#     grad_He_energy,
#     [1, 1e-4],
#     args=(),
#     method='hybr',
#     jac=None,
#     tol=None,
#     callback=None,
#     options=None,
# )

# print(res)
# print(He_energy(res.x))



# print(grad_He_energy([1.880e+00, 3.031e-01]))

# resbrute = optimize.direct(
#     He_energy,
#     ((1e-4,20), (1e-4,20)),
#     maxfun=100000,
#     maxiter=100000,
#     locally_biased=False,
# )

# print(resbrute)



# x0 = [0.1432879285E+01]
# res = optimize.minimize(
#     He_energy,
#     x0,
#     jac=grad_He_energy,
#     bounds=(Bounds(lb=1e-4)),
#     method='SLSQP', tol=1e-8,
# )

# minimizer_kwargs = {"method": "SLSQP", "jac": grad_He_energy, "bounds": ((1e-4, None), (1e-4, None)),}
# res = basinhopping(
#     He_energy,
#     x0,
#     niter=100,
#     minimizer_kwargs=minimizer_kwargs,
#     T=1,
#     )

# print(res.x)
# print(He_energy(res.x))
# print(res.values())

# print("E", He_energy(71.6168370))

# print(f'Nuclaer gradient:\n{jac.coords}')
# print(f'Gradient wrt basis exponents:\n{jac.exp}')
# print(f'Gradient wrt basis contraction coefficients:\n{jac.ctr_coeff}')#INFO: ******************** input file end ********************


System: uname_result(system='Darwin', node='Deyans-MacBook-Pro-Home.local', release='22.1.0', version='Darwin Kernel Version 22.1.0: Sun Oct  9 20:14:54 PDT 2022; root:xnu-8792.41.9~2/RELEASE_X86_64', machine='x86_64', processor='i386')  Threads 1
Python 3.8.16 (default, Mar  1 2023, 21:19:10) 
[Clang 14.0.6 ]
numpy 1.24.2  scipy 1.10.1
Date: Mon Mar  6 15:01:52 2023
PySCF version 2.1.1
PySCF path  /Users/deyanmihaylov/opt/anaconda3/envs/pyscfad_env/lib/python3.8/site-packages/pyscf

[CONFIG] conf_file /Users/deyanmihaylov/.pyscf_conf.py
[INPUT] verbose = 5
[INPUT] max_memory = 4000 
[INPUT] num. atoms = 1
[INPUT] num. electrons = 2
[INPUT] charge = 0
[INPUT] spin (= nelec alpha-beta = 2S) = 0
[INPUT] symmetry False subgroup None
[INPUT] Mole.unit = angstrom
[INPUT] Symbol           X                Y                Z      unit          X                Y                Z       unit  Magmom
[INPUT]  1 He     0.000000000000   0.000000000000   0.000000000000 AA    0.000000000000   0.000000000000   0.000000000000 Bohr   0.0
[INPUT] ---------------- BASIS SET ---------------- 
[INPUT] l, kappa, [nprim/nctr], expnt,             c_1 c_2 ...
[INPUT] He
[INPUT] 0    0    [1    /1   ]  1.57174848072        1
[INPUT] 0    0    [1    /1   ]  1.04232188718        1
[INPUT] 0    0    [1    /1   ]  0.509654901053       1

nuclear repulsion = 0
number of shells = 3
number of NR pGTOs = 3
number of NR cGTOs = 3
basis = {'He': [[0, [1.5717484807159159, 1.0]], [0, [1.0423218871767657, 1.0]], [0, [0.509654901052853, 1.0]]]}
ecp = {}
CPU time:         5.84
Set gradient conv threshold to 3.16228e-05
cond(S) = 491.9063391213217
E1 = -3.6259446450859665  E_coul = 0.9970299748473743
init E= -2.62891467023859
    CPU time for initialize scf      0.02 sec, wall time      0.02 sec
  HOMO = -0.830240548065818  LUMO = 1.54258269240557
  mo_energy =
[-0.83024055  1.54258269  4.97529457]
E1 = -3.6424802743563616  E_coul = 0.983705675162868
cycle= 1 E= -2.65877459919349  delta_E= -0.0299  |g|= 0.0349  |ddm|=  2.2
    CPU time for cycle= 1      0.01 sec, wall time      0.01 sec
  HOMO = -0.837595259317153  LUMO = 1.55086597584018
  mo_energy =
[-0.83759526  1.55086598  4.97234684]
E1 = -3.6389413239697355  E_coul = 0.9800344962780266
cycle= 2 E= -2.65890682769171  delta_E= -0.000132  |g|= 0.0031  |ddm|= 0.193
    CPU time for cycle= 2      0.01 sec, wall time      0.01 sec
  HOMO = -0.839608193276476  LUMO = 1.55015091862158
  mo_energy =
[-0.83960819  1.55015092  4.96968021]
E1 = -3.638609825528994  E_coul = 0.9797019745598605
cycle= 3 E= -2.65890785096913  delta_E= -1.02e-06  |g|= 2.02e-05  |ddm|= 0.0196
    CPU time for cycle= 3      0.01 sec, wall time      0.01 sec
  HOMO = -0.839602007380711  LUMO = 1.55015464284499
  mo_energy =
[-0.83960201  1.55015464  4.9696878 ]
E1 = -3.6386113384193184  E_coul = 0.979703487398733
cycle= 4 E= -2.65890785102059  delta_E= -5.15e-11  |g|= 6.24e-08  |ddm|= 0.000249
    CPU time for cycle= 4      0.01 sec, wall time      0.01 sec
E1 = -3.6386113384193184  E_coul = 0.979703487398733
  HOMO = -0.839602181810926  LUMO = 1.55015468600078
  mo_energy =
[-0.83960218  1.55015469  4.9696879 ]
E1 = -3.6386113520087253  E_coul = 0.9797035009881384
Extra cycle  E= -2.65890785102059  delta_E= -1.78e-15  |g|= 7.3e-09  |ddm|= 4.61e-07
    CPU time for scf_cycle      0.06 sec, wall time      0.06 sec
Set gradient conv threshold to 3.16228e-05
cond(S) = 491.9063391213217
E1 = -3.6386113520087253  E_coul = 0.9797035009881384
init E= -2.65890785102059
    CPU time for initialize scf      0.03 sec, wall time      0.03 sec
  HOMO = -0.839602175016225  LUMO = 1.55015468946871
  mo_energy =
[-0.83960218  1.55015469  4.96968791]
E1 = -3.638611353501196  E_coul = 0.9797035024806096
cycle= 1 E= -2.65890785102059  delta_E= 4.44e-16  |g|= 9.19e-10  |ddm|= 6.81e-08
    CPU time for cycle= 1      0.01 sec, wall time      0.01 sec
E1 = -3.638611353501196  E_coul = 0.9797035024806096
  HOMO = -0.839602174269988  LUMO = 1.55015468986612
  mo_energy =
[-0.83960217  1.55015469  4.96968792]
E1 = -3.6386113536708904  E_coul = 0.9797035026503054
Extra cycle  E= -2.65890785102058  delta_E= 1.78e-15  |g|= 1.19e-10  |ddm|= 9.56e-09
    CPU time for scf_cycle      0.07 sec, wall time      0.07 sec
exp = [1.57174848 1.04232189 0.5096549 ]
grad_E = [-0.06603582 -0.0374748   0.00398565]
#INFO: **** input file is /Users/deyanmihaylov/Documents/Work/pyscf_basis_opt/pyscfad_test.py ****
import pyscf
from pyscfad import gto, scf
import numpy as np

from scipy import optimize

# basis_string = '\n'.join([f'''
#     He  S
#         {x}              1.0'''
#         for x in exponent])

def He_energy(exponent):
    mol = gto.Mole()
    mol.atom = 'He 0 0 0'  # in Angstrom

    basis_string = '\n'.join([f'''
    He  S
        {x}              1.0'''
        for x in exponent])
    mol.basis = {'He': pyscf.gto.basis.parse(basis_string)}

    mol.verbose = 5
    mol.build()

    mf = scf.RHF(mol)
    e = mf.kernel()

    print(f"exp = {exponent}")
    print(f"E = {e}")

    return e

def grad_He_energy(exponent):
    mol = gto.Mole()
    mol.atom = 'He 0 0 0'  # in Angstrom

    basis_string = '\n'.join([f'''
    He  S
        {x}              1.0'''
        for x in exponent])
    mol.basis = {'He': pyscf.gto.basis.parse(basis_string)}
    
    mol.verbose = 5
    mol.build()

    mf = scf.RHF(mol)
    mf.kernel()
    jac = mf.energy_grad()

    print(f"exp = {exponent}")
    print(f"grad_E = {jac.exp}")

    grad_E = np.array(jac.exp)

    return grad_E

def run_minimize(n):
    print(f"Searching in {n} dimensions")
    
    cons = (
        {'type': 'ineq', 'fun': lambda x: x[i] - x[i+1]}
        for i in range(n-1)
    )

    minimize_methods = [
        "Nelder-Mead",
        "Powell",
        "CG",
        "BFGS",
        "Newton-CG",
        "L-BFGS-B",
        "TNC",
        "COBYLA",
        "SLSQP",
        "trust-constr",
        "dogleg",
        "trust-ncg",
        "trust-exact",
        "trust-krylov",
    ]

    for method in minimize_methods:
        print(f"Using method {method}")

        if method not in ["Powell", "COBYLA"]:
            jac = grad_He_energy
        else:
            jac = None

        if method not in ["CG", "BFGS", "Newton-CG", "COBYLA"]:
            bnds = ((1e-6, None) for _ in range(n))
        else:
            bnds = None

        counter = 0
        while True:
            try:
                x0 = np.random.uniform(low=1e-6, high=10.0, size=n)

                res = optimize.minimize(
                    He_energy,
                    x0,
                    args=(),
                    method=method,
                    jac=jac,
                    hess=None,
                    hessp=None,
                    bounds=bnds,
                    # constraints=cons,
                    tol=1e-8,
                    callback=None,
                    # options={"xtol": 1e-8, "ftol": 1e-8},
                )
                print(res)
                break
            except:
                print(f"Method {method} failed with x0 = {x0} for n = {n}")
                counter += 1

                if counter > 10: break


def minimize_energy(n):
    x0 = [0.5 * (n-i) for i in range(n)]
    bnds = ((1e-6, None) for _ in range(n))

    res = optimize.minimize(
        He_energy,
        x0,
        args=(),
        method="SLSQP",
        jac=grad_He_energy,
        hess=None,
        hessp=None,
        bounds=bnds,
        tol=1e-8,
        callback=None,
        # options={"xtol": 1e-8, "ftol": 1e-8},
    )
    print(res)

minimize_energy(3)





# res = optimize.root(
#     grad_He_energy,
#     [1, 1e-4],
#     args=(),
#     method='hybr',
#     jac=None,
#     tol=None,
#     callback=None,
#     options=None,
# )

# print(res)
# print(He_energy(res.x))



# print(grad_He_energy([1.880e+00, 3.031e-01]))

# resbrute = optimize.direct(
#     He_energy,
#     ((1e-4,20), (1e-4,20)),
#     maxfun=100000,
#     maxiter=100000,
#     locally_biased=False,
# )

# print(resbrute)



# x0 = [0.1432879285E+01]
# res = optimize.minimize(
#     He_energy,
#     x0,
#     jac=grad_He_energy,
#     bounds=(Bounds(lb=1e-4)),
#     method='SLSQP', tol=1e-8,
# )

# minimizer_kwargs = {"method": "SLSQP", "jac": grad_He_energy, "bounds": ((1e-4, None), (1e-4, None)),}
# res = basinhopping(
#     He_energy,
#     x0,
#     niter=100,
#     minimizer_kwargs=minimizer_kwargs,
#     T=1,
#     )

# print(res.x)
# print(He_energy(res.x))
# print(res.values())

# print("E", He_energy(71.6168370))

# print(f'Nuclaer gradient:\n{jac.coords}')
# print(f'Gradient wrt basis exponents:\n{jac.exp}')
# print(f'Gradient wrt basis contraction coefficients:\n{jac.ctr_coeff}')#INFO: ******************** input file end ********************


System: uname_result(system='Darwin', node='Deyans-MacBook-Pro-Home.local', release='22.1.0', version='Darwin Kernel Version 22.1.0: Sun Oct  9 20:14:54 PDT 2022; root:xnu-8792.41.9~2/RELEASE_X86_64', machine='x86_64', processor='i386')  Threads 1
Python 3.8.16 (default, Mar  1 2023, 21:19:10) 
[Clang 14.0.6 ]
numpy 1.24.2  scipy 1.10.1
Date: Mon Mar  6 15:01:54 2023
PySCF version 2.1.1
PySCF path  /Users/deyanmihaylov/opt/anaconda3/envs/pyscfad_env/lib/python3.8/site-packages/pyscf

[CONFIG] conf_file /Users/deyanmihaylov/.pyscf_conf.py
[INPUT] verbose = 5
[INPUT] max_memory = 4000 
[INPUT] num. atoms = 1
[INPUT] num. electrons = 2
[INPUT] charge = 0
[INPUT] spin (= nelec alpha-beta = 2S) = 0
[INPUT] symmetry False subgroup None
[INPUT] Mole.unit = angstrom
[INPUT] Symbol           X                Y                Z      unit          X                Y                Z       unit  Magmom
[INPUT]  1 He     0.000000000000   0.000000000000   0.000000000000 AA    0.000000000000   0.000000000000   0.000000000000 Bohr   0.0
[INPUT] ---------------- BASIS SET ---------------- 
[INPUT] l, kappa, [nprim/nctr], expnt,             c_1 c_2 ...
[INPUT] He
[INPUT] 0    0    [1    /1   ]  1.93911836803        1
[INPUT] 0    0    [1    /1   ]  1.2516334176         1
[INPUT] 0    0    [1    /1   ]  0.494731283827       1

nuclear repulsion = 0
number of shells = 3
number of NR pGTOs = 3
number of NR cGTOs = 3
basis = {'He': [[0, [1.9391183680331907, 1.0]], [0, [1.2516334175969535, 1.0]], [0, [0.4947312838268484, 1.0]]]}
ecp = {}
CPU time:         7.70
Set gradient conv threshold to 3.16228e-05
cond(S) = 273.9518883098533
E1 = -3.664678842450779  E_coul = 1.0054957330082286
init E= -2.65918310944255
    CPU time for initialize scf      0.02 sec, wall time      0.02 sec
  HOMO = -0.839993102877531  LUMO = 1.68026757852018
  mo_energy =
[-0.8399931   1.68026758  5.75869701]
E1 = -3.6860049856385944  E_coul = 0.9995441081242961
cycle= 1 E= -2.6864608775143  delta_E= -0.0273  |g|= 0.033  |ddm|= 1.08
    CPU time for cycle= 1      0.01 sec, wall time      0.01 sec
  HOMO = -0.843503749863154  LUMO = 1.6895313398954
  mo_energy =
[-0.84350375  1.68953134  5.75871   ]
E1 = -3.6834332720442946  E_coul = 0.996874164286833
cycle= 2 E= -2.68655910775746  delta_E= -9.82e-05  |g|= 0.00281  |ddm|= 0.0911
    CPU time for cycle= 2      0.01 sec, wall time      0.01 sec
  HOMO = -0.84495349629718  LUMO = 1.68897632022709
  mo_energy =
[-0.8449535   1.68897632  5.75651797]
E1 = -3.6832326034620677  E_coul = 0.9966728092065142
cycle= 3 E= -2.68655979425555  delta_E= -6.86e-07  |g|= 4.12e-05  |ddm|= 0.00916
    CPU time for cycle= 3      0.01 sec, wall time      0.01 sec
  HOMO = -0.84494176462753  LUMO = 1.68898560640876
  mo_energy =
[-0.84494176  1.68898561  5.75653765]
E1 = -3.683235849873935  E_coul = 0.9966760554267595
cycle= 4 E= -2.68655979444718  delta_E= -1.92e-10  |g|= 5.08e-08  |ddm|= 0.000222
    CPU time for cycle= 4      0.01 sec, wall time      0.01 sec
E1 = -3.683235849873935  E_coul = 0.9966760554267595
  HOMO = -0.844941869510208  LUMO = 1.68898561600657
  mo_energy =
[-0.84494187  1.68898562  5.75653771]
E1 = -3.683235860734141  E_coul = 0.9966760662869663
Extra cycle  E= -2.68655979444717  delta_E= 8.88e-16  |g|= 5.27e-09  |ddm|= 1.47e-07
    CPU time for scf_cycle      0.06 sec, wall time      0.06 sec
exp = [1.93911837 1.25163342 0.49473128]
E = -2.6865597944471746
#INFO: **** input file is /Users/deyanmihaylov/Documents/Work/pyscf_basis_opt/pyscfad_test.py ****
import pyscf
from pyscfad import gto, scf
import numpy as np

from scipy import optimize

# basis_string = '\n'.join([f'''
#     He  S
#         {x}              1.0'''
#         for x in exponent])

def He_energy(exponent):
    mol = gto.Mole()
    mol.atom = 'He 0 0 0'  # in Angstrom

    basis_string = '\n'.join([f'''
    He  S
        {x}              1.0'''
        for x in exponent])
    mol.basis = {'He': pyscf.gto.basis.parse(basis_string)}

    mol.verbose = 5
    mol.build()

    mf = scf.RHF(mol)
    e = mf.kernel()

    print(f"exp = {exponent}")
    print(f"E = {e}")

    return e

def grad_He_energy(exponent):
    mol = gto.Mole()
    mol.atom = 'He 0 0 0'  # in Angstrom

    basis_string = '\n'.join([f'''
    He  S
        {x}              1.0'''
        for x in exponent])
    mol.basis = {'He': pyscf.gto.basis.parse(basis_string)}
    
    mol.verbose = 5
    mol.build()

    mf = scf.RHF(mol)
    mf.kernel()
    jac = mf.energy_grad()

    print(f"exp = {exponent}")
    print(f"grad_E = {jac.exp}")

    grad_E = np.array(jac.exp)

    return grad_E

def run_minimize(n):
    print(f"Searching in {n} dimensions")
    
    cons = (
        {'type': 'ineq', 'fun': lambda x: x[i] - x[i+1]}
        for i in range(n-1)
    )

    minimize_methods = [
        "Nelder-Mead",
        "Powell",
        "CG",
        "BFGS",
        "Newton-CG",
        "L-BFGS-B",
        "TNC",
        "COBYLA",
        "SLSQP",
        "trust-constr",
        "dogleg",
        "trust-ncg",
        "trust-exact",
        "trust-krylov",
    ]

    for method in minimize_methods:
        print(f"Using method {method}")

        if method not in ["Powell", "COBYLA"]:
            jac = grad_He_energy
        else:
            jac = None

        if method not in ["CG", "BFGS", "Newton-CG", "COBYLA"]:
            bnds = ((1e-6, None) for _ in range(n))
        else:
            bnds = None

        counter = 0
        while True:
            try:
                x0 = np.random.uniform(low=1e-6, high=10.0, size=n)

                res = optimize.minimize(
                    He_energy,
                    x0,
                    args=(),
                    method=method,
                    jac=jac,
                    hess=None,
                    hessp=None,
                    bounds=bnds,
                    # constraints=cons,
                    tol=1e-8,
                    callback=None,
                    # options={"xtol": 1e-8, "ftol": 1e-8},
                )
                print(res)
                break
            except:
                print(f"Method {method} failed with x0 = {x0} for n = {n}")
                counter += 1

                if counter > 10: break


def minimize_energy(n):
    x0 = [0.5 * (n-i) for i in range(n)]
    bnds = ((1e-6, None) for _ in range(n))

    res = optimize.minimize(
        He_energy,
        x0,
        args=(),
        method="SLSQP",
        jac=grad_He_energy,
        hess=None,
        hessp=None,
        bounds=bnds,
        tol=1e-8,
        callback=None,
        # options={"xtol": 1e-8, "ftol": 1e-8},
    )
    print(res)

minimize_energy(3)





# res = optimize.root(
#     grad_He_energy,
#     [1, 1e-4],
#     args=(),
#     method='hybr',
#     jac=None,
#     tol=None,
#     callback=None,
#     options=None,
# )

# print(res)
# print(He_energy(res.x))



# print(grad_He_energy([1.880e+00, 3.031e-01]))

# resbrute = optimize.direct(
#     He_energy,
#     ((1e-4,20), (1e-4,20)),
#     maxfun=100000,
#     maxiter=100000,
#     locally_biased=False,
# )

# print(resbrute)



# x0 = [0.1432879285E+01]
# res = optimize.minimize(
#     He_energy,
#     x0,
#     jac=grad_He_energy,
#     bounds=(Bounds(lb=1e-4)),
#     method='SLSQP', tol=1e-8,
# )

# minimizer_kwargs = {"method": "SLSQP", "jac": grad_He_energy, "bounds": ((1e-4, None), (1e-4, None)),}
# res = basinhopping(
#     He_energy,
#     x0,
#     niter=100,
#     minimizer_kwargs=minimizer_kwargs,
#     T=1,
#     )

# print(res.x)
# print(He_energy(res.x))
# print(res.values())

# print("E", He_energy(71.6168370))

# print(f'Nuclaer gradient:\n{jac.coords}')
# print(f'Gradient wrt basis exponents:\n{jac.exp}')
# print(f'Gradient wrt basis contraction coefficients:\n{jac.ctr_coeff}')#INFO: ******************** input file end ********************


System: uname_result(system='Darwin', node='Deyans-MacBook-Pro-Home.local', release='22.1.0', version='Darwin Kernel Version 22.1.0: Sun Oct  9 20:14:54 PDT 2022; root:xnu-8792.41.9~2/RELEASE_X86_64', machine='x86_64', processor='i386')  Threads 1
Python 3.8.16 (default, Mar  1 2023, 21:19:10) 
[Clang 14.0.6 ]
numpy 1.24.2  scipy 1.10.1
Date: Mon Mar  6 15:01:54 2023
PySCF version 2.1.1
PySCF path  /Users/deyanmihaylov/opt/anaconda3/envs/pyscfad_env/lib/python3.8/site-packages/pyscf

[CONFIG] conf_file /Users/deyanmihaylov/.pyscf_conf.py
[INPUT] verbose = 5
[INPUT] max_memory = 4000 
[INPUT] num. atoms = 1
[INPUT] num. electrons = 2
[INPUT] charge = 0
[INPUT] spin (= nelec alpha-beta = 2S) = 0
[INPUT] symmetry False subgroup None
[INPUT] Mole.unit = angstrom
[INPUT] Symbol           X                Y                Z      unit          X                Y                Z       unit  Magmom
[INPUT]  1 He     0.000000000000   0.000000000000   0.000000000000 AA    0.000000000000   0.000000000000   0.000000000000 Bohr   0.0
[INPUT] ---------------- BASIS SET ---------------- 
[INPUT] l, kappa, [nprim/nctr], expnt,             c_1 c_2 ...
[INPUT] He
[INPUT] 0    0    [1    /1   ]  1.93911836803        1
[INPUT] 0    0    [1    /1   ]  1.2516334176         1
[INPUT] 0    0    [1    /1   ]  0.494731283827       1

nuclear repulsion = 0
number of shells = 3
number of NR pGTOs = 3
number of NR cGTOs = 3
basis = {'He': [[0, [1.9391183680331907, 1.0]], [0, [1.2516334175969535, 1.0]], [0, [0.4947312838268484, 1.0]]]}
ecp = {}
CPU time:         7.82
Set gradient conv threshold to 3.16228e-05
cond(S) = 273.9518883098533
E1 = -3.664678842450779  E_coul = 1.0054957330082286
init E= -2.65918310944255
    CPU time for initialize scf      0.02 sec, wall time      0.02 sec
  HOMO = -0.839993102877531  LUMO = 1.68026757852018
  mo_energy =
[-0.8399931   1.68026758  5.75869701]
E1 = -3.6860049856385944  E_coul = 0.9995441081242961
cycle= 1 E= -2.6864608775143  delta_E= -0.0273  |g|= 0.033  |ddm|= 1.08
    CPU time for cycle= 1      0.01 sec, wall time      0.01 sec
  HOMO = -0.843503749863154  LUMO = 1.6895313398954
  mo_energy =
[-0.84350375  1.68953134  5.75871   ]
E1 = -3.6834332720442946  E_coul = 0.996874164286833
cycle= 2 E= -2.68655910775746  delta_E= -9.82e-05  |g|= 0.00281  |ddm|= 0.0911
    CPU time for cycle= 2      0.01 sec, wall time      0.01 sec
  HOMO = -0.84495349629718  LUMO = 1.68897632022709
  mo_energy =
[-0.8449535   1.68897632  5.75651797]
E1 = -3.6832326034620677  E_coul = 0.9966728092065142
cycle= 3 E= -2.68655979425555  delta_E= -6.86e-07  |g|= 4.12e-05  |ddm|= 0.00916
    CPU time for cycle= 3      0.01 sec, wall time      0.01 sec
  HOMO = -0.84494176462753  LUMO = 1.68898560640876
  mo_energy =
[-0.84494176  1.68898561  5.75653765]
E1 = -3.683235849873935  E_coul = 0.9966760554267595
cycle= 4 E= -2.68655979444718  delta_E= -1.92e-10  |g|= 5.08e-08  |ddm|= 0.000222
    CPU time for cycle= 4      0.01 sec, wall time      0.01 sec
E1 = -3.683235849873935  E_coul = 0.9966760554267595
  HOMO = -0.844941869510208  LUMO = 1.68898561600657
  mo_energy =
[-0.84494187  1.68898562  5.75653771]
E1 = -3.683235860734141  E_coul = 0.9966760662869663
Extra cycle  E= -2.68655979444717  delta_E= 8.88e-16  |g|= 5.27e-09  |ddm|= 1.47e-07
    CPU time for scf_cycle      0.06 sec, wall time      0.06 sec
Set gradient conv threshold to 3.16228e-05
cond(S) = 273.9518883098533
E1 = -3.683235860734141  E_coul = 0.9966760662869663
init E= -2.68655979444717
    CPU time for initialize scf      0.03 sec, wall time      0.03 sec
  HOMO = -0.844941864080105  LUMO = 1.6889856190573
  mo_energy =
[-0.84494186  1.68898562  5.75653771]
E1 = -3.6832358618307066  E_coul = 0.9966760673835315
cycle= 1 E= -2.68655979444718  delta_E= -4.44e-16  |g|= 6.1e-10  |ddm|= 2.09e-08
    CPU time for cycle= 1      0.01 sec, wall time      0.01 sec
E1 = -3.6832358618307066  E_coul = 0.9966760673835315
  HOMO = -0.844941863531822  LUMO = 1.68898561937795
  mo_energy =
[-0.84494186  1.68898562  5.75653772]
E1 = -3.6832358619458296  E_coul = 0.9966760674986542
Extra cycle  E= -2.68655979444718  delta_E= -4.44e-16  |g|= 7.43e-11  |ddm|= 2.8e-09
    CPU time for scf_cycle      0.07 sec, wall time      0.07 sec
exp = [1.93911837 1.25163342 0.49473128]
grad_E = [-0.05001818 -0.02331488  0.04170704]
#INFO: **** input file is /Users/deyanmihaylov/Documents/Work/pyscf_basis_opt/pyscfad_test.py ****
import pyscf
from pyscfad import gto, scf
import numpy as np

from scipy import optimize

# basis_string = '\n'.join([f'''
#     He  S
#         {x}              1.0'''
#         for x in exponent])

def He_energy(exponent):
    mol = gto.Mole()
    mol.atom = 'He 0 0 0'  # in Angstrom

    basis_string = '\n'.join([f'''
    He  S
        {x}              1.0'''
        for x in exponent])
    mol.basis = {'He': pyscf.gto.basis.parse(basis_string)}

    mol.verbose = 5
    mol.build()

    mf = scf.RHF(mol)
    e = mf.kernel()

    print(f"exp = {exponent}")
    print(f"E = {e}")

    return e

def grad_He_energy(exponent):
    mol = gto.Mole()
    mol.atom = 'He 0 0 0'  # in Angstrom

    basis_string = '\n'.join([f'''
    He  S
        {x}              1.0'''
        for x in exponent])
    mol.basis = {'He': pyscf.gto.basis.parse(basis_string)}
    
    mol.verbose = 5
    mol.build()

    mf = scf.RHF(mol)
    mf.kernel()
    jac = mf.energy_grad()

    print(f"exp = {exponent}")
    print(f"grad_E = {jac.exp}")

    grad_E = np.array(jac.exp)

    return grad_E

def run_minimize(n):
    print(f"Searching in {n} dimensions")
    
    cons = (
        {'type': 'ineq', 'fun': lambda x: x[i] - x[i+1]}
        for i in range(n-1)
    )

    minimize_methods = [
        "Nelder-Mead",
        "Powell",
        "CG",
        "BFGS",
        "Newton-CG",
        "L-BFGS-B",
        "TNC",
        "COBYLA",
        "SLSQP",
        "trust-constr",
        "dogleg",
        "trust-ncg",
        "trust-exact",
        "trust-krylov",
    ]

    for method in minimize_methods:
        print(f"Using method {method}")

        if method not in ["Powell", "COBYLA"]:
            jac = grad_He_energy
        else:
            jac = None

        if method not in ["CG", "BFGS", "Newton-CG", "COBYLA"]:
            bnds = ((1e-6, None) for _ in range(n))
        else:
            bnds = None

        counter = 0
        while True:
            try:
                x0 = np.random.uniform(low=1e-6, high=10.0, size=n)

                res = optimize.minimize(
                    He_energy,
                    x0,
                    args=(),
                    method=method,
                    jac=jac,
                    hess=None,
                    hessp=None,
                    bounds=bnds,
                    # constraints=cons,
                    tol=1e-8,
                    callback=None,
                    # options={"xtol": 1e-8, "ftol": 1e-8},
                )
                print(res)
                break
            except:
                print(f"Method {method} failed with x0 = {x0} for n = {n}")
                counter += 1

                if counter > 10: break


def minimize_energy(n):
    x0 = [0.5 * (n-i) for i in range(n)]
    bnds = ((1e-6, None) for _ in range(n))

    res = optimize.minimize(
        He_energy,
        x0,
        args=(),
        method="SLSQP",
        jac=grad_He_energy,
        hess=None,
        hessp=None,
        bounds=bnds,
        tol=1e-8,
        callback=None,
        # options={"xtol": 1e-8, "ftol": 1e-8},
    )
    print(res)

minimize_energy(3)





# res = optimize.root(
#     grad_He_energy,
#     [1, 1e-4],
#     args=(),
#     method='hybr',
#     jac=None,
#     tol=None,
#     callback=None,
#     options=None,
# )

# print(res)
# print(He_energy(res.x))



# print(grad_He_energy([1.880e+00, 3.031e-01]))

# resbrute = optimize.direct(
#     He_energy,
#     ((1e-4,20), (1e-4,20)),
#     maxfun=100000,
#     maxiter=100000,
#     locally_biased=False,
# )

# print(resbrute)



# x0 = [0.1432879285E+01]
# res = optimize.minimize(
#     He_energy,
#     x0,
#     jac=grad_He_energy,
#     bounds=(Bounds(lb=1e-4)),
#     method='SLSQP', tol=1e-8,
# )

# minimizer_kwargs = {"method": "SLSQP", "jac": grad_He_energy, "bounds": ((1e-4, None), (1e-4, None)),}
# res = basinhopping(
#     He_energy,
#     x0,
#     niter=100,
#     minimizer_kwargs=minimizer_kwargs,
#     T=1,
#     )

# print(res.x)
# print(He_energy(res.x))
# print(res.values())

# print("E", He_energy(71.6168370))

# print(f'Nuclaer gradient:\n{jac.coords}')
# print(f'Gradient wrt basis exponents:\n{jac.exp}')
# print(f'Gradient wrt basis contraction coefficients:\n{jac.ctr_coeff}')#INFO: ******************** input file end ********************


System: uname_result(system='Darwin', node='Deyans-MacBook-Pro-Home.local', release='22.1.0', version='Darwin Kernel Version 22.1.0: Sun Oct  9 20:14:54 PDT 2022; root:xnu-8792.41.9~2/RELEASE_X86_64', machine='x86_64', processor='i386')  Threads 1
Python 3.8.16 (default, Mar  1 2023, 21:19:10) 
[Clang 14.0.6 ]
numpy 1.24.2  scipy 1.10.1
Date: Mon Mar  6 15:01:56 2023
PySCF version 2.1.1
PySCF path  /Users/deyanmihaylov/opt/anaconda3/envs/pyscfad_env/lib/python3.8/site-packages/pyscf

[CONFIG] conf_file /Users/deyanmihaylov/.pyscf_conf.py
[INPUT] verbose = 5
[INPUT] max_memory = 4000 
[INPUT] num. atoms = 1
[INPUT] num. electrons = 2
[INPUT] charge = 0
[INPUT] spin (= nelec alpha-beta = 2S) = 0
[INPUT] symmetry False subgroup None
[INPUT] Mole.unit = angstrom
[INPUT] Symbol           X                Y                Z      unit          X                Y                Z       unit  Magmom
[INPUT]  1 He     0.000000000000   0.000000000000   0.000000000000 AA    0.000000000000   0.000000000000   0.000000000000 Bohr   0.0
[INPUT] ---------------- BASIS SET ---------------- 
[INPUT] l, kappa, [nprim/nctr], expnt,             c_1 c_2 ...
[INPUT] He
[INPUT] 0    0    [1    /1   ]  3.23486799855        1
[INPUT] 0    0    [1    /1   ]  1.97196005449        1
[INPUT] 0    0    [1    /1   ]  0.307120281386       1

nuclear repulsion = 0
number of shells = 3
number of NR pGTOs = 3
number of NR cGTOs = 3
basis = {'He': [[0, [3.234867998549931, 1.0]], [0, [1.971960054493957, 1.0]], [0, [0.3071202813859045, 1.0]]]}
ecp = {}
CPU time:         9.80
Set gradient conv threshold to 3.16228e-05
cond(S) = 76.54897446873503
E1 = -3.679148032598394  E_coul = 1.0015611775323277
init E= -2.67758685506607
    CPU time for initialize scf      0.02 sec, wall time      0.02 sec
  HOMO = -0.853313237940695  LUMO = 1.56107602705675
  mo_energy =
[-0.85331324  1.56107603  7.95678947]
E1 = -3.6580561927184534  E_coul = 0.9475464204935764
cycle= 1 E= -2.71050977222488  delta_E= -0.0329  |g|= 0.0412  |ddm|= 0.398
    CPU time for cycle= 1      0.01 sec, wall time      0.01 sec
  HOMO = -0.88158655508983  LUMO = 1.54482904134984
  mo_energy =
[-0.88158656  1.54482904  7.8931721 ]
E1 = -3.6520379747316527  E_coul = 0.9412996585855656
cycle= 2 E= -2.71073831614609  delta_E= -0.000229  |g|= 0.00403  |ddm|= 0.0413
    CPU time for cycle= 2      0.01 sec, wall time      0.01 sec
  HOMO = -0.884978921821236  LUMO = 1.54193470015691
  mo_energy =
[-0.88497892  1.5419347   7.88504964]
E1 = -3.651494738707424  E_coul = 0.9407545520712415
cycle= 3 E= -2.71074018663618  delta_E= -1.87e-06  |g|= 9.47e-05  |ddm|= 0.00426
    CPU time for cycle= 3      0.01 sec, wall time      0.01 sec
  HOMO = -0.884995007618235  LUMO = 1.54191110679508
  mo_energy =
[-0.88499501  1.54191111  7.88500702]
E1 = -3.651490154227722  E_coul = 0.9407499669446078
cycle= 4 E= -2.71074018728311  delta_E= -6.47e-10  |g|= 7.13e-08  |ddm|= 8.62e-05
    CPU time for cycle= 4      0.01 sec, wall time      0.01 sec
E1 = -3.651490154227722  E_coul = 0.9407499669446078
  HOMO = -0.884995110169254  LUMO = 1.54191128167145
  mo_energy =
[-0.88499511  1.54191128  7.88500713]
E1 = -3.6514901377341324  E_coul = 0.9407499504510168
Extra cycle  E= -2.71074018728312  delta_E= -1.33e-15  |g|= 4.54e-09  |ddm|= 4.5e-08
    CPU time for scf_cycle      0.07 sec, wall time      0.07 sec
exp = [3.234868   1.97196005 0.30712028]
E = -2.7107401872831156
#INFO: **** input file is /Users/deyanmihaylov/Documents/Work/pyscf_basis_opt/pyscfad_test.py ****
import pyscf
from pyscfad import gto, scf
import numpy as np

from scipy import optimize

# basis_string = '\n'.join([f'''
#     He  S
#         {x}              1.0'''
#         for x in exponent])

def He_energy(exponent):
    mol = gto.Mole()
    mol.atom = 'He 0 0 0'  # in Angstrom

    basis_string = '\n'.join([f'''
    He  S
        {x}              1.0'''
        for x in exponent])
    mol.basis = {'He': pyscf.gto.basis.parse(basis_string)}

    mol.verbose = 5
    mol.build()

    mf = scf.RHF(mol)
    e = mf.kernel()

    print(f"exp = {exponent}")
    print(f"E = {e}")

    return e

def grad_He_energy(exponent):
    mol = gto.Mole()
    mol.atom = 'He 0 0 0'  # in Angstrom

    basis_string = '\n'.join([f'''
    He  S
        {x}              1.0'''
        for x in exponent])
    mol.basis = {'He': pyscf.gto.basis.parse(basis_string)}
    
    mol.verbose = 5
    mol.build()

    mf = scf.RHF(mol)
    mf.kernel()
    jac = mf.energy_grad()

    print(f"exp = {exponent}")
    print(f"grad_E = {jac.exp}")

    grad_E = np.array(jac.exp)

    return grad_E

def run_minimize(n):
    print(f"Searching in {n} dimensions")
    
    cons = (
        {'type': 'ineq', 'fun': lambda x: x[i] - x[i+1]}
        for i in range(n-1)
    )

    minimize_methods = [
        "Nelder-Mead",
        "Powell",
        "CG",
        "BFGS",
        "Newton-CG",
        "L-BFGS-B",
        "TNC",
        "COBYLA",
        "SLSQP",
        "trust-constr",
        "dogleg",
        "trust-ncg",
        "trust-exact",
        "trust-krylov",
    ]

    for method in minimize_methods:
        print(f"Using method {method}")

        if method not in ["Powell", "COBYLA"]:
            jac = grad_He_energy
        else:
            jac = None

        if method not in ["CG", "BFGS", "Newton-CG", "COBYLA"]:
            bnds = ((1e-6, None) for _ in range(n))
        else:
            bnds = None

        counter = 0
        while True:
            try:
                x0 = np.random.uniform(low=1e-6, high=10.0, size=n)

                res = optimize.minimize(
                    He_energy,
                    x0,
                    args=(),
                    method=method,
                    jac=jac,
                    hess=None,
                    hessp=None,
                    bounds=bnds,
                    # constraints=cons,
                    tol=1e-8,
                    callback=None,
                    # options={"xtol": 1e-8, "ftol": 1e-8},
                )
                print(res)
                break
            except:
                print(f"Method {method} failed with x0 = {x0} for n = {n}")
                counter += 1

                if counter > 10: break


def minimize_energy(n):
    x0 = [0.5 * (n-i) for i in range(n)]
    bnds = ((1e-6, None) for _ in range(n))

    res = optimize.minimize(
        He_energy,
        x0,
        args=(),
        method="SLSQP",
        jac=grad_He_energy,
        hess=None,
        hessp=None,
        bounds=bnds,
        tol=1e-8,
        callback=None,
        # options={"xtol": 1e-8, "ftol": 1e-8},
    )
    print(res)

minimize_energy(3)





# res = optimize.root(
#     grad_He_energy,
#     [1, 1e-4],
#     args=(),
#     method='hybr',
#     jac=None,
#     tol=None,
#     callback=None,
#     options=None,
# )

# print(res)
# print(He_energy(res.x))



# print(grad_He_energy([1.880e+00, 3.031e-01]))

# resbrute = optimize.direct(
#     He_energy,
#     ((1e-4,20), (1e-4,20)),
#     maxfun=100000,
#     maxiter=100000,
#     locally_biased=False,
# )

# print(resbrute)



# x0 = [0.1432879285E+01]
# res = optimize.minimize(
#     He_energy,
#     x0,
#     jac=grad_He_energy,
#     bounds=(Bounds(lb=1e-4)),
#     method='SLSQP', tol=1e-8,
# )

# minimizer_kwargs = {"method": "SLSQP", "jac": grad_He_energy, "bounds": ((1e-4, None), (1e-4, None)),}
# res = basinhopping(
#     He_energy,
#     x0,
#     niter=100,
#     minimizer_kwargs=minimizer_kwargs,
#     T=1,
#     )

# print(res.x)
# print(He_energy(res.x))
# print(res.values())

# print("E", He_energy(71.6168370))

# print(f'Nuclaer gradient:\n{jac.coords}')
# print(f'Gradient wrt basis exponents:\n{jac.exp}')
# print(f'Gradient wrt basis contraction coefficients:\n{jac.ctr_coeff}')#INFO: ******************** input file end ********************


System: uname_result(system='Darwin', node='Deyans-MacBook-Pro-Home.local', release='22.1.0', version='Darwin Kernel Version 22.1.0: Sun Oct  9 20:14:54 PDT 2022; root:xnu-8792.41.9~2/RELEASE_X86_64', machine='x86_64', processor='i386')  Threads 1
Python 3.8.16 (default, Mar  1 2023, 21:19:10) 
[Clang 14.0.6 ]
numpy 1.24.2  scipy 1.10.1
Date: Mon Mar  6 15:01:56 2023
PySCF version 2.1.1
PySCF path  /Users/deyanmihaylov/opt/anaconda3/envs/pyscfad_env/lib/python3.8/site-packages/pyscf

[CONFIG] conf_file /Users/deyanmihaylov/.pyscf_conf.py
[INPUT] verbose = 5
[INPUT] max_memory = 4000 
[INPUT] num. atoms = 1
[INPUT] num. electrons = 2
[INPUT] charge = 0
[INPUT] spin (= nelec alpha-beta = 2S) = 0
[INPUT] symmetry False subgroup None
[INPUT] Mole.unit = angstrom
[INPUT] Symbol           X                Y                Z      unit          X                Y                Z       unit  Magmom
[INPUT]  1 He     0.000000000000   0.000000000000   0.000000000000 AA    0.000000000000   0.000000000000   0.000000000000 Bohr   0.0
[INPUT] ---------------- BASIS SET ---------------- 
[INPUT] l, kappa, [nprim/nctr], expnt,             c_1 c_2 ...
[INPUT] He
[INPUT] 0    0    [1    /1   ]  3.23486799855        1
[INPUT] 0    0    [1    /1   ]  1.97196005449        1
[INPUT] 0    0    [1    /1   ]  0.307120281386       1

nuclear repulsion = 0
number of shells = 3
number of NR pGTOs = 3
number of NR cGTOs = 3
basis = {'He': [[0, [3.234867998549931, 1.0]], [0, [1.971960054493957, 1.0]], [0, [0.3071202813859045, 1.0]]]}
ecp = {}
CPU time:         9.94
Set gradient conv threshold to 3.16228e-05
cond(S) = 76.54897446873503
E1 = -3.679148032598394  E_coul = 1.0015611775323277
init E= -2.67758685506607
    CPU time for initialize scf      0.02 sec, wall time      0.02 sec
  HOMO = -0.853313237940695  LUMO = 1.56107602705675
  mo_energy =
[-0.85331324  1.56107603  7.95678947]
E1 = -3.6580561927184534  E_coul = 0.9475464204935764
cycle= 1 E= -2.71050977222488  delta_E= -0.0329  |g|= 0.0412  |ddm|= 0.398
    CPU time for cycle= 1      0.01 sec, wall time      0.01 sec
  HOMO = -0.88158655508983  LUMO = 1.54482904134984
  mo_energy =
[-0.88158656  1.54482904  7.8931721 ]
E1 = -3.6520379747316527  E_coul = 0.9412996585855656
cycle= 2 E= -2.71073831614609  delta_E= -0.000229  |g|= 0.00403  |ddm|= 0.0413
    CPU time for cycle= 2      0.01 sec, wall time      0.01 sec
  HOMO = -0.884978921821236  LUMO = 1.54193470015691
  mo_energy =
[-0.88497892  1.5419347   7.88504964]
E1 = -3.651494738707424  E_coul = 0.9407545520712415
cycle= 3 E= -2.71074018663618  delta_E= -1.87e-06  |g|= 9.47e-05  |ddm|= 0.00426
    CPU time for cycle= 3      0.01 sec, wall time      0.01 sec
  HOMO = -0.884995007618235  LUMO = 1.54191110679508
  mo_energy =
[-0.88499501  1.54191111  7.88500702]
E1 = -3.651490154227722  E_coul = 0.9407499669446078
cycle= 4 E= -2.71074018728311  delta_E= -6.47e-10  |g|= 7.13e-08  |ddm|= 8.62e-05
    CPU time for cycle= 4      0.01 sec, wall time      0.01 sec
E1 = -3.651490154227722  E_coul = 0.9407499669446078
  HOMO = -0.884995110169254  LUMO = 1.54191128167145
  mo_energy =
[-0.88499511  1.54191128  7.88500713]
E1 = -3.6514901377341324  E_coul = 0.9407499504510168
Extra cycle  E= -2.71074018728312  delta_E= -1.33e-15  |g|= 4.54e-09  |ddm|= 4.5e-08
    CPU time for scf_cycle      0.06 sec, wall time      0.07 sec
Set gradient conv threshold to 3.16228e-05
cond(S) = 76.54897446873503
E1 = -3.6514901377341324  E_coul = 0.9407499504510168
init E= -2.71074018728312
    CPU time for initialize scf      0.03 sec, wall time      0.03 sec
  HOMO = -0.884995118416049  LUMO = 1.54191127518596
  mo_energy =
[-0.88499512  1.54191128  7.88500711]
E1 = -3.651490136627415  E_coul = 0.9407499493442996
cycle= 1 E= -2.71074018728312  delta_E=    0  |g|= 3.57e-10  |ddm|= 3.86e-09
    CPU time for cycle= 1      0.01 sec, wall time      0.01 sec
E1 = -3.651490136627415  E_coul = 0.9407499493442996
  HOMO = -0.884995118969408  LUMO = 1.54191127474001
  mo_energy =
[-0.88499512  1.54191127  7.88500711]
E1 = -3.6514901365496306  E_coul = 0.9407499492665148
Extra cycle  E= -2.71074018728312  delta_E=    0  |g|= 3.31e-11  |ddm|= 3.57e-10
    CPU time for scf_cycle      0.07 sec, wall time      0.07 sec
exp = [3.234868   1.97196005 0.30712028]
grad_E = [-0.02295086  0.04152368 -0.5158323 ]
#INFO: **** input file is /Users/deyanmihaylov/Documents/Work/pyscf_basis_opt/pyscfad_test.py ****
import pyscf
from pyscfad import gto, scf
import numpy as np

from scipy import optimize

# basis_string = '\n'.join([f'''
#     He  S
#         {x}              1.0'''
#         for x in exponent])

def He_energy(exponent):
    mol = gto.Mole()
    mol.atom = 'He 0 0 0'  # in Angstrom

    basis_string = '\n'.join([f'''
    He  S
        {x}              1.0'''
        for x in exponent])
    mol.basis = {'He': pyscf.gto.basis.parse(basis_string)}

    mol.verbose = 5
    mol.build()

    mf = scf.RHF(mol)
    e = mf.kernel()

    print(f"exp = {exponent}")
    print(f"E = {e}")

    return e

def grad_He_energy(exponent):
    mol = gto.Mole()
    mol.atom = 'He 0 0 0'  # in Angstrom

    basis_string = '\n'.join([f'''
    He  S
        {x}              1.0'''
        for x in exponent])
    mol.basis = {'He': pyscf.gto.basis.parse(basis_string)}
    
    mol.verbose = 5
    mol.build()

    mf = scf.RHF(mol)
    mf.kernel()
    jac = mf.energy_grad()

    print(f"exp = {exponent}")
    print(f"grad_E = {jac.exp}")

    grad_E = np.array(jac.exp)

    return grad_E

def run_minimize(n):
    print(f"Searching in {n} dimensions")
    
    cons = (
        {'type': 'ineq', 'fun': lambda x: x[i] - x[i+1]}
        for i in range(n-1)
    )

    minimize_methods = [
        "Nelder-Mead",
        "Powell",
        "CG",
        "BFGS",
        "Newton-CG",
        "L-BFGS-B",
        "TNC",
        "COBYLA",
        "SLSQP",
        "trust-constr",
        "dogleg",
        "trust-ncg",
        "trust-exact",
        "trust-krylov",
    ]

    for method in minimize_methods:
        print(f"Using method {method}")

        if method not in ["Powell", "COBYLA"]:
            jac = grad_He_energy
        else:
            jac = None

        if method not in ["CG", "BFGS", "Newton-CG", "COBYLA"]:
            bnds = ((1e-6, None) for _ in range(n))
        else:
            bnds = None

        counter = 0
        while True:
            try:
                x0 = np.random.uniform(low=1e-6, high=10.0, size=n)

                res = optimize.minimize(
                    He_energy,
                    x0,
                    args=(),
                    method=method,
                    jac=jac,
                    hess=None,
                    hessp=None,
                    bounds=bnds,
                    # constraints=cons,
                    tol=1e-8,
                    callback=None,
                    # options={"xtol": 1e-8, "ftol": 1e-8},
                )
                print(res)
                break
            except:
                print(f"Method {method} failed with x0 = {x0} for n = {n}")
                counter += 1

                if counter > 10: break


def minimize_energy(n):
    x0 = [0.5 * (n-i) for i in range(n)]
    bnds = ((1e-6, None) for _ in range(n))

    res = optimize.minimize(
        He_energy,
        x0,
        args=(),
        method="SLSQP",
        jac=grad_He_energy,
        hess=None,
        hessp=None,
        bounds=bnds,
        tol=1e-8,
        callback=None,
        # options={"xtol": 1e-8, "ftol": 1e-8},
    )
    print(res)

minimize_energy(3)





# res = optimize.root(
#     grad_He_energy,
#     [1, 1e-4],
#     args=(),
#     method='hybr',
#     jac=None,
#     tol=None,
#     callback=None,
#     options=None,
# )

# print(res)
# print(He_energy(res.x))



# print(grad_He_energy([1.880e+00, 3.031e-01]))

# resbrute = optimize.direct(
#     He_energy,
#     ((1e-4,20), (1e-4,20)),
#     maxfun=100000,
#     maxiter=100000,
#     locally_biased=False,
# )

# print(resbrute)



# x0 = [0.1432879285E+01]
# res = optimize.minimize(
#     He_energy,
#     x0,
#     jac=grad_He_energy,
#     bounds=(Bounds(lb=1e-4)),
#     method='SLSQP', tol=1e-8,
# )

# minimizer_kwargs = {"method": "SLSQP", "jac": grad_He_energy, "bounds": ((1e-4, None), (1e-4, None)),}
# res = basinhopping(
#     He_energy,
#     x0,
#     niter=100,
#     minimizer_kwargs=minimizer_kwargs,
#     T=1,
#     )

# print(res.x)
# print(He_energy(res.x))
# print(res.values())

# print("E", He_energy(71.6168370))

# print(f'Nuclaer gradient:\n{jac.coords}')
# print(f'Gradient wrt basis exponents:\n{jac.exp}')
# print(f'Gradient wrt basis contraction coefficients:\n{jac.ctr_coeff}')#INFO: ******************** input file end ********************


System: uname_result(system='Darwin', node='Deyans-MacBook-Pro-Home.local', release='22.1.0', version='Darwin Kernel Version 22.1.0: Sun Oct  9 20:14:54 PDT 2022; root:xnu-8792.41.9~2/RELEASE_X86_64', machine='x86_64', processor='i386')  Threads 1
Python 3.8.16 (default, Mar  1 2023, 21:19:10) 
[Clang 14.0.6 ]
numpy 1.24.2  scipy 1.10.1
Date: Mon Mar  6 15:01:58 2023
PySCF version 2.1.1
PySCF path  /Users/deyanmihaylov/opt/anaconda3/envs/pyscfad_env/lib/python3.8/site-packages/pyscf

[CONFIG] conf_file /Users/deyanmihaylov/.pyscf_conf.py
[INPUT] verbose = 5
[INPUT] max_memory = 4000 
[INPUT] num. atoms = 1
[INPUT] num. electrons = 2
[INPUT] charge = 0
[INPUT] spin (= nelec alpha-beta = 2S) = 0
[INPUT] symmetry False subgroup None
[INPUT] Mole.unit = angstrom
[INPUT] Symbol           X                Y                Z      unit          X                Y                Z       unit  Magmom
[INPUT]  1 He     0.000000000000   0.000000000000   0.000000000000 AA    0.000000000000   0.000000000000   0.000000000000 Bohr   0.0
[INPUT] ---------------- BASIS SET ---------------- 
[INPUT] l, kappa, [nprim/nctr], expnt,             c_1 c_2 ...
[INPUT] He
[INPUT] 0    0    [1    /1   ]  3.28064061817        1
[INPUT] 0    0    [1    /1   ]  1.96284689995        1
[INPUT] 0    0    [1    /1   ]  0.482167867921       1

nuclear repulsion = 0
number of shells = 3
number of NR pGTOs = 3
number of NR cGTOs = 3
basis = {'He': [[0, [3.280640618173586, 1.0]], [0, [1.9628468999467776, 1.0]], [0, [0.48216786792145955, 1.0]]]}
ecp = {}
CPU time:        11.81
Set gradient conv threshold to 3.16228e-05
cond(S) = 102.66405269393884
E1 = -3.737375120885949  E_coul = 1.0174515932676378
init E= -2.71992352761831
    CPU time for initialize scf      0.02 sec, wall time      0.02 sec
  HOMO = -0.861431633418462  LUMO = 2.12821081089381
  mo_energy =
[-0.86143163  2.12821081  8.66566803]
E1 = -3.764023714100778  E_coul = 1.0233655994408033
cycle= 1 E= -2.74065811465997  delta_E= -0.0207  |g|= 0.0228  |ddm|= 0.192
    CPU time for cycle= 1      0.01 sec, wall time      0.01 sec
  HOMO = -0.858662479114149  LUMO = 2.13946555611066
  mo_energy =
[-0.85866248  2.13946556  8.67099891]
E1 = -3.762431655154403  E_coul = 1.0217389033100956
cycle= 2 E= -2.74069275184431  delta_E= -3.46e-05  |g|= 0.00158  |ddm|= 0.0127
    CPU time for cycle= 2      0.01 sec, wall time      0.01 sec
  HOMO = -0.859534204119098  LUMO = 2.13890958064085
  mo_energy =
[-0.8595342   2.13890958  8.66900249]
E1 = -3.762323974396241  E_coul = 1.0216310623576788
cycle= 3 E= -2.74069291203856  delta_E= -1.6e-07  |g|= 9.76e-06  |ddm|= 0.000997
    CPU time for cycle= 3      0.01 sec, wall time      0.01 sec
  HOMO = -0.859530532514731  LUMO = 2.13891293692165
  mo_energy =
[-0.85953053  2.13891294  8.66901013]
E1 = -3.762324710501261  E_coul = 1.0216317984550745
cycle= 4 E= -2.74069291204619  delta_E= -7.62e-12  |g|= 1.53e-08  |ddm|= 1.23e-05
    CPU time for cycle= 4      0.01 sec, wall time      0.01 sec
E1 = -3.762324710501261  E_coul = 1.0216317984550745
  HOMO = -0.859530556795557  LUMO = 2.1389129379959
  mo_energy =
[-0.85953056  2.13891294  8.66901013]
E1 = -3.7623247133841775  E_coul = 1.021631801337991
Extra cycle  E= -2.74069291204619  delta_E=    0  |g|= 1.22e-09  |ddm|= 1.25e-08
    CPU time for scf_cycle      0.06 sec, wall time      0.06 sec
exp = [3.28064062 1.9628469  0.48216787]
E = -2.7406929120461863
#INFO: **** input file is /Users/deyanmihaylov/Documents/Work/pyscf_basis_opt/pyscfad_test.py ****
import pyscf
from pyscfad import gto, scf
import numpy as np

from scipy import optimize

# basis_string = '\n'.join([f'''
#     He  S
#         {x}              1.0'''
#         for x in exponent])

def He_energy(exponent):
    mol = gto.Mole()
    mol.atom = 'He 0 0 0'  # in Angstrom

    basis_string = '\n'.join([f'''
    He  S
        {x}              1.0'''
        for x in exponent])
    mol.basis = {'He': pyscf.gto.basis.parse(basis_string)}

    mol.verbose = 5
    mol.build()

    mf = scf.RHF(mol)
    e = mf.kernel()

    print(f"exp = {exponent}")
    print(f"E = {e}")

    return e

def grad_He_energy(exponent):
    mol = gto.Mole()
    mol.atom = 'He 0 0 0'  # in Angstrom

    basis_string = '\n'.join([f'''
    He  S
        {x}              1.0'''
        for x in exponent])
    mol.basis = {'He': pyscf.gto.basis.parse(basis_string)}
    
    mol.verbose = 5
    mol.build()

    mf = scf.RHF(mol)
    mf.kernel()
    jac = mf.energy_grad()

    print(f"exp = {exponent}")
    print(f"grad_E = {jac.exp}")

    grad_E = np.array(jac.exp)

    return grad_E

def run_minimize(n):
    print(f"Searching in {n} dimensions")
    
    cons = (
        {'type': 'ineq', 'fun': lambda x: x[i] - x[i+1]}
        for i in range(n-1)
    )

    minimize_methods = [
        "Nelder-Mead",
        "Powell",
        "CG",
        "BFGS",
        "Newton-CG",
        "L-BFGS-B",
        "TNC",
        "COBYLA",
        "SLSQP",
        "trust-constr",
        "dogleg",
        "trust-ncg",
        "trust-exact",
        "trust-krylov",
    ]

    for method in minimize_methods:
        print(f"Using method {method}")

        if method not in ["Powell", "COBYLA"]:
            jac = grad_He_energy
        else:
            jac = None

        if method not in ["CG", "BFGS", "Newton-CG", "COBYLA"]:
            bnds = ((1e-6, None) for _ in range(n))
        else:
            bnds = None

        counter = 0
        while True:
            try:
                x0 = np.random.uniform(low=1e-6, high=10.0, size=n)

                res = optimize.minimize(
                    He_energy,
                    x0,
                    args=(),
                    method=method,
                    jac=jac,
                    hess=None,
                    hessp=None,
                    bounds=bnds,
                    # constraints=cons,
                    tol=1e-8,
                    callback=None,
                    # options={"xtol": 1e-8, "ftol": 1e-8},
                )
                print(res)
                break
            except:
                print(f"Method {method} failed with x0 = {x0} for n = {n}")
                counter += 1

                if counter > 10: break


def minimize_energy(n):
    x0 = [0.5 * (n-i) for i in range(n)]
    bnds = ((1e-6, None) for _ in range(n))

    res = optimize.minimize(
        He_energy,
        x0,
        args=(),
        method="SLSQP",
        jac=grad_He_energy,
        hess=None,
        hessp=None,
        bounds=bnds,
        tol=1e-8,
        callback=None,
        # options={"xtol": 1e-8, "ftol": 1e-8},
    )
    print(res)

minimize_energy(3)





# res = optimize.root(
#     grad_He_energy,
#     [1, 1e-4],
#     args=(),
#     method='hybr',
#     jac=None,
#     tol=None,
#     callback=None,
#     options=None,
# )

# print(res)
# print(He_energy(res.x))



# print(grad_He_energy([1.880e+00, 3.031e-01]))

# resbrute = optimize.direct(
#     He_energy,
#     ((1e-4,20), (1e-4,20)),
#     maxfun=100000,
#     maxiter=100000,
#     locally_biased=False,
# )

# print(resbrute)



# x0 = [0.1432879285E+01]
# res = optimize.minimize(
#     He_energy,
#     x0,
#     jac=grad_He_energy,
#     bounds=(Bounds(lb=1e-4)),
#     method='SLSQP', tol=1e-8,
# )

# minimizer_kwargs = {"method": "SLSQP", "jac": grad_He_energy, "bounds": ((1e-4, None), (1e-4, None)),}
# res = basinhopping(
#     He_energy,
#     x0,
#     niter=100,
#     minimizer_kwargs=minimizer_kwargs,
#     T=1,
#     )

# print(res.x)
# print(He_energy(res.x))
# print(res.values())

# print("E", He_energy(71.6168370))

# print(f'Nuclaer gradient:\n{jac.coords}')
# print(f'Gradient wrt basis exponents:\n{jac.exp}')
# print(f'Gradient wrt basis contraction coefficients:\n{jac.ctr_coeff}')#INFO: ******************** input file end ********************


System: uname_result(system='Darwin', node='Deyans-MacBook-Pro-Home.local', release='22.1.0', version='Darwin Kernel Version 22.1.0: Sun Oct  9 20:14:54 PDT 2022; root:xnu-8792.41.9~2/RELEASE_X86_64', machine='x86_64', processor='i386')  Threads 1
Python 3.8.16 (default, Mar  1 2023, 21:19:10) 
[Clang 14.0.6 ]
numpy 1.24.2  scipy 1.10.1
Date: Mon Mar  6 15:01:59 2023
PySCF version 2.1.1
PySCF path  /Users/deyanmihaylov/opt/anaconda3/envs/pyscfad_env/lib/python3.8/site-packages/pyscf

[CONFIG] conf_file /Users/deyanmihaylov/.pyscf_conf.py
[INPUT] verbose = 5
[INPUT] max_memory = 4000 
[INPUT] num. atoms = 1
[INPUT] num. electrons = 2
[INPUT] charge = 0
[INPUT] spin (= nelec alpha-beta = 2S) = 0
[INPUT] symmetry False subgroup None
[INPUT] Mole.unit = angstrom
[INPUT] Symbol           X                Y                Z      unit          X                Y                Z       unit  Magmom
[INPUT]  1 He     0.000000000000   0.000000000000   0.000000000000 AA    0.000000000000   0.000000000000   0.000000000000 Bohr   0.0
[INPUT] ---------------- BASIS SET ---------------- 
[INPUT] l, kappa, [nprim/nctr], expnt,             c_1 c_2 ...
[INPUT] He
[INPUT] 0    0    [1    /1   ]  3.28064061817        1
[INPUT] 0    0    [1    /1   ]  1.96284689995        1
[INPUT] 0    0    [1    /1   ]  0.482167867921       1

nuclear repulsion = 0
number of shells = 3
number of NR pGTOs = 3
number of NR cGTOs = 3
basis = {'He': [[0, [3.280640618173586, 1.0]], [0, [1.9628468999467776, 1.0]], [0, [0.48216786792145955, 1.0]]]}
ecp = {}
CPU time:        11.96
Set gradient conv threshold to 3.16228e-05
cond(S) = 102.66405269393884
E1 = -3.737375120885949  E_coul = 1.0174515932676378
init E= -2.71992352761831
    CPU time for initialize scf      0.02 sec, wall time      0.02 sec
  HOMO = -0.861431633418462  LUMO = 2.12821081089381
  mo_energy =
[-0.86143163  2.12821081  8.66566803]
E1 = -3.764023714100778  E_coul = 1.0233655994408033
cycle= 1 E= -2.74065811465997  delta_E= -0.0207  |g|= 0.0228  |ddm|= 0.192
    CPU time for cycle= 1      0.01 sec, wall time      0.01 sec
  HOMO = -0.858662479114149  LUMO = 2.13946555611066
  mo_energy =
[-0.85866248  2.13946556  8.67099891]
E1 = -3.762431655154403  E_coul = 1.0217389033100956
cycle= 2 E= -2.74069275184431  delta_E= -3.46e-05  |g|= 0.00158  |ddm|= 0.0127
    CPU time for cycle= 2      0.01 sec, wall time      0.01 sec
  HOMO = -0.859534204119098  LUMO = 2.13890958064085
  mo_energy =
[-0.8595342   2.13890958  8.66900249]
E1 = -3.762323974396241  E_coul = 1.0216310623576788
cycle= 3 E= -2.74069291203856  delta_E= -1.6e-07  |g|= 9.76e-06  |ddm|= 0.000997
    CPU time for cycle= 3      0.01 sec, wall time      0.01 sec
  HOMO = -0.859530532514731  LUMO = 2.13891293692165
  mo_energy =
[-0.85953053  2.13891294  8.66901013]
E1 = -3.762324710501261  E_coul = 1.0216317984550745
cycle= 4 E= -2.74069291204619  delta_E= -7.62e-12  |g|= 1.53e-08  |ddm|= 1.23e-05
    CPU time for cycle= 4      0.01 sec, wall time      0.01 sec
E1 = -3.762324710501261  E_coul = 1.0216317984550745
  HOMO = -0.859530556795557  LUMO = 2.1389129379959
  mo_energy =
[-0.85953056  2.13891294  8.66901013]
E1 = -3.7623247133841775  E_coul = 1.021631801337991
Extra cycle  E= -2.74069291204619  delta_E=    0  |g|= 1.22e-09  |ddm|= 1.25e-08
    CPU time for scf_cycle      0.06 sec, wall time      0.06 sec
Set gradient conv threshold to 3.16228e-05
cond(S) = 102.66405269393884
E1 = -3.7623247133841775  E_coul = 1.021631801337991
init E= -2.74069291204619
    CPU time for initialize scf      0.03 sec, wall time      0.03 sec
  HOMO = -0.859530555354099  LUMO = 2.13891293911607
  mo_energy =
[-0.85953056  2.13891294  8.66901014]
E1 = -3.762324713620693  E_coul = 1.0216318015745058
cycle= 1 E= -2.74069291204619  delta_E= -8.88e-16  |g|= 1.1e-10  |ddm|= 1.3e-09
    CPU time for cycle= 1      0.01 sec, wall time      0.01 sec
E1 = -3.762324713620693  E_coul = 1.0216318015745058
  HOMO = -0.859530555235841  LUMO = 2.13891293921023
  mo_energy =
[-0.85953056  2.13891294  8.66901014]
E1 = -3.7623247136407496  E_coul = 1.0216318015945627
[...]
[INPUT] 0    0    [1    /1   ]  0.382851659809       1

nuclear repulsion = 0
number of shells = 3
number of NR pGTOs = 3
number of NR cGTOs = 3
basis = {'He': [[0, [13.610583910525309, 1.0]], [0, [1.9979436308843315, 1.0]], [0, [0.3828516598094677, 1.0]]]}
ecp = {}
CPU time:        59.62
Set gradient conv threshold to 3.16228e-05
cond(S) = 7.634035002757487
E1 = -3.8531427061705097  E_coul = 1.0237653939969178
init E= -2.82937731217359
    CPU time for initialize scf      0.02 sec, wall time      0.02 sec
  HOMO = -0.90593891060981  LUMO = 1.86444819493987
  mo_energy =
[-0.90593891  1.86444819 18.78454324]
E1 = -3.864453826887287  E_coul = 1.0287762315835272
cycle= 1 E= -2.83567759530376  delta_E= -0.0063  |g|= 0.00899  |ddm|= 0.0174
    CPU time for cycle= 1      0.01 sec, wall time      0.01 sec
  HOMO = -0.903451764067382  LUMO = 1.86903320598494
  mo_energy =
[-0.90345176  1.86903321 18.78820822]
E1 = -3.864204692285058  E_coul = 1.0285248421589543
cycle= 2 E= -2.8356798501261  delta_E= -2.25e-06  |g|= 0.000386  |ddm|= 0.000691
    CPU time for cycle= 2      0.01 sec, wall time      0.01 sec
  HOMO = -0.903583001704791  LUMO = 1.86892796003289
  mo_energy =
[-0.903583    1.86892796 18.78758916]
E1 = -3.8641976832060037  E_coul = 1.0285178290710557
cycle= 3 E= -2.83567985413495  delta_E= -4.01e-09  |g|= 1.81e-06  |ddm|= 3.13e-05
    CPU time for cycle= 3      0.01 sec, wall time      0.01 sec
  HOMO = -0.90358084436481  LUMO = 1.86892991846303
  mo_energy =
[-0.90358084  1.86892992 18.78759727]
E1 = -3.864198018503142  E_coul = 1.0285181643677743
cycle= 4 E= -2.83567985413537  delta_E= -4.2e-13  |g|= 4.89e-10  |ddm|= 1.04e-06
    CPU time for cycle= 4      0.01 sec, wall time      0.01 sec
E1 = -3.864198018503142  E_coul = 1.0285181643677743
  HOMO = -0.903580844883797  LUMO = 1.86892991825097
  mo_energy =
[-0.90358084  1.86892992 18.78759727]
E1 = -3.8641980186020857  E_coul = 1.0285181644667174
Extra cycle  E= -2.83567985413537  delta_E= -8.88e-16  |g|= 3.17e-11  |ddm|= 2.67e-10
    CPU time for scf_cycle      0.07 sec, wall time      0.07 sec
Set gradient conv threshold to 3.16228e-05
cond(S) = 7.634035002757487
E1 = -3.8641980186020857  E_coul = 1.0285181644667174
init E= -2.83567985413537
    CPU time for initialize scf      0.03 sec, wall time      0.03 sec
  HOMO = -0.903580844834324  LUMO = 1.86892991829525
  mo_energy =
[-0.90358084  1.86892992 18.78759727]
E1 = -3.8641980186091396  E_coul = 1.0285181644737718
cycle= 1 E= -2.83567985413537  delta_E= 8.88e-16  |g|= 2.74e-12  |ddm|= 2.04e-11
    CPU time for cycle= 1      0.01 sec, wall time      0.01 sec
E1 = -3.8641980186091396  E_coul = 1.0285181644737718
  HOMO = -0.903580844830796  LUMO = 1.86892991829843
  mo_energy =
[-0.90358084  1.86892992 18.78759727]
E1 = -3.8641980186096734  E_coul = 1.0285181644743044
Extra cycle  E= -2.83567985413537  delta_E= -1.33e-15  |g|= 2.41e-13  |ddm|= 1.61e-12
    CPU time for scf_cycle      0.08 sec, wall time      0.08 sec
exp = [13.61058391  1.99794363  0.38285166]
grad_E = [-3.68873591e-06  1.48377065e-07  2.83861669e-05]
#INFO: **** input file is /Users/deyanmihaylov/Documents/Work/pyscf_basis_opt/pyscfad_test.py ****
import pyscf
from pyscfad import gto, scf
import numpy as np

from scipy import optimize

# basis_string = '\n'.join([f'''
#     He  S
#         {x}              1.0'''
#         for x in exponent])

def He_energy(exponent):
    mol = gto.Mole()
    mol.atom = 'He 0 0 0'  # in Angstrom

    basis_string = '\n'.join([f'''
    He  S
        {x}              1.0'''
        for x in exponent])
    mol.basis = {'He': pyscf.gto.basis.parse(basis_string)}

    mol.verbose = 5
    mol.build()

    mf = scf.RHF(mol)
    e = mf.kernel()

    print(f"exp = {exponent}")
    print(f"E = {e}")

    return e

def grad_He_energy(exponent):
    mol = gto.Mole()
    mol.atom = 'He 0 0 0'  # in Angstrom

    basis_string = '\n'.join([f'''
    He  S
        {x}              1.0'''
        for x in exponent])
    mol.basis = {'He': pyscf.gto.basis.parse(basis_string)}
    
    mol.verbose = 5
    mol.build()

    mf = scf.RHF(mol)
    mf.kernel()
    jac = mf.energy_grad()

    print(f"exp = {exponent}")
    print(f"grad_E = {jac.exp}")

    grad_E = np.array(jac.exp)

    return grad_E

def run_minimize(n):
    print(f"Searching in {n} dimensions")
    
    cons = (
        {'type': 'ineq', 'fun': lambda x: x[i] - x[i+1]}
        for i in range(n-1)
    )

    minimize_methods = [
        "Nelder-Mead",
        "Powell",
        "CG",
        "BFGS",
        "Newton-CG",
        "L-BFGS-B",
        "TNC",
        "COBYLA",
        "SLSQP",
        "trust-constr",
        "dogleg",
        "trust-ncg",
        "trust-exact",
        "trust-krylov",
    ]

    for method in minimize_methods:
        print(f"Using method {method}")

        if method not in ["Powell", "COBYLA"]:
            jac = grad_He_energy
        else:
            jac = None

        if method not in ["CG", "BFGS", "Newton-CG", "COBYLA"]:
            bnds = ((1e-6, None) for _ in range(n))
        else:
            bnds = None

        counter = 0
        while True:
            try:
                x0 = np.random.uniform(low=1e-6, high=10.0, size=n)

                res = optimize.minimize(
                    He_energy,
                    x0,
                    args=(),
                    method=method,
                    jac=jac,
                    hess=None,
                    hessp=None,
                    bounds=bnds,
                    # constraints=cons,
                    tol=1e-8,
                    callback=None,
                    # options={"xtol": 1e-8, "ftol": 1e-8},
                )
                print(res)
                break
            except:
                print(f"Method {method} failed with x0 = {x0} for n = {n}")
                counter += 1

                if counter > 10: break


def minimize_energy(n):
    x0 = [0.5 * (n-i) for i in range(n)]
    bnds = ((1e-6, None) for _ in range(n))

    res = optimize.minimize(
        He_energy,
        x0,
        args=(),
        method="SLSQP",
        jac=grad_He_energy,
        hess=None,
        hessp=None,
        bounds=bnds,
        tol=1e-8,
        callback=None,
        # options={"xtol": 1e-8, "ftol": 1e-8},
    )
    print(res)

minimize_energy(3)





# res = optimize.root(
#     grad_He_energy,
#     [1, 1e-4],
#     args=(),
#     method='hybr',
#     jac=None,
#     tol=None,
#     callback=None,
#     options=None,
# )

# print(res)
# print(He_energy(res.x))



# print(grad_He_energy([1.880e+00, 3.031e-01]))

# resbrute = optimize.direct(
#     He_energy,
#     ((1e-4,20), (1e-4,20)),
#     maxfun=100000,
#     maxiter=100000,
#     locally_biased=False,
# )

# print(resbrute)



# x0 = [0.1432879285E+01]
# res = optimize.minimize(
#     He_energy,
#     x0,
#     jac=grad_He_energy,
#     bounds=(Bounds(lb=1e-4)),
#     method='SLSQP', tol=1e-8,
# )

# minimizer_kwargs = {"method": "SLSQP", "jac": grad_He_energy, "bounds": ((1e-4, None), (1e-4, None)),}
# res = basinhopping(
#     He_energy,
#     x0,
#     niter=100,
#     minimizer_kwargs=minimizer_kwargs,
#     T=1,
#     )

# print(res.x)
# print(He_energy(res.x))
# print(res.values())

# print("E", He_energy(71.6168370))

# print(f'Nuclaer gradient:\n{jac.coords}')
# print(f'Gradient wrt basis exponents:\n{jac.exp}')
# print(f'Gradient wrt basis contraction coefficients:\n{jac.ctr_coeff}')#INFO: ******************** input file end ********************


System: uname_result(system='Darwin', node='Deyans-MacBook-Pro-Home.local', release='22.1.0', version='Darwin Kernel Version 22.1.0: Sun Oct  9 20:14:54 PDT 2022; root:xnu-8792.41.9~2/RELEASE_X86_64', machine='x86_64', processor='i386')  Threads 1
Python 3.8.16 (default, Mar  1 2023, 21:19:10) 
[Clang 14.0.6 ]
numpy 1.24.2  scipy 1.10.1
Date: Mon Mar  6 15:02:50 2023
PySCF version 2.1.1
PySCF path  /Users/deyanmihaylov/opt/anaconda3/envs/pyscfad_env/lib/python3.8/site-packages/pyscf

[CONFIG] conf_file /Users/deyanmihaylov/.pyscf_conf.py
[INPUT] verbose = 5
[INPUT] max_memory = 4000 
[INPUT] num. atoms = 1
[INPUT] num. electrons = 2
[INPUT] charge = 0
[INPUT] spin (= nelec alpha-beta = 2S) = 0
[INPUT] symmetry False subgroup None
[INPUT] Mole.unit = angstrom
[INPUT] Symbol           X                Y                Z      unit          X                Y                Z       unit  Magmom
[INPUT]  1 He     0.000000000000   0.000000000000   0.000000000000 AA    0.000000000000   0.000000000000   0.000000000000 Bohr   0.0
[INPUT] ---------------- BASIS SET ---------------- 
[INPUT] l, kappa, [nprim/nctr], expnt,             c_1 c_2 ...
[INPUT] He
[INPUT] 0    0    [1    /1   ]  13.6237937672        1
[INPUT] 0    0    [1    /1   ]  1.9989708211         1
[INPUT] 0    0    [1    /1   ]  0.382938824053       1

nuclear repulsion = 0
number of shells = 3
number of NR pGTOs = 3
number of NR cGTOs = 3
basis = {'He': [[0, [13.623793767223205, 1.0]], [0, [1.9989708210974233, 1.0]], [0, [0.38293882405300855, 1.0]]]}
ecp = {}
CPU time:        62.23
Set gradient conv threshold to 3.16228e-05
cond(S) = 7.629728785345541
E1 = -3.8531366460116994  E_coul = 1.0237654478129148
init E= -2.82937119819878
    CPU time for initialize scf      0.02 sec, wall time      0.02 sec
  HOMO = -0.905938908487471  LUMO = 1.86533007084544
  mo_energy =
[-0.90593891  1.86533007 18.8016383 ]
E1 = -3.864461653630844  E_coul = 1.028784036041228
cycle= 1 E= -2.83567761758962  delta_E= -0.00631  |g|= 0.009  |ddm|= 0.0174
    CPU time for cycle= 1      0.01 sec, wall time      0.01 sec
  HOMO = -0.903447872658991  LUMO = 1.86992126560855
  mo_energy =
[-0.90344787  1.86992127 18.80531222]
E1 = -3.8642120113188163  E_coul = 1.02853213963662
cycle= 2 E= -2.8356798716822  delta_E= -2.25e-06  |g|= 0.000386  |ddm|= 0.000691
    CPU time for cycle= 2      0.01 sec, wall time      0.01 sec
  HOMO = -0.9035793716708  LUMO = 1.86981571518923
  mo_energy =
[-0.90357937  1.86981572 18.80469191]
E1 = -3.8642049475271967  E_coul = 1.0285250718437517
cycle= 3 E= -2.83567987568344  delta_E= -4e-09  |g|= 1.8e-06  |ddm|= 3.12e-05
    CPU time for cycle= 3      0.01 sec, wall time      0.01 sec
  HOMO = -0.903577235454084  LUMO = 1.86981765523045
  mo_energy =
[-0.90357724  1.86981766 18.80469994]
E1 = -3.864205279421953  E_coul = 1.028525403738096
cycle= 4 E= -2.83567987568386  delta_E= -4.12e-13  |g|= 4.88e-10  |ddm|= 1.03e-06
    CPU time for cycle= 4      0.01 sec, wall time      0.01 sec
E1 = -3.864205279421953  E_coul = 1.028525403738096
  HOMO = -0.903577235972881  LUMO = 1.86981765501881
  mo_energy =
[-0.90357724  1.86981766 18.80469994]
E1 = -3.864205279520734  E_coul = 1.0285254038368765
Extra cycle  E= -2.83567987568386  delta_E= -4.44e-16  |g|= 3.16e-11  |ddm|= 2.67e-10
    CPU time for scf_cycle      0.08 sec, wall time      0.08 sec
exp = [13.62379377  1.99897082  0.38293882]
E = -2.8356798756838573
#INFO: **** input file is /Users/deyanmihaylov/Documents/Work/pyscf_basis_opt/pyscfad_test.py ****
import pyscf
from pyscfad import gto, scf
import numpy as np

from scipy import optimize

# basis_string = '\n'.join([f'''
#     He  S
#         {x}              1.0'''
#         for x in exponent])

def He_energy(exponent):
    mol = gto.Mole()
    mol.atom = 'He 0 0 0'  # in Angstrom

    basis_string = '\n'.join([f'''
    He  S
        {x}              1.0'''
        for x in exponent])
    mol.basis = {'He': pyscf.gto.basis.parse(basis_string)}

    mol.verbose = 5
    mol.build()

    mf = scf.RHF(mol)
    e = mf.kernel()

    print(f"exp = {exponent}")
    print(f"E = {e}")

    return e

def grad_He_energy(exponent):
    mol = gto.Mole()
    mol.atom = 'He 0 0 0'  # in Angstrom

    basis_string = '\n'.join([f'''
    He  S
        {x}              1.0'''
        for x in exponent])
    mol.basis = {'He': pyscf.gto.basis.parse(basis_string)}
    
    mol.verbose = 5
    mol.build()

    mf = scf.RHF(mol)
    mf.kernel()
    jac = mf.energy_grad()

    print(f"exp = {exponent}")
    print(f"grad_E = {jac.exp}")

    grad_E = np.array(jac.exp)

    return grad_E

def run_minimize(n):
    print(f"Searching in {n} dimensions")
    
    cons = (
        {'type': 'ineq', 'fun': lambda x: x[i] - x[i+1]}
        for i in range(n-1)
    )

    minimize_methods = [
        "Nelder-Mead",
        "Powell",
        "CG",
        "BFGS",
        "Newton-CG",
        "L-BFGS-B",
        "TNC",
        "COBYLA",
        "SLSQP",
        "trust-constr",
        "dogleg",
        "trust-ncg",
        "trust-exact",
        "trust-krylov",
    ]

    for method in minimize_methods:
        print(f"Using method {method}")

        if method not in ["Powell", "COBYLA"]:
            jac = grad_He_energy
        else:
            jac = None

        if method not in ["CG", "BFGS", "Newton-CG", "COBYLA"]:
            bnds = ((1e-6, None) for _ in range(n))
        else:
            bnds = None

        counter = 0
        while True:
            try:
                x0 = np.random.uniform(low=1e-6, high=10.0, size=n)

                res = optimize.minimize(
                    He_energy,
                    x0,
                    args=(),
                    method=method,
                    jac=jac,
                    hess=None,
                    hessp=None,
                    bounds=bnds,
                    # constraints=cons,
                    tol=1e-8,
                    callback=None,
                    # options={"xtol": 1e-8, "ftol": 1e-8},
                )
                print(res)
                break
            except:
                print(f"Method {method} failed with x0 = {x0} for n = {n}")
                counter += 1

                if counter > 10: break


def minimize_energy(n):
    x0 = [0.5 * (n-i) for i in range(n)]
    bnds = ((1e-6, None) for _ in range(n))

    res = optimize.minimize(
        He_energy,
        x0,
        args=(),
        method="SLSQP",
        jac=grad_He_energy,
        hess=None,
        hessp=None,
        bounds=bnds,
        tol=1e-8,
        callback=None,
        # options={"xtol": 1e-8, "ftol": 1e-8},
    )
    print(res)

minimize_energy(3)





# res = optimize.root(
#     grad_He_energy,
#     [1, 1e-4],
#     args=(),
#     method='hybr',
#     jac=None,
#     tol=None,
#     callback=None,
#     options=None,
# )

# print(res)
# print(He_energy(res.x))



# print(grad_He_energy([1.880e+00, 3.031e-01]))

# resbrute = optimize.direct(
#     He_energy,
#     ((1e-4,20), (1e-4,20)),
#     maxfun=100000,
#     maxiter=100000,
#     locally_biased=False,
# )

# print(resbrute)



# x0 = [0.1432879285E+01]
# res = optimize.minimize(
#     He_energy,
#     x0,
#     jac=grad_He_energy,
#     bounds=(Bounds(lb=1e-4)),
#     method='SLSQP', tol=1e-8,
# )

# minimizer_kwargs = {"method": "SLSQP", "jac": grad_He_energy, "bounds": ((1e-4, None), (1e-4, None)),}
# res = basinhopping(
#     He_energy,
#     x0,
#     niter=100,
#     minimizer_kwargs=minimizer_kwargs,
#     T=1,
#     )

# print(res.x)
# print(He_energy(res.x))
# print(res.values())

# print("E", He_energy(71.6168370))

# print(f'Nuclaer gradient:\n{jac.coords}')
# print(f'Gradient wrt basis exponents:\n{jac.exp}')
# print(f'Gradient wrt basis contraction coefficients:\n{jac.ctr_coeff}')#INFO: ******************** input file end ********************


System: uname_result(system='Darwin', node='Deyans-MacBook-Pro-Home.local', release='22.1.0', version='Darwin Kernel Version 22.1.0: Sun Oct  9 20:14:54 PDT 2022; root:xnu-8792.41.9~2/RELEASE_X86_64', machine='x86_64', processor='i386')  Threads 1
Python 3.8.16 (default, Mar  1 2023, 21:19:10) 
[Clang 14.0.6 ]
numpy 1.24.2  scipy 1.10.1
Date: Mon Mar  6 15:02:51 2023
PySCF version 2.1.1
PySCF path  /Users/deyanmihaylov/opt/anaconda3/envs/pyscfad_env/lib/python3.8/site-packages/pyscf

[CONFIG] conf_file /Users/deyanmihaylov/.pyscf_conf.py
[INPUT] verbose = 5
[INPUT] max_memory = 4000 
[INPUT] num. atoms = 1
[INPUT] num. electrons = 2
[INPUT] charge = 0
[INPUT] spin (= nelec alpha-beta = 2S) = 0
[INPUT] symmetry False subgroup None
[INPUT] Mole.unit = angstrom
[INPUT] Symbol           X                Y                Z      unit          X                Y                Z       unit  Magmom
[INPUT]  1 He     0.000000000000   0.000000000000   0.000000000000 AA    0.000000000000   0.000000000000   0.000000000000 Bohr   0.0
[INPUT] ---------------- BASIS SET ---------------- 
[INPUT] l, kappa, [nprim/nctr], expnt,             c_1 c_2 ...
[INPUT] He
[INPUT] 0    0    [1    /1   ]  13.6237937672        1
[INPUT] 0    0    [1    /1   ]  1.9989708211         1
[INPUT] 0    0    [1    /1   ]  0.382938824053       1

nuclear repulsion = 0
number of shells = 3
number of NR pGTOs = 3
number of NR cGTOs = 3
basis = {'He': [[0, [13.623793767223205, 1.0]], [0, [1.9989708210974233, 1.0]], [0, [0.38293882405300855, 1.0]]]}
ecp = {}
CPU time:        62.68
Set gradient conv threshold to 3.16228e-05
cond(S) = 7.629728785345541
E1 = -3.8531366460116994  E_coul = 1.0237654478129148
init E= -2.82937119819878
    CPU time for initialize scf      0.02 sec, wall time      0.02 sec
  HOMO = -0.905938908487471  LUMO = 1.86533007084544
  mo_energy =
[-0.90593891  1.86533007 18.8016383 ]
E1 = -3.864461653630844  E_coul = 1.028784036041228
cycle= 1 E= -2.83567761758962  delta_E= -0.00631  |g|= 0.009  |ddm|= 0.0174
    CPU time for cycle= 1      0.01 sec, wall time      0.01 sec
  HOMO = -0.903447872658991  LUMO = 1.86992126560855
  mo_energy =
[-0.90344787  1.86992127 18.80531222]
E1 = -3.8642120113188163  E_coul = 1.02853213963662
cycle= 2 E= -2.8356798716822  delta_E= -2.25e-06  |g|= 0.000386  |ddm|= 0.000691
    CPU time for cycle= 2      0.01 sec, wall time      0.01 sec
  HOMO = -0.9035793716708  LUMO = 1.86981571518923
  mo_energy =
[-0.90357937  1.86981572 18.80469191]
E1 = -3.8642049475271967  E_coul = 1.0285250718437517
cycle= 3 E= -2.83567987568344  delta_E= -4e-09  |g|= 1.8e-06  |ddm|= 3.12e-05
    CPU time for cycle= 3      0.01 sec, wall time      0.01 sec
  HOMO = -0.903577235454084  LUMO = 1.86981765523045
  mo_energy =
[-0.90357724  1.86981766 18.80469994]
E1 = -3.864205279421953  E_coul = 1.028525403738096
cycle= 4 E= -2.83567987568386  delta_E= -4.12e-13  |g|= 4.88e-10  |ddm|= 1.03e-06
    CPU time for cycle= 4      0.01 sec, wall time      0.01 sec
E1 = -3.864205279421953  E_coul = 1.028525403738096
  HOMO = -0.903577235972881  LUMO = 1.86981765501881
  mo_energy =
[-0.90357724  1.86981766 18.80469994]
E1 = -3.864205279520734  E_coul = 1.0285254038368765
Extra cycle  E= -2.83567987568386  delta_E= -4.44e-16  |g|= 3.16e-11  |ddm|= 2.67e-10
    CPU time for scf_cycle      0.06 sec, wall time      0.06 sec
Set gradient conv threshold to 3.16228e-05
cond(S) = 7.629728785345541
E1 = -3.864205279520734  E_coul = 1.0285254038368765
init E= -2.83567987568386
    CPU time for initialize scf      0.03 sec, wall time      0.03 sec
  HOMO = -0.903577235923491  LUMO = 1.86981765506303
  mo_energy =
[-0.90357724  1.86981766 18.80469994]
E1 = -3.8642052795277784  E_coul = 1.0285254038439207
cycle= 1 E= -2.83567987568386  delta_E= -4.44e-16  |g|= 2.73e-12  |ddm|= 2.04e-11
    CPU time for cycle= 1      0.01 sec, wall time      0.01 sec
E1 = -3.8642052795277784  E_coul = 1.0285254038439207
  HOMO = -0.903577235919968  LUMO = 1.86981765506621
  mo_energy =
[-0.90357724  1.86981766 18.80469994]
E1 = -3.864205279528307  E_coul = 1.0285254038444496
Extra cycle  E= -2.83567987568386  delta_E= 4.44e-16  |g|= 2.41e-13  |ddm|= 1.6e-12
    CPU time for scf_cycle      0.07 sec, wall time      0.08 sec
exp = [13.62379377  1.99897082  0.38293882]
grad_E = [ 2.99495816e-07  8.31456460e-07 -2.10889161e-05]
 message: Optimization terminated successfully
 success: True
  status: 0
     fun: -2.8356798756838573
       x: [ 1.362e+01  1.999e+00  3.829e-01]
     nit: 24
     jac: [ 2.995e-07  8.315e-07 -2.109e-05]
    nfev: 27
    njev: 24
