 --invoking executable--
/home/nike/cfour_v2.00beta/bin/xjoda


   *************************************************************************
         <<<     CCCCCC     CCCCCC   |||     CCCCCC     CCCCCC   >>>
       <<<      CCC        CCC       |||    CCC        CCC         >>>
      <<<      CCC        CCC        |||   CCC        CCC            >>>
    <<<        CCC        CCC        |||   CCC        CCC              >>>
      <<<      CCC        CCC        |||   CCC        CCC            >>>
       <<<      CCC        CCC       |||    CCC        CCC         >>>
         <<<     CCCCCC     CCCCCC   |||     CCCCCC     CCCCCC   >>>
   *************************************************************************

     ****************************************************************
     * CFOUR Coupled-Cluster techniques for Computational Chemistry *
     ****************************************************************
 

   Department of Chemistry                Institut fuer Physikalische Chemie
   University of Texas at Austin          Universitaet Mainz
   Austin, TX  78712, USA                 D-55099 Mainz, Germany
 
                       Version 2.00beta
 
                     wob131                                            
                     Mon Sep 26 02:59:34 EDT 2016                      
                     integer*8 version is running
 
********************************************************************************
*                          Input from ZMAT file                                *
********************************************************************************
TITLE                                                                           
Ne                                                                              
                                                                                
*ACES2(CALC=CCSDT                                                               
CC_PROG=MRCC                                                                    
cctol=9                                                                         
CC_MAXCYC=999                                                                   
REFERENCE=RHF                                                                   
MULT=1                                                                          
ABCDTYPE=STANDARD                                                               
MEM=16                                                                          
MEM_UNIT=GB                                                                     
RELATIVISTIC=X2C1E                                                              
CONTRACTION=UNCONTRACTED                                                        
BASIS=SPECIAL)                                                                  
                                                                                
NE:aug-cc-pCV5Z                                                                 
                                                                                
********************************************************************************
  @GTFLGS-W, Keyword cctol not known and is ignored.
    -------------------------------------------------------------------
                    CFOUR Control Parameters 
    -------------------------------------------------------------------
        External           Internal           Value            Units
          Name               Name
    -------------------------------------------------------------------
       ABCDTYPE             IABCDT         STANDARD     [  0]   ***   
       ANHARMONIC           IANHAR         OFF          [  0]   ***   
       ANH_ALGORIT          IANALG         STANDARD     [  0]   ***   
       ANH_DERIVAT          IANDER         SECOND       [  1]   ***   
       ANH_STEPSIZ          ICUBST             50000          x 10-6  
       ANH_SYMMETR          IANHSM         ABELIAN      [  0]   ***   
       AO_LADDERS           IAOLAD         SINGLEPASS   [  1]   ***   
       BASIS                IBASIS         SPECIAL      [  0]   ***   
       BREIT                IBREIT         OFF          [  0]   ***   
       BRUCK_CONV           IBRTOL          10D-  4             ***   
       BRUECKNER            IBRKNR             OFF      [  0]   ***   
       BUFFERSIZE           IBUFFS            600               ***   
       CACHE_RECS           ICHREC             10               ***   
       CALCLEVEL            ICLLVL           CCSDT      [ 18]   ***   
       CCORBOPT             ICCORB             OFF      [  0] x 0.01  
       CC_CONV              ICCCNV          10D-  7             ***   
       CC_EXPORDER          ICCEOR              5               ***   
       CC_EXTRAPOL          ICCEXT             DIIS     [  1]   ***   
       CC_MAXCYC            ICCCYC            999              cycles 
       CC_PROGRAM           ICCPRO         MRCC         [  2]   ***   
       CHARGE               ICHRGE              0               ***   
       CHOLESKY             ICHOLE         OFF          [  0]   ***   
       CIS_CONV             ICISTL              5               ***   
       COMM_SIZE            IPSIZE            ***               ***   
       CONSTANT             ICONST         OLD          [  1]   ***   
       CONTINUUM            ICONTU         NONE         [  0]   ***   
       CONTRACTION          ICNTYP         UNCONTRACTED [  2]   ***   
       COORDINATES          ICOORD         INTERNAL     [  0]   ***   
       CPHF_CONVER          ICPHFT          10D- 16             ***   
       CPHF_MAXCYC          ICPHFC             64              cycles 
       CUBIC                ICUBIC         OFF          [  0]   ***   
       CURVILINEAR          ICURVY            OFF       [  0]   ***   
       DBOC                 IDBOC          OFF          [  0]   ***   
       DCT                  IDCT           OFF          [  0]   ***   
       DERIV_LEV            IDRLVL            ZERO      [  0]   ***   
       DIAG_MRCC            IEOMST          10D-  0             ***   
       DIFF_TYPE            IDIFTY         RELAXED      [  0]   ***   
       DIRECT               IDIRCT         OFF          [  0]   ***   
       DROPMO               IDRPMO      NONE         
       ECP                  IECP           OFF          [  0]   ***   
       EIGENVECTOR          IVEC                1               ***   
       EL_ANHARM            IELANH         OFF          [  0]   ***   
       EOMFOLLOW            IEOMSR         ENERGY       [  0]   ***   
       EOM_MRCC             IMRCCE         NEW          [  1]   ***   
       EOM_NONIT            EOMNON         OFF          [  0]   ***   
       EOM_NSING            IEOMSI          10D-  0             ***   
       EOM_NSTATES          IMRCCD         DAVIDSON     [  0]   ***   
       EOM_NTRIP            IEOMTR          10D-  0             ***   
       EOM_ORDER            IEXORD         ENERGY       [  0]   ***   
       ESTATE_CONV          IEXTOL          10D-  5             ***   
       ESTATE_DIAG          IEXDIG         ITERATIVE    [  0]   ***   
       ESTATE_LOCK          IESLOC         ON           [  1]   ***   
       ESTATE_MAXC          IEXMXC             20               ***   
       ESTATE_PROP          IEXPRP         OFF          [  0]   ***   
       EVAL_HESS            IRECAL              0            # of cyc.
       EXCITATION           IEXCIT              0               ***   
       EXCITE               IEXCIT         NONE         [  0]   ***   
       FCGRADNEW            IFCGNW         OFF          [  0]   ***   
       FC_FIELD             IFINFC              0             x 10-6  
       FD_CALTYPE           IFDCAL         GRADONLY     [  0]   ***   
       FD_PROJECT           IFDPRJ         OFF          [  1]   ***   
       FD_STEPSIZE          IDISFD              0            10-4 bohr
       FD_USEGROUP          IFDGRP         FULL         [  0]   ***   
       FILE_RECSIZ          IFLREC              4096           words  
       FINITE_PERT          IFIPER              0             x 10-6  
       FIXGEOM              IFIXGM         OFF          [  0]   ***   
       FOCK                 IFOCK          AO           [  1]   ***   
       FREQ_ALGORI          IVIALG         STANDARD     [  0]   ***   
       FROZEN_CORE          IFROCO         OFF          [  0]   ***   
       FROZEN_VIRT          IFROVI         OFF          [  0]   ***   
       GAMMA_ABCD           IGABCD         STORE        [  0]   ***   
       GAMMA_ABCI           IGABCI         STORE        [  0]   ***   
       GENBAS_1             IGNBS1              0               ***   
       GENBAS_2             IGNBS2              0               ***   
       GENBAS_3             IGNBS3              0               ***   
       GENBAS_4             IGNBS4              0               ***   
       GEO_CONV             ICONTL              5              H/bohr 
       GEO_MAXCYC           IOPTCY             50               ***   
       GEO_MAXSTEP          IMXSTP            300            millibohr
       GEO_METHOD           INR            SINGLE_POINT [  5]   ***   
       GIAO                 IGIAO          OFF          [  1]   ***   
       GIMIC                IGIMIC         OFF          [  0]   ***   
       GRID                 IGRID          OFF          [  0]   ***   
       GRID_ALGO            IGALGO         SERIAL       [  0]   ***   
       GUESS                IGUESS            MOREAD    [  0]   ***   
       HBAR                 IHBAR              OFF      [  0]   ***   
       HESS_TYPE            IHESTP         SCF          [  0]   ***   
       HF2_FILE             IHF2Fl         USE          [  1]   ***   
       HFSTABILITY          ISTABL         OFF          [  0]   ***   
       INCORE               INCORE             OFF      [  0]   ***   
       INPUT_MRCC           IMRCC          ON           [  1]   ***   
       INTEGRALS            INTTYP             VMOL     [  1]   ***   
       JODA_PRINT           IJPRNT              0               ***   
       LINDEP_TOL           ILINDP              8               ***   
       LINEQ_CONV           IZTACN          10D-  7           cycles  
       LINEQ_EXPOR          ILMAXD              5               ***   
       LINEQ_MAXCY          ILMAXC             50               ***   
       LINEQ_TYPE           ILTYPE         DIIS         [  1]   ***   
       LOCK_ORBOCC          ILOCOC             OFF      [  0]   ***   
       MEMORY_SIZE          IMEMSZ         *********           words  
       MEM_UNIT             IMEMU          GB           [  3]   ***   
       MRCC                 IMRCCC         OFF          [  0]   ***   
       MULTIPLICTY          IMULTP              1               ***   
       NEGEVAL              IDIE             ABORT      [  0]   ***   
       NEWNORM              INEWNO         OFF          [  0]   ***   
       NON-HF               INONHF             OFF      [  0]   ***   
       NTOP_TAMP            ITOPT2             15               ***   
       NUC_MODEL            INUCMO         POINT        [  0]   ***   
       OCCUPATION           IOCCU   ESTIMATED BY SCF 
       OPEN-SHELL           IOPEN          SPIN-ORBITAL [  0]   ***   
       ORBITALS             IORBTP           STANDARD   [  0]   ***   
       PARALLEL             IPARAL         ON           [  1]   ***   
       PARA_INT             IPINTS         ON           [  1]   ***   
       PARA_PRINT           IPPRIN              0               ***   
       PERT_ORB             IPTORB         STANDARD     [  0]   ***   
       POINTS               IGRDFD              0               ***   
       PRINT                IPRNT               0               ***   
       PROPS                IPROPS             OFF      [  0]   ***   
       PROP_INTEGR          IINTYP         INTERNAL     [  0]   ***   
       PSI                  IPSI           OFF          [  0]   ***   
       QUARTIC              IQUART         OFF          [  0]   ***   
       RAMAN_INT            IRAMIN         OFF          [  0]   ***   
       RAMAN_ORB            IRAMRE         UNRELAXED    [  0]   ***   
       RDO                  IRDOFM             OFF      [  0]   ***   
       REFERENCE            IREFNC             RHF      [  0]   ***   
       RELATIVIST           IRELAT         X2C1E        [ 11]   ***   
       RELAX_DENS           IRDENS             OFF      [  0]   ***   
       RESET_FLAGS          IRESET             OFF      [  0]   ***   
       RESTART_CC           ICCRES         OFF          [  0]   ***   
       ROT_EVEC             ROTVEC              0               ***   
       SAVE_INTS            ISVINT             OFF      [  0]   ***   
       SCALE_ON             ISTCRT              0               ***   
       SCF_CONV             ISCFCV          10D-  7             ***   
       SCF_DAMPING          IDAMP               0             x 10-3  
       SCF_EXPORDE          IRPPOR              6               ***   
       SCF_EXPSTAR          IRPPLS              8               ***   
       SCF_EXTRAPO          IRPP                ON      [  1]   ***   
       SCF_MAXCYC           ISCFCY            150              cycles 
       SCF_NOSTOP           ISCFST         OFF          [  0]   ***   
       SCF_PRINT            ISCFPR              0               ***   
       SD_FIELD             IFINSD              0             x 10-6  
       SEQUENCE             ISEQUE         OFF          [  0]   ***   
       SOPERT               IPERSO         OFF          [  0]   ***   
       SPHERICAL            IDFGHI             ON       [  1]   ***   
       SPINORBIT            ISOCAL         OFF          [  0]   ***   
       SPINROTATIO          ISRCON         OFF          [  0]   ***   
       SPIN_FLIP            ISPFLP         OFF          [  0]   ***   
       SPIN_ORBIT           ISPORB         OFF          [  0]   ***   
       SPIN_SCAL            ISCSMP         OFF          [  0]   ***   
       SUBGROUP             ISUBGP         DEFAULT      [  0]   ***   
       SUBGRPAXIS           ISBXYZ         X            [  0]   ***   
       SYMMETRY             ISYM             ON         [  0]   ***   
       SYM_CHECK            ISYMCK         OVERRIDE     [  1]   ***   
       T3_EXTRAPOL          IT3EXT         OFF          [  0]   ***   
       TAMP_SUM             IEVERY              5               ***   
       TESTSUITE            ITESTS         OFF          [  0]   ***   
       THERMOCH             ITHERM         OFF          [  0]   ***   
       TOL_CHOLESK          ITOLCH          10D-  4             ***   
       TRANGRAD             IRESRM         OFF          [  0]   ***   
       TRANS_INV            ITRAIN         USE          [  0]   ***   
       TREAT_PERT           ITREAT         SIMULTANEOUS [  0]   ***   
       UIJ_THRESHO          IUIJTH              1               ***   
       UNITS                IUNITS         ANGSTROM     [  0]   ***   
       UNOS                 IUNOS          OFF          [  0]   ***   
       UPDATE_HESS          IHUPDT         ON           [  1]   ***   
       VIBPHASE             ISETPH         STANDARD     [  0]   ***   
       VIBRATION            IVIB              NO        [  0]   ***   
       VIB_ALGORIT          IGEALG         STANDARD     [  0]   ***   
       VNATORB              IVNORB         OFF          [  0]   ***   
       VTRAN                IVTRAN         FULL/PARTIAL [  0]   ***   
       XFIELD               IXEFLD              0             x 10-6  
       XFORM_TOL            IXFTOL          10D- 11             ***   
       YFIELD               IYEFLD              0             x 10-6  
       ZFIELD               IZEFLD              0             x 10-6  
    -------------------------------------------------------------------
   1 entries found in Z-matrix 
   Job Title : TITLE                                                                           
  1  NE        10    19.99244
 factor:   60.1997200000000     
   Rotational constants (in cm-1): 

   Rotational constants (in MHz): 

********************************************************************************
   The full molecular point group is I h .
   The largest Abelian subgroup of the full molecular point group is D2h .
   The computational point group is D2h .
********************************************************************************
  @GTFLGS-W, Keyword cctol not known and is ignored.
  Uncontracted basis aug-cc-pCV is used.
  Uncontracted basis aug-cc-pCV is used.
  There are  198 basis functions.
 @GEOPT-W, Archive file not created for single-point calculation.
  @CHECKOUT-I, Total execution time (CPU/WALL):        0.24/       1.08 seconds.
--executable xjoda finished with status     0 in        1.15 seconds (walltime).
 --invoking executable--
/home/nike/cfour_v2.00beta/bin/xvmol
 Serial version of molecule started
********************************************************************************
                    Input from MOL file
********************************************************************************
INTGRL        1    0    1    0    0    0    0    0    0                         
         *** CFOUR Program System (Release V0.1) ***                            
TITLE                                                                           
    1    3 X  Y   Z   0.10E-08              0    0                              
   9999.00      3.00                                                            
         10.00000000    1    6    4    3    2    2    2    2                    
NE#1   0.000000000000000   0.000000000000000   0.000000000000000                
    6    6                                                                      
   262700.000000000        1.00000000000000       0.000000000000000E+000        
  0.000000000000000E+000  0.000000000000000E+000  0.000000000000000E+000        
  0.000000000000000E+000                                                        
   39350.0000000000       0.000000000000000E+000   1.00000000000000             
  0.000000000000000E+000  0.000000000000000E+000  0.000000000000000E+000        
  0.000000000000000E+000                                                        
   8955.00000000000       0.000000000000000E+000  0.000000000000000E+000        
   1.00000000000000       0.000000000000000E+000  0.000000000000000E+000        
  0.000000000000000E+000                                                        
   2538.00000000000       0.000000000000000E+000  0.000000000000000E+000        
  0.000000000000000E+000   1.00000000000000       0.000000000000000E+000        
  0.000000000000000E+000                                                        
   829.900000000000       0.000000000000000E+000  0.000000000000000E+000        
  0.000000000000000E+000  0.000000000000000E+000   1.00000000000000             
  0.000000000000000E+000                                                        
   301.500000000000       0.000000000000000E+000  0.000000000000000E+000        
  0.000000000000000E+000  0.000000000000000E+000  0.000000000000000E+000        
   1.00000000000000                                                             
    6    6                                                                      
   119.000000000000        1.00000000000000       0.000000000000000E+000        
  0.000000000000000E+000  0.000000000000000E+000  0.000000000000000E+000        
  0.000000000000000E+000                                                        
   50.0000000000000       0.000000000000000E+000   1.00000000000000             
  0.000000000000000E+000  0.000000000000000E+000  0.000000000000000E+000        
  0.000000000000000E+000                                                        
   21.9800000000000       0.000000000000000E+000  0.000000000000000E+000        
   1.00000000000000       0.000000000000000E+000  0.000000000000000E+000        
  0.000000000000000E+000                                                        
   9.89100000000000       0.000000000000000E+000  0.000000000000000E+000        
  0.000000000000000E+000   1.00000000000000       0.000000000000000E+000        
  0.000000000000000E+000                                                        
   4.32700000000000       0.000000000000000E+000  0.000000000000000E+000        
  0.000000000000000E+000  0.000000000000000E+000   1.00000000000000             
  0.000000000000000E+000                                                        
   1.80400000000000       0.000000000000000E+000  0.000000000000000E+000        
  0.000000000000000E+000  0.000000000000000E+000  0.000000000000000E+000        
   1.00000000000000                                                             
    6    6                                                                      
  0.728800000000000        1.00000000000000       0.000000000000000E+000        
  0.000000000000000E+000  0.000000000000000E+000  0.000000000000000E+000        
  0.000000000000000E+000                                                        
  0.286700000000000       0.000000000000000E+000   1.00000000000000             
  0.000000000000000E+000  0.000000000000000E+000  0.000000000000000E+000        
  0.000000000000000E+000                                                        
   24.3130000000000       0.000000000000000E+000  0.000000000000000E+000        
   1.00000000000000       0.000000000000000E+000  0.000000000000000E+000        
  0.000000000000000E+000                                                        
   54.6800000000000       0.000000000000000E+000  0.000000000000000E+000        
  0.000000000000000E+000   1.00000000000000       0.000000000000000E+000        
  0.000000000000000E+000                                                        
   122.975000000000       0.000000000000000E+000  0.000000000000000E+000        
  0.000000000000000E+000  0.000000000000000E+000   1.00000000000000             
  0.000000000000000E+000                                                        
   276.571000000000       0.000000000000000E+000  0.000000000000000E+000        
  0.000000000000000E+000  0.000000000000000E+000  0.000000000000000E+000        
   1.00000000000000                                                             
    1    1                                                                      
  9.569999999999999E-002   1.00000000000000                                     
    5    5                                                                      
   299.100000000000        1.00000000000000       0.000000000000000E+000        
  0.000000000000000E+000  0.000000000000000E+000  0.000000000000000E+000        
   70.7300000000000       0.000000000000000E+000   1.00000000000000             
  0.000000000000000E+000  0.000000000000000E+000  0.000000000000000E+000        
   22.4800000000000       0.000000000000000E+000  0.000000000000000E+000        
   1.00000000000000       0.000000000000000E+000  0.000000000000000E+000        
   8.24600000000000       0.000000000000000E+000  0.000000000000000E+000        
  0.000000000000000E+000   1.00000000000000       0.000000000000000E+000        
   3.26900000000000       0.000000000000000E+000  0.000000000000000E+000        
  0.000000000000000E+000  0.000000000000000E+000   1.00000000000000             
    5    5                                                                      
   1.31500000000000        1.00000000000000       0.000000000000000E+000        
  0.000000000000000E+000  0.000000000000000E+000  0.000000000000000E+000        
  0.515800000000000       0.000000000000000E+000   1.00000000000000             
  0.000000000000000E+000  0.000000000000000E+000  0.000000000000000E+000        
  0.191800000000000       0.000000000000000E+000  0.000000000000000E+000        
   1.00000000000000       0.000000000000000E+000  0.000000000000000E+000        
   21.3090000000000       0.000000000000000E+000  0.000000000000000E+000        
  0.000000000000000E+000   1.00000000000000       0.000000000000000E+000        
   53.7200000000000       0.000000000000000E+000  0.000000000000000E+000        
  0.000000000000000E+000  0.000000000000000E+000   1.00000000000000             
    3    3                                                                      
   135.428000000000        1.00000000000000       0.000000000000000E+000        
  0.000000000000000E+000                                                        
   341.414000000000       0.000000000000000E+000   1.00000000000000             
  0.000000000000000E+000                                                        
  6.540000000000000E-002  0.000000000000000E+000  0.000000000000000E+000        
   1.00000000000000                                                             
    4    4                                                                      
   9.83700000000000        1.00000000000000       0.000000000000000E+000        
  0.000000000000000E+000  0.000000000000000E+000                                
   3.84400000000000       0.000000000000000E+000   1.00000000000000             
  0.000000000000000E+000  0.000000000000000E+000                                
   1.50200000000000       0.000000000000000E+000  0.000000000000000E+000        
   1.00000000000000       0.000000000000000E+000                                
  0.587000000000000       0.000000000000000E+000  0.000000000000000E+000        
  0.000000000000000E+000   1.00000000000000                                     
    4    4                                                                      
   27.0440000000000        1.00000000000000       0.000000000000000E+000        
  0.000000000000000E+000  0.000000000000000E+000                                
   75.7500000000000       0.000000000000000E+000   1.00000000000000             
  0.000000000000000E+000  0.000000000000000E+000                                
   212.176000000000       0.000000000000000E+000  0.000000000000000E+000        
   1.00000000000000       0.000000000000000E+000                                
  0.213000000000000       0.000000000000000E+000  0.000000000000000E+000        
  0.000000000000000E+000   1.00000000000000                                     
    3    3                                                                      
   7.09000000000000        1.00000000000000       0.000000000000000E+000        
  0.000000000000000E+000                                                        
   2.73800000000000       0.000000000000000E+000   1.00000000000000             
  0.000000000000000E+000                                                        
   1.05700000000000       0.000000000000000E+000  0.000000000000000E+000        
   1.00000000000000                                                             
    3    3                                                                      
   28.0290000000000        1.00000000000000       0.000000000000000E+000        
  0.000000000000000E+000                                                        
   102.586000000000       0.000000000000000E+000   1.00000000000000             
  0.000000000000000E+000                                                        
  0.425000000000000       0.000000000000000E+000  0.000000000000000E+000        
   1.00000000000000                                                             
    2    2                                                                      
   5.46000000000000        1.00000000000000       0.000000000000000E+000        
   1.88000000000000       0.000000000000000E+000   1.00000000000000             
    2    2                                                                      
   38.7940000000000        1.00000000000000       0.000000000000000E+000        
  0.809000000000000       0.000000000000000E+000   1.00000000000000             
    1    1                                                                      
   3.77600000000000        1.00000000000000                                     
    1    1                                                                      
   1.62800000000000        1.00000000000000                                     
FINISH                                                                          
 
********************************************************************************
 One- and two-electron integrals over symmetry-adapted AOs are calculated.

  Spherical harmonics are used.
  
  Integrals less than  0.10E-13 are neglected.

  Nuclear repulsion energy :    0.0000000000 a.u.
  required memory for a1 array                5843798  words 
  required memory for a2 array                3653873  words 
 @GETMEM-I,  Allocated      87 MB of main memory.
  @MOLECU-I, One electron integrals (CPU/WALL):        0.14/       0.15 seconds.
  @TWOEL-I,     536099 integrals of symmetry type  I I I I
  @TWOEL-I,    4438848 integrals of symmetry type  I J I J
  @TWOEL-I,    2533322 integrals of symmetry type  I I J J
  @TWOEL-I,    9643839 integrals of symmetry type  I J K L
  @TWOEL-I, Total number of 2-e integrals   17152108.
  @MOLECU-I, Two electron integrals (CPU/WALL):       46.99/      47.50 seconds.
  @CHECKOUT-I, Total execution time (CPU/WALL):       48.82/      49.60 seconds.
--executable xvmol finished with status     0 in       49.68 seconds (walltime).
 --invoking executable--
/home/nike/cfour_v2.00beta/bin/xvmol2ja
 @GETMEM-I,  Allocated   15258 MB of main memory.
  @CHECKOUT-I, Total execution time (CPU/WALL):        0.05/       0.65 seconds.
--executable xvmol2ja finished with status     0 in        0.76 seconds (walltime).
  a 
 --invoking executable--
/home/nike/cfour_v2.00beta/bin/xvdint
 @GETMEM-I,  Allocated   15258 MB of main memory.
 One- and two-electron integral derivatives are calculated
 Spherical gaussians are used.
 
      Evaluated one-electron integrals:   dipole integrals
  keyword missing for gradient integrals in sfree
  pVp integrals for spin-free DHF
  derivative pVp integrals for spin-free DHF
  Evaluation of 1e integral derivatives required   22.03 seconds.
  Evaluation of 2e integral derivatives required    0.00 seconds.


  @CHECKOUT-I, Total execution time (CPU/WALL):       22.02/      22.93 seconds.
--executable xvdint finished with status     0 in       23.57 seconds (walltime).
 --invoking executable--
/home/nike/cfour_v2.00beta/bin/xvpropx2c
 @GETMEM-I,  Allocated   15258 MB of main memory.
  @CHECKOUT-I, Total execution time (CPU/WALL):        0.05/       0.11 seconds.
--executable xvpropx2c finished with status     0 in        0.50 seconds (walltime).
 --invoking executable--
/home/nike/cfour_v2.00beta/bin/xvscf
  There are  198 functions in the AO basis.

  There are 8 irreducible representations.

       Irrep        # of functions
         1                 47
         2                 31
         3                 31
         4                 16
         5                 31
         6                 16
         7                 16
         8                 10


  Parameters for SCF calculation: 
        SCF reference function:  RHF  
  Maximum number of iterations:  150
     Full symmetry point group: I h 
     Computational point group: D2h 
        Initial density matrix: MOREAD                 
     SCF convergence tolerance: 10**(- 7)
  DIIS convergence acceleration:  ON
          Latest start for DIIS:   8
                     DIIS order:   6

  Memory information:    2269225 words required.
  Fock matrices are constructed from AO integral file.
 @GETMEM-I,  Allocated      17 MB of main memory.
  Initialization and symmetry analysis required      0.003 seconds.

  @INITGES-I, Occupancies from core Hamiltonian:

          Alpha population by irrep:   2    1    1    0    1    0    0    0
           Beta population by irrep:   2    1    1    0    1    0    0    0


 total no. of electrons in initial guess :  0.000000000000000E+000
  --------------------------------------------------------------------
  Iteration         Total Energy            Largest Density Difference
  --------------------------------------------------------------------
       0             0.000000000000000              0.0000000000D+00
   current occupation vector 
     2  1  1  0  1  0  0  0
     2  1  1  0  1  0  0  0
       1          -112.378889556500624              0.1158781781D+01
   current occupation vector 
     2  1  1  0  1  0  0  0
     2  1  1  0  1  0  0  0
       2          -111.611776495080520              0.2868591271D+01
   current occupation vector 
     2  1  1  0  1  0  0  0
     2  1  1  0  1  0  0  0
       3          -124.096611649071562              0.2868559776D+01
   current occupation vector 
     2  1  1  0  1  0  0  0
     2  1  1  0  1  0  0  0
       4          -119.131999291105743              0.1605617015D+01
   current occupation vector 
     2  1  1  0  1  0  0  0
     2  1  1  0  1  0  0  0
       5          -125.805133890373384              0.1604824375D+01
   current occupation vector 
     2  1  1  0  1  0  0  0
     2  1  1  0  1  0  0  0
       6          -126.170168030678980              0.6414995792D+00
   current occupation vector 
     2  1  1  0  1  0  0  0
     2  1  1  0  1  0  0  0
       7          -127.900238129544363              0.3603268276D+00
   current occupation vector 
     2  1  1  0  1  0  0  0
     2  1  1  0  1  0  0  0
       8          -128.410805725515132              0.3101742512D+00
   current occupation vector 
     2  1  1  0  1  0  0  0
     2  1  1  0  1  0  0  0
       9          -128.684462566903903              0.7509755417D-01
   current occupation vector 
     2  1  1  0  1  0  0  0
     2  1  1  0  1  0  0  0
      10          -128.684573706563896              0.4088161878D-02
   current occupation vector 
     2  1  1  0  1  0  0  0
     2  1  1  0  1  0  0  0
      11          -128.684574271307213              0.4379568024D-03
   current occupation vector 
     2  1  1  0  1  0  0  0
     2  1  1  0  1  0  0  0
      12          -128.684574280238735              0.2029869501D-04
   current occupation vector 
     2  1  1  0  1  0  0  0
     2  1  1  0  1  0  0  0
      13          -128.684574280251127              0.1515993334D-05
   current occupation vector 
     2  1  1  0  1  0  0  0
     2  1  1  0  1  0  0  0
      14          -128.684574280256896              0.2589111179D-06
   current occupation vector 
     2  1  1  0  1  0  0  0
     2  1  1  0  1  0  0  0
      15          -128.684574280223927              0.1961986598D-06
   current occupation vector 
     2  1  1  0  1  0  0  0
     2  1  1  0  1  0  0  0

  SCF has converged.

 Density matrix saved to file den.dat
 total electron number:   10.0000000000011     
     E(SCF)=      -128.684574280257920              0.3214240135D-07

  Eigenvector printing suppressed.

 @PUTMOS-I, Writing converged MOs to NEWMOS. 
 @PUTMOS-I, Symmetry   1 Full Blocks 11 Partial Blocksize   3
 @PUTMOS-I, Symmetry   2 Full Blocks  7 Partial Blocksize   3
 @PUTMOS-I, Symmetry   3 Full Blocks  7 Partial Blocksize   3
 @PUTMOS-I, Symmetry   4 Full Blocks  4 Partial Blocksize   0
 @PUTMOS-I, Symmetry   5 Full Blocks  7 Partial Blocksize   3
 @PUTMOS-I, Symmetry   6 Full Blocks  4 Partial Blocksize   0
 @PUTMOS-I, Symmetry   7 Full Blocks  4 Partial Blocksize   0
 @PUTMOS-I, Symmetry   8 Full Blocks  2 Partial Blocksize   2
  @PRJDEN-I, Basis set contains h and/or higher angular momentum functions.
             Analysis of density matrix symmetry not available.
             Check irreps of the molecular orbitals in the full point group
             for presence of an asymmetric solution.

 
  ORBITAL EIGENVALUES (ALPHA)  (1H = 27.2113838 eV)

       MO #        E(hartree)               E(eV)           FULLSYM    COMPSYM
       ----   --------------------   --------------------   -------   ---------
    1     1         -32.8119062351        -892.8573744157      Ag        Ag (1)
    2     2          -1.9356314808         -52.6712111584      Ag        Ag (1)
    3    48          -0.8498049784         -23.1243694389       u         g (2)
    4   126          -0.8498049784         -23.1243694388       u         u (5)
    5    79          -0.8498049784         -23.1243694388       u         u (3)
  +++++++++++++++++++++++++++++++++++++++++++++++++++++++++++++++++++++++++++++
    6   127           0.1561300455           4.2485145948     T1u         u (5)
    7    49           0.1561300455           4.2485145948     T1u        Ag (2)
    8    80           0.1561300455           4.2485145948     T1u         u (3)
    9     3           0.1798753296           4.8946566345      Ag        Ag (1)
   10     4           0.6499515421          17.6860808768      Hg        Ag (1)
   11   173           0.6499515421          17.6860808768      Hg         u (7)
   12   157           0.6499515421          17.6860808768      Hg        Ag (6)
   13   110           0.6499515421          17.6860808768      Hg         u (4)
   14     5           0.6499515421          17.6860808768      Hg        Ag (1)
   15    50           0.7067168553          19.2307436023       u         g (2)
   16   128           0.7067168553          19.2307436023       u         u (5)
   17    81           0.7067168553          19.2307436024       u         u (3)
   18     6           1.0929854671          29.7416470557      Ag        Ag (1)
   19   129           1.7231923154          46.8904474882       u       B3u (5)
   20    51           1.7231923154          46.8904474882       u       B3u (2)
   21    82           1.7231923154          46.8904474882       u         u (3)
   22   189           1.7231923154          46.8904474882       u         u (8)
   23    83           1.7231923154          46.8904474882       u         u (3)
   24   130           1.7231923154          46.8904474882       u       B3u (5)
   25    52           1.7231923154          46.8904474882       u       B3u (2)
   26   174           2.0367784368          55.4235597990      Hg         u (7)
   27   158           2.0367784368          55.4235597990      Hg        Ag (6)
   28   111           2.0367784368          55.4235597990      Hg         u (4)
   29     7           2.0367784368          55.4235597990      Hg         g (1)
   30     8           2.0367784368          55.4235597990      Hg         g (1)
   31    53           2.3856852816          64.9177978698       u         g (2)
   32   131           2.3856852816          64.9177978699       u         u (5)
   33    84           2.3856852816          64.9177978699       u         u (3)
   34     9           4.0684885294         110.7092029390       g        Ag (1)
   35    10           4.0684885294         110.7092029391       g         g (1)
   36   159           4.0684885294         110.7092029393       g         g (6)
   37   175           4.0684885294         110.7092029393       g         u (7)
   38   160           4.0684885294         110.7092029393       g         g (6)
   39   176           4.0684885294         110.7092029393       g         u (7)
   40   112           4.0684885294         110.7092029393       g         u (4)
   41   113           4.0684885294         110.7092029393       g         u (4)
   42    11           4.0684885294         110.7092029394       g         g (1)
   43    12           4.1888868981         113.9854091623      Ag        Ag (1)
   44    54           5.0098227272         136.3242090971       u       B3u (2)
   45   132           5.0098227272         136.3242090971       u       B3u (5)
   46    85           5.0098227272         136.3242090971       u         u (3)
   47    55           5.0098227272         136.3242090971       u       B3u (2)
   48   190           5.0098227272         136.3242090971       u         u (8)
   49    86           5.0098227272         136.3242090971       u         u (3)
   50   133           5.0098227272         136.3242090971       u       B3u (5)
   51   161           5.2720930550         143.4609476518      Hg        Ag (6)
   52   177           5.2720930550         143.4609476518      Hg         u (7)
   53   114           5.2720930550         143.4609476518      Hg         u (4)
   54    13           5.2720930550         143.4609476518      Hg         g (1)
   55    14           5.2720930550         143.4609476518      Hg         g (1)
   56    56           6.9968608718         190.3942667148       u         g (2)
   57   134           6.9968608718         190.3942667152       u         u (5)
   58    87           6.9968608718         190.3942667152       u         u (3)
   59    57           9.8020092459         266.7262357921                 u (2)
   60   135           9.8020092459         266.7262357921                 g (5)
   61   191           9.8020092459         266.7262357921                 u (8)
   62    88           9.8020092459         266.7262357921               B2u (3)
   63    58           9.8020092459         266.7262357921                 u (2)
   64   136           9.8020092459         266.7262357921                 g (5)
   65   192           9.8020092459         266.7262357921                 u (8)
   66    89           9.8020092459         266.7262357921               B2u (3)
   67    59           9.8020092459         266.7262357921                 u (2)
   68    90           9.8020092459         266.7262357921               B2u (3)
   69   137           9.8020092459         266.7262357921                Ag (5)
   70    15          11.0741062736         301.3417562702       u        Ag (1)
   71    16          11.0741062736         301.3417562710       u         g (1)
   72   162          11.0741062736         301.3417562710       u         g (6)
   73   115          11.0741062736         301.3417562710       u         u (4)
   74   116          11.0741062736         301.3417562710       u         u (4)
   75   178          11.0741062736         301.3417562710       u         u (7)
   76   163          11.0741062736         301.3417562710       u         g (6)
   77    17          11.0741062736         301.3417562710       u        Ag (1)
   78   179          11.0741062736         301.3417562710       u         u (7)
   79    91          12.8194437544         348.8348043543       u         u (3)
   80   193          12.8194437544         348.8348043543       u         u (8)
   81   138          12.8194437544         348.8348043543       u       B3u (5)
   82    60          12.8194437544         348.8348043543       u       B3u (2)
   83    92          12.8194437544         348.8348043543       u         u (3)
   84   139          12.8194437544         348.8348043543       u       B3u (5)
   85    61          12.8194437544         348.8348043543       u       B3u (2)
   86    18          13.1052630456         356.6123427899      Ag        Ag (1)
   87    19          13.4669951995         366.4555752700      Hu         g (1)
   88   117          13.4669951995         366.4555752700      Hu         u (4)
   89   164          13.4669951995         366.4555752700      Hu         g (6)
   90    20          13.4669951995         366.4555752700      Hu         g (1)
   91   180          13.4669951995         366.4555752700      Hu         u (7)
   92    62          19.0570159187         518.5677746199       u         g (2)
   93    93          19.0570159188         518.5677746221       u         u (3)
   94   140          19.0570159188         518.5677746235       u         u (5)
   95    94          26.0637299320         709.2301589498               B2u (3)
   96    63          26.0637299320         709.2301589498                 u (2)
   97    64          26.0637299320         709.2301589498                 u (2)
   98   194          26.0637299320         709.2301589498               B1u (8)
   99    95          26.0637299320         709.2301589498               B2u (3)
  100   141          26.0637299320         709.2301589498                 g (5)
  101   195          26.0637299320         709.2301589498               B3u (8)
  102    96          26.0637299320         709.2301589498               B2u (3)
  103   142          26.0637299320         709.2301589498                 g (5)
  104   143          26.0637299320         709.2301589498                 g (5)
  105    65          26.0637299320         709.2301589498                 u (2)
  106    21          30.5193183728         830.4728861549       g         g (1)
  107   118          30.5193183728         830.4728861550       g       B2u (4)
  108   181          30.5193183728         830.4728861551       g         u (7)
  109   119          30.5193183728         830.4728861551       g         u (4)
  110   165          30.5193183728         830.4728861551       g         g (6)
  111    22          30.5193183728         830.4728861551       g         g (1)
  112   182          30.5193183728         830.4728861551       g         u (7)
  113    23          30.5193183728         830.4728861551       g         g (1)
  114   166          30.5193183728         830.4728861551       g         g (6)
  115    97          33.2587594759         905.0168694617       u         u (3)
  116    66          33.2587594759         905.0168694617       u         u (2)
  117   196          33.2587594759         905.0168694617       u         u (8)
  118   144          33.2587594759         905.0168694617       u         u (5)
  119    98          33.2587594759         905.0168694617       u         u (3)
  120    67          33.2587594759         905.0168694617       u         u (2)
  121   145          33.2587594759         905.0168694617       u         u (5)
  122    24          34.9253128844         950.3660939154      Ag        Ag (1)
  123    25          35.4215655719         963.8698162667      Hu         g (1)
  124   120          35.4215655719         963.8698162667      Hu         u (4)
  125   167          35.4215655719         963.8698162667      Hu         g (6)
  126    26          35.4215655719         963.8698162667      Hu         g (1)
  127   183          35.4215655719         963.8698162667      Hu         u (7)
  128    68          47.4415305072        1290.9496956200       u        Ag (2)
  129    99          47.4415305073        1290.9496956223       u         u (3)
  130   146          47.4415305076        1290.9496956318       u         u (5)
  131    27          78.9096576131        2147.2409803811      Ag        Ag (1)
  132    28          98.8618540625        2690.1678560108      Hu         g (1)
  133   121          98.8618540625        2690.1678560108      Hu         u (4)
  134   168          98.8618540625        2690.1678560108      Hu         g (6)
  135    29          98.8618540625        2690.1678560108      Hu         g (1)
  136   184          98.8618540625        2690.1678560109      Hu         u (7)
  137    69         103.4411733937        2814.7774719642       u        Ag (2)
  138   100         103.4411733950        2814.7774719994       u         u (3)
  139   147         103.4411733961        2814.7774720297       u         u (5)
  140    70         116.9367568565        3182.0109734390       u         u (2)
  141   101         116.9367568565        3182.0109734390       u         u (3)
  142   148         116.9367568565        3182.0109734390       u         u (5)
  143   197         116.9367568565        3182.0109734391       u         u (8)
  144   102         116.9367568565        3182.0109734391       u         u (3)
  145   149         116.9367568565        3182.0109734391       u         u (5)
  146    71         116.9367568565        3182.0109734391       u         u (2)
  147    30         155.4924673948        4231.1652113335      Ag        Ag (1)
  148    31         192.2466594554        5231.2976384740       g         g (1)
  149   169         192.2466594554        5231.2976384740       g         g (6)
  150   185         192.2466594554        5231.2976384740       g         u (7)
  151   170         192.2466594554        5231.2976384741       g         g (6)
  152   186         192.2466594554        5231.2976384741       g         u (7)
  153   122         192.2466594554        5231.2976384741       g         u (4)
  154    32         192.2466594554        5231.2976384741       g         g (1)
  155   123         192.2466594554        5231.2976384741       g         u (4)
  156    33         192.2466594554        5231.2976384741       g         g (1)
  157    72         203.7403271545        5544.0562417273       u        Ag (2)
  158   103         203.7403271593        5544.0562418573       u         u (3)
  159   150         203.7403271607        5544.0562418960       u         u (5)
  160    34         279.3704545117        7602.0566655692      Ag        Ag (1)
  161    35         288.1336403648        7840.5150792999      Hg         g (1)
  162    36         288.1336403648        7840.5150793000      Hg         g (1)
  163   124         288.1336403648        7840.5150793000      Hg         u (4)
  164   187         288.1336403648        7840.5150793001      Hg         u (7)
  165   171         288.1336403648        7840.5150793002      Hg         g (6)
  166    73         379.1015517901       10315.8778323585       u         g (2)
  167   151         379.1015518009       10315.8778326532       u         u (5)
  168   104         379.1015518024       10315.8778326926       u         u (3)
  169    74         451.8158780856       12294.5352743672       u         u (2)
  170   105         451.8158780856       12294.5352743673       u       B3u (3)
  171   198         451.8158780856       12294.5352743674       u         u (8)
  172   152         451.8158780856       12294.5352743674       u         u (5)
  173    75         451.8158780856       12294.5352743675       u       B2u (2)
  174   153         451.8158780856       12294.5352743675       u         u (5)
  175   106         451.8158780856       12294.5352743675       u         u (3)
  176    37         474.8206804245       12920.5277805044      Ag        Ag (1)
  177    76         685.6335859489       18657.0386668512       u         g (2)
  178   154         685.6335859627       18657.0386672261       u         u (5)
  179   107         685.6335859682       18657.0386673745       u         u (3)
  180    38         782.1552029066       21283.5254327735      Ag        Ag (1)
  181   172         860.3036432302       23410.0526373201      Hg         g (6)
  182    39         860.3036432302       23410.0526373203      Hg         g (1)
  183   125         860.3036432302       23410.0526373205      Hg         u (4)
  184   188         860.3036432302       23410.0526373205      Hg         u (7)
  185    40         860.3036432302       23410.0526373208      Hg         g (1)
  186    77        1262.2862638646       34348.5560162046       u         g (2)
  187   155        1262.2862638799       34348.5560166193       u         u (5)
  188   108        1262.2862638866       34348.5560168034       u         u (3)
  189    41        1272.9641899264       34639.1171606676      Ag        Ag (1)
  190    42        2078.4498835805       56557.4975318713      Ag        Ag (1)
  191    78        2301.2889342898       62621.2564707115       u         g (2)
  192   156        2301.2889343117       62621.2564713080       u         u (5)
  193   109        2301.2889343183       62621.2564714879       u         u (3)
  194    43        3565.1498096002       97012.6598433333      Ag        Ag (1)
  195    44        7058.1262184174      192061.3815763968      Ag        Ag (1)
  196    45       16434.5206046160      447206.0480630028      Ag        Ag (1)
  197    46       41812.3794060083     1137772.7044267976      Ag        Ag (1)
  198    47      118169.8501937203     3215565.1495236028      Ag        Ag (1)


  VSCF finished.

  @CHECKOUT-I, Total execution time (CPU/WALL):        4.28/       5.47 seconds.
--executable xvscf finished with status     0 in        5.53 seconds (walltime).
 --invoking executable--
/home/nike/cfour_v2.00beta/bin/xvtran
 @GETMEM-I,  Allocated   15258 MB of main memory.
  Full RHF integral transformation
  Transformation of IIII integrals :
  1 pass through the AO integral file was required.
      536099 AO integrals were read.
     1032395 MO integrals were written to HF2.
  Transformation of IIJJ integrals :
  1 pass through the AO integral file was required.
     2533322 AO integrals were read.
     3700594 MO integrals were written to HF2.
  Transformation of IJIJ integrals :
  1 pass through the AO integral file was required.
     4438848 AO integrals were read.
     6815120 MO integrals were written to HF2.
  Transformation of IJKL integrals :
  1 pass through the AO integral file was required.
     9643839 AO integrals were read.
    12895663 MO integrals were written to HF2.
  Summary of active molecular orbitals: 
------------------------------------------------------------------------
 
  Index      Eigenvalue    Symmetry    Index      Eigenvalue    Symmetry
------------------------------------------------------------------------
     1       -32.8119062        1       100        47.4415305        3
     2        -1.9356315        1       101       103.4411734        3
     3        -0.8498050        2       102       116.9367569        3
     4        -0.8498050        3       103       116.9367569        3
     5        -0.8498050        5       104       203.7403272        3
     6         0.1798753        1       105       379.1015518        3
     7         0.6499515        1       106       451.8158781        3
     8         0.6499515        1       107       451.8158781        3
     9         1.0929855        1       108       685.6335860        3
    10         2.0367784        1       109      1262.2862639        3
    11         2.0367784        1       110      2301.2889343        3
    12         4.0684885        1       111         0.6499515        4
    13         4.0684885        1       112         2.0367784        4
    14         4.0684885        1       113         4.0684885        4
    15         4.1888869        1       114         4.0684885        4
    16         5.2720931        1       115         5.2720931        4
    17         5.2720931        1       116        11.0741063        4
    18        11.0741063        1       117        11.0741063        4
    19        11.0741063        1       118        13.4669952        4
    20        11.0741063        1       119        30.5193184        4
    21        13.1052630        1       120        30.5193184        4
    22        13.4669952        1       121        35.4215656        4
    23        13.4669952        1       122        98.8618541        4
    24        30.5193184        1       123       192.2466595        4
    25        30.5193184        1       124       192.2466595        4
    26        30.5193184        1       125       288.1336404        4
    27        34.9253129        1       126       860.3036432        4
    28        35.4215656        1       127         0.1561300        5
    29        35.4215656        1       128         0.7067169        5
    30        78.9096576        1       129         1.7231923        5
    31        98.8618541        1       130         1.7231923        5
    32        98.8618541        1       131         2.3856853        5
    33       155.4924674        1       132         5.0098227        5
    34       192.2466595        1       133         5.0098227        5
    35       192.2466595        1       134         6.9968609        5
    36       192.2466595        1       135         9.8020092        5
    37       279.3704545        1       136         9.8020092        5
    38       288.1336404        1       137         9.8020092        5
    39       288.1336404        1       138        12.8194438        5
    40       474.8206804        1       139        12.8194438        5
    41       782.1552029        1       140        19.0570159        5
    42       860.3036432        1       141        26.0637299        5
    43       860.3036432        1       142        26.0637299        5
    44      1272.9641899        1       143        26.0637299        5
    45      2078.4498836        1       144        33.2587595        5
    46      3565.1498096        1       145        33.2587595        5
    47      7058.1262184        1       146        47.4415305        5
    48     16434.5206046        1       147       103.4411734        5
    49     41812.3794060        1       148       116.9367569        5
    50    118169.8501937        1       149       116.9367569        5
    51         0.1561300        2       150       203.7403272        5
    52         0.7067169        2       151       379.1015518        5
    53         1.7231923        2       152       451.8158781        5
    54         1.7231923        2       153       451.8158781        5
    55         2.3856853        2       154       685.6335860        5
    56         5.0098227        2       155      1262.2862639        5
    57         5.0098227        2       156      2301.2889343        5
    58         6.9968609        2       157         0.6499515        6
    59         9.8020092        2       158         2.0367784        6
    60         9.8020092        2       159         4.0684885        6
    61         9.8020092        2       160         4.0684885        6
    62        12.8194438        2       161         5.2720931        6
    63        12.8194438        2       162        11.0741063        6
    64        19.0570159        2       163        11.0741063        6
    65        26.0637299        2       164        13.4669952        6
    66        26.0637299        2       165        30.5193184        6
    67        26.0637299        2       166        30.5193184        6
    68        33.2587595        2       167        35.4215656        6
    69        33.2587595        2       168        98.8618541        6
    70        47.4415305        2       169       192.2466595        6
    71       103.4411734        2       170       192.2466595        6
    72       116.9367569        2       171       288.1336404        6
    73       116.9367569        2       172       860.3036432        6
    74       203.7403272        2       173         0.6499515        7
    75       379.1015518        2       174         2.0367784        7
    76       451.8158781        2       175         4.0684885        7
    77       451.8158781        2       176         4.0684885        7
    78       685.6335859        2       177         5.2720931        7
    79      1262.2862639        2       178        11.0741063        7
    80      2301.2889343        2       179        11.0741063        7
    81         0.1561300        3       180        13.4669952        7
    82         0.7067169        3       181        30.5193184        7
    83         1.7231923        3       182        30.5193184        7
    84         1.7231923        3       183        35.4215656        7
    85         2.3856853        3       184        98.8618541        7
    86         5.0098227        3       185       192.2466595        7
    87         5.0098227        3       186       192.2466595        7
    88         6.9968609        3       187       288.1336404        7
    89         9.8020092        3       188       860.3036432        7
    90         9.8020092        3       189         1.7231923        8
    91         9.8020092        3       190         5.0098227        8
    92        12.8194438        3       191         9.8020092        8
    93        12.8194438        3       192         9.8020092        8
    94        19.0570159        3       193        12.8194438        8
    95        26.0637299        3       194        26.0637299        8
    96        26.0637299        3       195        26.0637299        8
    97        26.0637299        3       196        33.2587595        8
    98        33.2587595        3       197       116.9367569        8
    99        33.2587595        3       198       451.8158781        8
------------------------------------------------------------------------
  @CHECKOUT-I, Total execution time (CPU/WALL):       20.51/      47.86 seconds.
--executable xvtran finished with status     0 in       47.95 seconds (walltime).
 --invoking executable--
/home/nike/cfour_v2.00beta/bin/xintprc
 @GETMEM-I,  Allocated   15258 MB of main memory.
  @GMOIAA-I, Processing MO integrals for spin case AA.
  @GMOIAA-I, Generation of integral list completed.
                      TYPE                NUMBER
                      ----               --------
                      PPPP              22056387
                      PPPH               2286285
                      PPHH                 60519
                      PHPH                 38357
                      PHHH                  2191
                      HHHH                    33

                     TOTAL              24443772

  @FORMT2-I, Second-order MP correlation energies:
            ------------------------------------------------
            E(SCF)                  =   -128.684574280258 a.u.
            E2(AA)                  =     -0.043022616329 a.u.
            E2(AB)                  =     -0.290921559911 a.u.
            E2(TOT)                 =     -0.376966792570 a.u.
            Total MP2 energy        =   -129.061541072828 a.u.
            ------------------------------------------------
   Largest T2 amplitudes for spin case AB:
       _       _                 _       _                 _       _
   i   j   a   b             i   j   a   b             i   j   a   b
-----------------------------------------------------------------------------
[  4   4  82  82]-0.01882 [  3   3  52  52]-0.01882 [  5   5 128 128]-0.01882
[  3   3  55  55]-0.01863 [  4   4  85  85]-0.01863 [  5   5 131 131]-0.01863
[  4   4  85  82] 0.01579 [  4   4  82  85] 0.01579 [  3   3  55  52] 0.01579
[  3   3  52  55] 0.01579 [  5   5 131 128] 0.01579 [  5   5 128 131] 0.01579
[  4   3  82  52]-0.01504 [  3   4  52  82]-0.01504 [  5   4 128  82]-0.01504
-----------------------------------------------------------------------------
   Norm of T2AB vector (   124543 symmetry allowed elements):  0.1659577905.
-----------------------------------------------------------------------------
  @CHECKOUT-I, Total execution time (CPU/WALL):        9.91/     200.55 seconds.
--executable xintprc finished with status     0 in      200.63 seconds (walltime).
 --invoking executable--
/home/nike/cfour_v2.00beta/bin/xint
 @GETMEM-I,  Allocated   15258 MB of main memory.
  itot is                      0
 using new mrcc fort.57
 fort.56
     3     1     0     0     1     0     0     1     0     1     1     1     0     0     0     7     0     0           0.00000     0 15259     0     0
ex.lev,nsing,ntrip, rest,CC/CI, dens,conver, symm, diag,  CS ,spatial,  HF ,ndoub,nacto,nactv, tol ,maxex, sacc, freq, dboc, mem
  @CHECKOUT-I, Total execution time (CPU/WALL):      295.80/    1005.76 seconds.
--executable xint finished with status     0 in     1006.14 seconds (walltime).
 --invoking executable--
/home/nike/MRCC/dmrcc
 **********************************************************************
                          MRCC program system
 **********************************************************************
 
                              Written by
    Mihaly Kallay, Zoltan Rolik, Jozsef Csontos, Istvan Ladjanszki,
       Lorant Szegedy, Bence Ladoczki, Gyula Samu, Klara Petrov,
        Mate Farkas, Peter Nagy, David Mester, and Bence Hegely
 
        Department of Physical Chemistry and Materials Science
            Budapest University of Technology and Economics
                  Budapest P.O.Box 91, H-1521 Hungary
 
                              www.mrcc.hu

 ************************ 2016-09-26 03:21:50 *************************
 Executing goldstone...

 Generation of CC equations in terms of H and T...
 Generation of antisymmetrized Goldstone diagrams...
 Number of diagrams in T^1 equations:    15
 Number of diagrams in T^2 equations:    37
 Number of diagrams in T^3 equations:    47
 Translation of diagrams to factorized equations...
 Optimizing intermediate calculation...
 Number of floating-point operations per iteration step:   2.5583E+12
 Probable CPU time per iteration step (hours):     25.58
 Required memory (Mbytes):  181098.6
 Number of intermediates:                                  69
 Number of intermediates to be stored:                     30
 Length of intermediate file (Mbytes):    3068.8

 ************************ 2016-09-26 03:21:53 *************************
 Executing xmrcc...

 **********************************************************************
 CC(                     3 ) calculation 
 
 
 Allocation of7629.5 Mbytes of memory...
 Number of spinorbitals:                   396
 Number of alpha electrons:                        5
 Number of beta electrons:                         5
 Spin multiplicity:                     1
 z-component of spin:  0.0
 Spatial symmetry:                      1
 Convergence criterion:  1.0E-07
 Construction of occupation graphs...
 Number of                     0 -fold excitations:                      1
 Number of                     1 -fold excitations:                    360
 Number of                     2 -fold excitations:                 172639
 Number of                     3 -fold excitations:               47871360
 Total number of configurations:               48044360
 Calculation of coupling coefficients...
 Length of intermediate file (Mbytes):    2339.2
 
 ======================================================================
 
 Memory requirements /Mbyte/: 
               Minimal        Optimal
 Real*8:       5969.8465     16013.5167
 Integer:       297.4266
 Total:        6267.2731     16310.9433
 

 ************************ 2016-09-26 03:24:01 *************************
 Executing mrcc...

 **********************************************************************
 CCSDT calculation                                                      
 
 
 OpenMP parallel version is running.
 Number of CPUs:  26
 Allocation of14961.6 Mbytes of memory...
 Number of spinorbitals: 396
 Number of alpha electrons:  5
 Number of beta  electrons:  5
 Spin multiplicity: 1
 z-component of spin:  0.0
 Spatial symmetry: 1
 Convergence criterion:  1.0E-07
 Construction of occupation graphs...
 Number of 0-fold excitations: 1
 Number of 1-fold excitations: 360
 Number of 2-fold excitations: 172639
 Number of 3-fold excitations: 47871360
 Total number of determinants: 48044360
 Calculation of coupling coefficients...
 Initial cluster amplitudes are generated.
 Length of intermediate file (Mbytes):    2339.2
 Reading integral list from unit 55...
 Sorting integrals...
 Energy of reference determinant [au]:    -128.684574280258
 Calculation of MP denominators...
 
 Starting CC iteration...
 ======================================================================
 Norm of residual vector:     4.60778102
 CPU time [min]:   607.013                   Wall time [min]:    69.184
 
 Iteration  1  CC energy:  -129.06154107  Energy decrease:   0.37696679
 ======================================================================
 Norm of residual vector:     0.49073870
 CPU time [min]:  1176.961                   Wall time [min]:   117.443
 
 Iteration  2  CC energy:  -129.05712460  Energy decrease:   0.00441647
 ======================================================================
 Norm of residual vector:     0.07672059
 CPU time [min]:  1754.945                   Wall time [min]:   167.648
 
 Iteration  3  CC energy:  -129.06523498  Energy decrease:   0.00811038
 ======================================================================
 Norm of residual vector:     0.02221220
 CPU time [min]:  2330.530                   Wall time [min]:   217.220
 
 Iteration  4  CC energy:  -129.06734897  Energy decrease:   0.00211399
 ======================================================================
 Norm of residual vector:     0.00697565
 CPU time [min]:  2853.706                   Wall time [min]:   262.203
 
 Iteration  5  CC energy:  -129.06717832  Energy decrease:   0.00017065
 ======================================================================
 Norm of residual vector:     0.00173623
 CPU time [min]:  3401.774                   Wall time [min]:   307.581
 
 Iteration  6  CC energy:  -129.06707812  Energy decrease:   0.00010021
 ======================================================================
 Norm of residual vector:     0.00056399
 CPU time [min]:  3929.772                   Wall time [min]:   352.562
 
 Iteration  7  CC energy:  -129.06707112  Energy decrease:   0.00000700
 ======================================================================
 Norm of residual vector:     0.00014036
 CPU time [min]:  4455.939                   Wall time [min]:   397.788
 
 Iteration  8  CC energy:  -129.06707595  Energy decrease:   0.00000483
 ======================================================================
 Norm of residual vector:     0.00004277
 CPU time [min]:  5032.456                   Wall time [min]:   445.250
 
 Iteration  9  CC energy:  -129.06707664  Energy decrease:   0.00000069
 ======================================================================
 Norm of residual vector:     0.00001254
 CPU time [min]:  5632.677                   Wall time [min]:   495.922
 
 Iteration 10  CC energy:  -129.06707635  Energy decrease:   0.00000029
 ======================================================================
 Norm of residual vector:     0.00000279
 CPU time [min]:  6176.611                   Wall time [min]:   542.738
 
 Iteration 11  CC energy:  -129.06707633  Energy decrease:   0.00000002
 ======================================================================
 Norm of residual vector:     0.00000087
 CPU time [min]:  6796.358                   Wall time [min]:   594.628
 
 Iteration 12  CC energy:  -129.06707634  Energy decrease:   0.00000001
 ======================================================================
 Norm of residual vector:     0.00000020
 CPU time [min]:  7383.601                   Wall time [min]:   646.404
 
 Iteration 13  CC energy:  -129.06707634  Energy decrease:   4.8135E-10
 ======================================================================
 Norm of residual vector:     0.00000006
 CPU time [min]:  7952.003                   Wall time [min]:   692.226
 
 Iteration 14  CC energy:  -129.06707634  Energy decrease:   3.2799E-10
 ======================================================================
 
 Iteration has converged in 14 steps.
 
 Final results:
 Total CCSDT energy [au]:           -129.067076339819
 Total MP2 energy [au]:             -129.061541072828
 
 ************************ 2016-09-26 14:56:15 *************************
                      Normal termination of mrcc.
 **********************************************************************
--executable dmrcc finished with status     0 in    41665.70 seconds (walltime).
  The final electronic energy is      -129.067076339818897 a.u. 
  This computation required                        43002.16 seconds (walltime).
--- SharcNET Job Epilogue ---
Job completed successfully.
               jobid: 1237568
               resid: 2718994
         exit status: 0
      allocated time: 43003.3
           user time: 438516
         system time: 39117.4
peak rss=17179869184; peak vsz=21467709440 (bytes)
atime=43003.3; utime=438516; stime=39117.4; exit=0
