 --invoking executable--
/home/nike/cfour_v2.00beta/cfour_v2.00beta/bin/xjoda


   *************************************************************************
         <<<     CCCCCC     CCCCCC   |||     CCCCCC     CCCCCC   >>>
       <<<      CCC        CCC       |||    CCC        CCC         >>>
      <<<      CCC        CCC        |||   CCC        CCC            >>>
    <<<        CCC        CCC        |||   CCC        CCC              >>>
      <<<      CCC        CCC        |||   CCC        CCC            >>>
       <<<      CCC        CCC       |||    CCC        CCC         >>>
         <<<     CCCCCC     CCCCCC   |||     CCCCCC     CCCCCC   >>>
   *************************************************************************

     ****************************************************************
     * CFOUR Coupled-Cluster techniques for Computational Chemistry *
     ****************************************************************
 

   Department of Chemistry                Institut fuer Physikalische Chemie
   University of Texas at Austin          Universitaet Mainz
   Austin, TX  78712, USA                 D-55099 Mainz, Germany
 
                       Version 2.00beta
 
                     blg8424.int.ets1.calculquebec.ca                  
                     Mi 26. Feb 00:24:35 EST 2020                      
                     integer*8 version is running
 
********************************************************************************
*                          Input from ZMAT file                                *
********************************************************************************
TITLE                                                                           
Na    0.0002445   -0.0998053    1.5471126                                       
Na   -0.0002444    3.1776586    0.0486374                                       
Na    0.0002444    0.0997722   -1.5472150                                       
Na   -0.0002444   -3.1776254   -0.0485350                                       
                                                                                
*ACES2(CALC=CCSD(T)                                                             
#UNITS=BOHR                                                                     
#GEOM=2.6729874*10/5.29177210903_Pentasilane_def2-QZVP_pbe                      
COORD=CARTESIAN                                                                 
#COORD=INTERNAL                                                                 
PRINT=4                                                                         
JODA_PRINT=4                                                                    
INPUT_MRCC=OFF                                                                  
#CC_PROG=MRCC                                                                   
#FROZEN_CORE=ON                                                                 
DROPMO=1>4                                                                      
CONTRACTION=GENERAL                                                             
#CONTRACTION=SEGMENTED                                                          
RELATIVISTIC=OFF                                                                
#EXCITE=EOMEE                                                                   
#ESTATE_CONV=5                                                                  
#ESTATE_SYM=2/2/2/2/2/2/2/2                                                     
XFORM_TOL=18                                                                    
SAVE_INTS=ON                                                                    
SCF_EXPORDER=6                                                                  
SCF_EXPSTART=5                                                                  
#SCF_DAMPING=1000                                                               
SCF_EXTRAPOLATION=ON                                                            
SCF_CONV=12                                                                     
SCF_MAXCYC=99999                                                                
CC_CONV=9                                                                       
CC_MAXCYC=999                                                                   
T3_EXTRAPOL=ON                                                                  
REFERENCE=RHF                                                                   
#SYMMETRY=OFF                                                                   
#HFSTABILITY=FOLLOW                                                             
CHARGE=+0                                                                       
MULT=1                                                                          
ABCDTYPE=STANDARD                                                               
#OCCUPATION=3-2-2-0-1-0-0-0/3-1-1-0-1-0-0-0                                     
MEM=12                                                                          
MEM_UNIT=GB                                                                     
BASIS=SPECIAL)                                                                  
                                                                                
NA:def2-TZVPP                                                                   
NA:def2-TZVPP                                                                   
NA:def2-TZVPP                                                                   
NA:def2-TZVPP                                                                   
                                                                                
********************************************************************************
  @GTFLGS-W, Keyword #UNITS not known and is ignored.
  @GTFLGS-W, Keyword #GEOM not known and is ignored.
  @GTFLGS-W, Keyword #COORD not known and is ignored.
  @GTFLGS-W, Keyword #CC_PROG not known and is ignored.
  @GTFLGS-W, Keyword #FROZEN_CORE not known and is ignored.
  @GTFLGS-W, Keyword #CONTRACTION not known and is ignored.
  @GTFLGS-W, Keyword #EXCITE not known and is ignored.
  @GTFLGS-W, Keyword #ESTATE_CONV not known and is ignored.
  @GTFLGS-W, Keyword #ESTATE_SYM not known and is ignored.
  @GTFLGS-W, Keyword #SCF_DAMPING not known and is ignored.
  @GTFLGS-W, Keyword #SYMMETRY not known and is ignored.
  @GTFLGS-W, Keyword #HFSTABILITY not known and is ignored.
  @GTFLGS-W, Keyword #OCCUPATION not known and is ignored.
    -------------------------------------------------------------------
                    CFOUR Control Parameters 
    -------------------------------------------------------------------
        External           Internal           Value            Units
          Name               Name
    -------------------------------------------------------------------
       ABCDTYPE             IABCDT         STANDARD     [  0]   ***   
       ANHARMONIC           IANHAR         OFF          [  0]   ***   
       ANH_ALGORIT          IANALG         STANDARD     [  0]   ***   
       ANH_DERIVAT          IANDER         SECOND       [  1]   ***   
       ANH_STEPSIZ          ICUBST             50000          x 10-6  
       ANH_SYMMETR          IANHSM         ABELIAN      [  0]   ***   
       AO_LADDERS           IAOLAD         SINGLEPASS   [  1]   ***   
       BASIS                IBASIS         SPECIAL      [  0]   ***   
       BREIT                IBREIT         OFF          [  0]   ***   
       BRUCK_CONV           IBRTOL          10D-  4             ***   
       BRUECKNER            IBRKNR             OFF      [  0]   ***   
       BUFFERSIZE           IBUFFS            600               ***   
       CACHE_RECS           ICHREC             10               ***   
       CALCLEVEL            ICLLVL           CCSD(T)    [ 22]   ***   
       CCORBOPT             ICCORB             OFF      [  0] x 0.01  
       CC_CONV              ICCCNV          10D-  9             ***   
       CC_EXPORDER          ICCEOR              5               ***   
       CC_EXTRAPOL          ICCEXT             DIIS     [  1]   ***   
       CC_MAXCYC            ICCCYC            999              cycles 
       CC_PROGRAM           ICCPRO         VCC          [  0]   ***   
       CHARGE               ICHRGE              0               ***   
       CHOLESKY             ICHOLE         OFF          [  0]   ***   
       CIS_CONV             ICISTL              5               ***   
       COMM_SIZE            IPSIZE            ***               ***   
       CONSTANT             ICONST         OLD          [  1]   ***   
       CONTINUUM            ICONTU         NONE         [  0]   ***   
       CONTRACTION          ICNTYP          GENERAL     [  1]   ***   
       COORDINATES          ICOORD         CARTESIAN    [  1]   ***   
       CPHF_CONVER          ICPHFT          10D- 16             ***   
       CPHF_MAXCYC          ICPHFC             64              cycles 
       CUBIC                ICUBIC         OFF          [  0]   ***   
       CURVILINEAR          ICURVY            OFF       [  0]   ***   
       DBOC                 IDBOC          OFF          [  0]   ***   
       DCT                  IDCT           OFF          [  0]   ***   
       DERIV_LEV            IDRLVL            ZERO      [  0]   ***   
       DIAG_MRCC            IEOMST          10D-  0             ***   
       DIFF_TYPE            IDIFTY         RELAXED      [  0]   ***   
       DIRECT               IDIRCT         OFF          [  0]   ***   
       DROPMO               IDRPMO   1,  2,  3,  4,
       ECP                  IECP           OFF          [  0]   ***   
       EIGENVECTOR          IVEC                1               ***   
       EL_ANHARM            IELANH         OFF          [  0]   ***   
       EOMFOLLOW            IEOMSR         ENERGY       [  0]   ***   
       EOM_MRCC             IMRCCE         NEW          [  1]   ***   
       EOM_NONIT            EOMNON         OFF          [  0]   ***   
       EOM_NSING            IEOMSI          10D-  0             ***   
       EOM_NSTATES          IMRCCD         DAVIDSON     [  0]   ***   
       EOM_NTRIP            IEOMTR          10D-  0             ***   
       EOM_ORDER            IEXORD         ENERGY       [  0]   ***   
       ESTATE_CONV          IEXTOL          10D-  5             ***   
       ESTATE_DIAG          IEXDIG         ITERATIVE    [  0]   ***   
       ESTATE_LOCK          IESLOC         ON           [  1]   ***   
       ESTATE_MAXC          IEXMXC             20               ***   
       ESTATE_PROP          IEXPRP         OFF          [  0]   ***   
       EVAL_HESS            IRECAL              0            # of cyc.
       EXCITATION           IEXCIT              0               ***   
       EXCITE               IEXCIT         NONE         [  0]   ***   
       FCGRADNEW            IFCGNW         OFF          [  0]   ***   
       FC_FIELD             IFINFC              0             x 10-6  
       FD_CALTYPE           IFDCAL         GRADONLY     [  0]   ***   
       FD_PROJECT           IFDPRJ         OFF          [  1]   ***   
       FD_STEPSIZE          IDISFD              0            10-4 bohr
       FD_USEGROUP          IFDGRP         FULL         [  0]   ***   
       FILE_RECSIZ          IFLREC              4096           words  
       FINITE_PERT          IFIPER              0             x 10-6  
       FIXGEOM              IFIXGM         OFF          [  0]   ***   
       FOCK                 IFOCK          AO           [  1]   ***   
       FREQ_ALGORI          IVIALG         STANDARD     [  0]   ***   
       FROZEN_CORE          IFROCO         OFF          [  0]   ***   
       FROZEN_VIRT          IFROVI         OFF          [  0]   ***   
       GAMMA_ABCD           IGABCD         STORE        [  0]   ***   
       GAMMA_ABCI           IGABCI         STORE        [  0]   ***   
       GENBAS_1             IGNBS1              0               ***   
       GENBAS_2             IGNBS2              0               ***   
       GENBAS_3             IGNBS3              0               ***   
       GENBAS_4             IGNBS4              0               ***   
       GEO_CONV             ICONTL              5              H/bohr 
       GEO_MAXCYC           IOPTCY             50               ***   
       GEO_MAXSTEP          IMXSTP            300            millibohr
       GEO_METHOD           INR            SINGLE_POINT [  5]   ***   
       GIAO                 IGIAO          OFF          [  1]   ***   
       GIMIC                IGIMIC         OFF          [  0]   ***   
       GRID                 IGRID          OFF          [  0]   ***   
       GRID_ALGO            IGALGO         SERIAL       [  0]   ***   
       GUESS                IGUESS            MOREAD    [  0]   ***   
       HBAR                 IHBAR              OFF      [  0]   ***   
       HESS_TYPE            IHESTP         SCF          [  0]   ***   
       HF2_FILE             IHF2Fl         USE          [  1]   ***   
       HFSTABILITY          ISTABL         OFF          [  0]   ***   
       INCORE               INCORE             OFF      [  0]   ***   
       INPUT_MRCC           IMRCC          OFF          [  0]   ***   
       INTEGRALS            INTTYP             VMOL     [  1]   ***   
       JODA_PRINT           IJPRNT              4               ***   
       LINDEP_TOL           ILINDP              8               ***   
       LINEQ_CONV           IZTACN          10D-  7           cycles  
       LINEQ_EXPOR          ILMAXD              5               ***   
       LINEQ_MAXCY          ILMAXC             50               ***   
       LINEQ_TYPE           ILTYPE         DIIS         [  1]   ***   
       LOCK_ORBOCC          ILOCOC             OFF      [  0]   ***   
       MEMORY_SIZE          IMEMSZ         *********           words  
       MEM_UNIT             IMEMU          GB           [  3]   ***   
       MRCC                 IMRCCC         OFF          [  0]   ***   
       MULTIPLICTY          IMULTP              1               ***   
       NEGEVAL              IDIE             ABORT      [  0]   ***   
       NEWNORM              INEWNO         OFF          [  0]   ***   
       NON-HF               INONHF             OFF      [  0]   ***   
       NTOP_TAMP            ITOPT2             15               ***   
       NUC_MODEL            INUCMO         POINT        [  0]   ***   
       OCCUPATION           IOCCU   ESTIMATED BY SCF 
       OPEN-SHELL           IOPEN          SPIN-ORBITAL [  0]   ***   
       ORBITALS             IORBTP           STANDARD   [  0]   ***   
       PARALLEL             IPARAL         ON           [  1]   ***   
       PARA_INT             IPINTS         ON           [  1]   ***   
       PARA_PRINT           IPPRIN              0               ***   
       PERT_ORB             IPTORB         STANDARD     [  0]   ***   
       POINTS               IGRDFD              0               ***   
       PRINT                IPRNT               4               ***   
       PROPS                IPROPS             OFF      [  0]   ***   
       PROP_INTEGR          IINTYP         INTERNAL     [  0]   ***   
       PSI                  IPSI           OFF          [  0]   ***   
       QUARTIC              IQUART         OFF          [  0]   ***   
       RAMAN_INT            IRAMIN         OFF          [  0]   ***   
       RAMAN_ORB            IRAMRE         UNRELAXED    [  0]   ***   
       RDO                  IRDOFM             OFF      [  0]   ***   
       REFERENCE            IREFNC             RHF      [  0]   ***   
       RELATIVIST           IRELAT         OFF          [  0]   ***   
       RELAX_DENS           IRDENS             OFF      [  0]   ***   
       RESET_FLAGS          IRESET             OFF      [  0]   ***   
       RESTART_CC           ICCRES         OFF          [  0]   ***   
       ROT_EVEC             ROTVEC              0               ***   
       SAVE_INTS            ISVINT              ON      [  1]   ***   
       SCALE_ON             ISTCRT              0               ***   
       SCF_CONV             ISCFCV          10D- 12             ***   
       SCF_DAMPING          IDAMP               0             x 10-3  
       SCF_EXPORDE          IRPPOR              6               ***   
       SCF_EXPSTAR          IRPPLS              5               ***   
       SCF_EXTRAPO          IRPP                ON      [  1]   ***   
       SCF_MAXCYC           ISCFCY            ***              cycles 
       SCF_NOSTOP           ISCFST         OFF          [  0]   ***   
       SCF_PRINT            ISCFPR              0               ***   
       SD_FIELD             IFINSD              0             x 10-6  
       SEQUENCE             ISEQUE         OFF          [  0]   ***   
       SOPERT               IPERSO         OFF          [  0]   ***   
       SPHERICAL            IDFGHI             ON       [  1]   ***   
       SPINORBIT            ISOCAL         OFF          [  0]   ***   
       SPINROTATIO          ISRCON         OFF          [  0]   ***   
       SPIN_FLIP            ISPFLP         OFF          [  0]   ***   
       SPIN_ORBIT           ISPORB         OFF          [  0]   ***   
       SPIN_SCAL            ISCSMP         OFF          [  0]   ***   
       SUBGROUP             ISUBGP         DEFAULT      [  0]   ***   
       SUBGRPAXIS           ISBXYZ         X            [  0]   ***   
       SYMMETRY             ISYM             ON         [  0]   ***   
       SYM_CHECK            ISYMCK         OVERRIDE     [  1]   ***   
       T3_EXTRAPOL          IT3EXT         ON           [  1]   ***   
       TAMP_SUM             IEVERY              5               ***   
       TESTSUITE            ITESTS         OFF          [  0]   ***   
       THERMOCH             ITHERM         OFF          [  0]   ***   
       TOL_CHOLESK          ITOLCH          10D-  4             ***   
       TRANGRAD             IRESRM         OFF          [  0]   ***   
       TRANS_INV            ITRAIN         USE          [  0]   ***   
       TREAT_PERT           ITREAT         SIMULTANEOUS [  0]   ***   
       UIJ_THRESHO          IUIJTH              1               ***   
       UNITS                IUNITS         ANGSTROM     [  0]   ***   
       UNOS                 IUNOS          OFF          [  0]   ***   
       UPDATE_HESS          IHUPDT         ON           [  1]   ***   
       VIBPHASE             ISETPH         STANDARD     [  0]   ***   
       VIBRATION            IVIB              NO        [  0]   ***   
       VIB_ALGORIT          IGEALG         STANDARD     [  0]   ***   
       VNATORB              IVNORB         OFF          [  0]   ***   
       VTRAN                IVTRAN         FULL/PARTIAL [  0]   ***   
       XFIELD               IXEFLD              0             x 10-6  
       XFORM_TOL            IXFTOL          10D- 18             ***   
       YFIELD               IYEFLD              0             x 10-6  
       ZFIELD               IZEFLD              0             x 10-6  
    -------------------------------------------------------------------
  @GETXYZ-I,     4 atoms read from ZMAT.
  1  NA        11    22.98977
  2  NA        11    22.98977
  3  NA        11    22.98977
  4  NA        11    22.98977
  1  NA        11    22.98977
  2  NA        11    22.98977
  3  NA        11    22.98977
  4  NA        11    22.98977
   22.9897677000
   22.9897677000
   22.9897677000
   22.9897677000
 After translation to center of mass coordinates 
        0.000461990891   -0.188604769556    2.923619710679
       -0.000461896405    6.004905682804    0.091911384676
        0.000461801918    0.188542125122   -2.923813218675
       -0.000461896405   -6.004843038370   -0.091717876681
  Inertia tensor (amu*bohr**2)
 2053.01494    0.00000   -0.00001
    0.00000  393.42612   -0.00000
   -0.00001   -0.00000 1659.58887
    Inertia tensor:
      ****************    0.000002149674   -0.000008592222
        0.000002149674  393.426117192741   -0.000001607549
       -0.000008592222   -0.000001607549  ****************
    Principal axis orientation for molecular system: 
       -0.188604765845    2.923619710929    0.000461926796
        6.004905682922    0.091911377042   -0.000461890634
        0.188542121409   -2.923813218904    0.000461866017
       -6.004843038486   -0.091717869067   -0.000461902180
    Diagonalized inertia tensor:
      393.426117192741    0.000000000000    0.000000000000
        0.000000000000  ****************    0.000000000000
        0.000000000000    0.000000000000  ****************
    Eigenvectors of inertia tensor: 
       -0.000000001295    0.000000021839    1.000000000000
        1.000000000000   -0.000000001270    0.000000001295
        0.000000001270    1.000000000000   -0.000000021839
 factor:   60.1997200000000     
   Rotational constants (in cm-1): 
          0.0293225922             0.0362738755             0.1530140409
   Rotational constants (in MHz): 
        879.0693223326          1087.4635835571          4587.2461866222
  @SYMMETRY-I, Handedness of inertial frame: 1.00000
  @SYMMETRY-I, The symmetry group is 1-fold degenerate.
  @SYMMETRY-I, The molecule belongs to an Abelian group.
   Principal axis orientation for molecule:
       -0.188604765845    2.923619710929    0.000461926796
        6.004905682922    0.091911377042   -0.000461890634
        0.188542121409   -2.923813218904    0.000461866017
       -6.004843038486   -0.091717869067   -0.000461902180
  Symmetry bits:    0   0   0
********************************************************************************
   The full molecular point group is C1  .
   The largest Abelian subgroup of the full molecular point group is C1  .
   The computational point group is C1  .
********************************************************************************
 ----------------------------------------------------------------
 Z-matrix   Atomic            Coordinates (in bohr)
  Symbol    Number           X              Y              Z
 ----------------------------------------------------------------
     NA       11        -0.18860477     2.92361971     0.00046193
     NA       11         6.00490568     0.09191138    -0.00046189
     NA       11         0.18854212    -2.92381322     0.00046187
     NA       11        -6.00484304    -0.09171787    -0.00046190
 ----------------------------------------------------------------
   Interatomic distance matrix (Angstroms) 
 
                 NA            NA            NA            NA   
                [ 1]        [ 2]        [ 3]        [ 4]
  NA   [ 1]     0.00000
  NA   [ 2]     3.60378     0.00000
  NA   [ 3]     3.10076     3.46701     0.00000
  NA   [ 4]     3.46685     6.35603     3.60380     0.00000
  Inertia tensor (amu*bohr**2)
  393.42612   -0.00000   -0.00000
   -0.00000 1659.58887   -0.00000
   -0.00000   -0.00000 2053.01494
   Rotational constants (in cm-1): 
          0.1530140409             0.0362738755             0.0293225922
   Rotational constants (in MHz): 
       4587.2461866222          1087.4635835571           879.0693223326
  @GTFLGS-W, Keyword #UNITS not known and is ignored.
  @GTFLGS-W, Keyword #GEOM not known and is ignored.
  @GTFLGS-W, Keyword #COORD not known and is ignored.
  @GTFLGS-W, Keyword #CC_PROG not known and is ignored.
  @GTFLGS-W, Keyword #FROZEN_CORE not known and is ignored.
  @GTFLGS-W, Keyword #CONTRACTION not known and is ignored.
  @GTFLGS-W, Keyword #EXCITE not known and is ignored.
  @GTFLGS-W, Keyword #ESTATE_CONV not known and is ignored.
  @GTFLGS-W, Keyword #ESTATE_SYM not known and is ignored.
  @GTFLGS-W, Keyword #SCF_DAMPING not known and is ignored.
  @GTFLGS-W, Keyword #SYMMETRY not known and is ignored.
  @GTFLGS-W, Keyword #HFSTABILITY not known and is ignored.
  @GTFLGS-W, Keyword #OCCUPATION not known and is ignored.
  There are  128 basis functions.
 @GEOPT-W, Archive file not created for single-point calculation.
  @CHECKOUT-I, Total execution time (CPU/WALL):        0.53/       0.84 seconds.
--executable xjoda finished with status     0 in        3.15 seconds (walltime).
 --invoking executable--
/home/nike/cfour_v2.00beta/cfour_v2.00beta/bin/xvmol
 Serial version of molecule started
********************************************************************************
                    Input from MOL file
********************************************************************************
INTGRL        1    0    1    0    0    0    0    0    0                         
         *** CFOUR Program System (Release V0.1) ***                            
TITLE                                                                           
    4    0            0.10E-08              0    0                              
   9999.00      3.00                                                            
         11.00000000    1    3    1    1    1                                   
NA#1  -0.188604765845059   2.923619710928636   0.000461926796494                
   14    5                                                                      
   26041.1099270000       6.180634281100000E-004  0.000000000000000E+000        
  0.000000000000000E+000  0.000000000000000E+000  0.000000000000000E+000        
   3906.12685480000       4.774860441400000E-003  0.000000000000000E+000        
  0.000000000000000E+000  0.000000000000000E+000  0.000000000000000E+000        
   888.974549930000       2.447168482900000E-002  0.000000000000000E+000        
  0.000000000000000E+000  0.000000000000000E+000  0.000000000000000E+000        
   251.454979610000       9.475539497700000E-002  0.000000000000000E+000        
  0.000000000000000E+000  0.000000000000000E+000  0.000000000000000E+000        
   81.6501435120000       0.268674969200000       0.000000000000000E+000        
  0.000000000000000E+000  0.000000000000000E+000  0.000000000000000E+000        
   28.9041584010000       0.479254754400000       0.000000000000000E+000        
  0.000000000000000E+000  0.000000000000000E+000  0.000000000000000E+000        
   10.6257829320000       0.332485914690000       0.000000000000000E+000        
  0.000000000000000E+000  0.000000000000000E+000  0.000000000000000E+000        
   53.7694101790000       0.000000000000000E+000  1.952773187200000E-002        
  0.000000000000000E+000  0.000000000000000E+000  0.000000000000000E+000        
   16.3082430250000       0.000000000000000E+000  9.264801079399999E-002        
  0.000000000000000E+000  0.000000000000000E+000  0.000000000000000E+000        
   2.37303841250000       0.000000000000000E+000 -0.399386701720000             
  0.000000000000000E+000  0.000000000000000E+000  0.000000000000000E+000        
  0.957307726030000       0.000000000000000E+000  0.000000000000000E+000        
   1.64285953910000       0.000000000000000E+000  0.000000000000000E+000        
  0.408064609590000       0.000000000000000E+000  0.000000000000000E+000        
  0.556925969660000       0.000000000000000E+000  0.000000000000000E+000        
  4.996758232900000E-002  0.000000000000000E+000  0.000000000000000E+000        
  0.000000000000000E+000   1.00000000000000       0.000000000000000E+000        
  1.926861625000000E-002  0.000000000000000E+000  0.000000000000000E+000        
  0.000000000000000E+000  0.000000000000000E+000   1.00000000000000             
    8    4                                                                      
   138.079799890000       5.795189192900000E-003  0.000000000000000E+000        
  0.000000000000000E+000  0.000000000000000E+000                                
   32.2327003930000       4.162084625100000E-002  0.000000000000000E+000        
  0.000000000000000E+000  0.000000000000000E+000                                
   9.98160753600000       0.162819168850000       0.000000000000000E+000        
  0.000000000000000E+000  0.000000000000000E+000                                
   3.48220339280000       0.360117846470000       0.000000000000000E+000        
  0.000000000000000E+000  0.000000000000000E+000                                
   1.22991346200000       0.448589798890000       0.000000000000000E+000        
  0.000000000000000E+000  0.000000000000000E+000                                
  0.417439594230000       0.000000000000000E+000  0.230407595590000             
  0.000000000000000E+000  0.000000000000000E+000                                
  3.000000000000000E-002  0.000000000000000E+000  0.000000000000000E+000        
   1.00000000000000       0.000000000000000E+000                                
  9.100000000000000E-002  0.000000000000000E+000  0.000000000000000E+000        
  0.000000000000000E+000   1.00000000000000                                     
    3    3                                                                      
   2.60900000000000        1.00000000000000       0.000000000000000E+000        
  0.000000000000000E+000                                                        
  0.430000000000000       0.000000000000000E+000   1.00000000000000             
  0.000000000000000E+000                                                        
  0.100000000000000       0.000000000000000E+000  0.000000000000000E+000        
   1.00000000000000                                                             
         11.00000000    1    3    1    1    1                                   
NA#2   6.004905682921780   0.091911377042268  -0.000461890633923                
   14    5                                                                      
   26041.1099270000       6.180634281100000E-004  0.000000000000000E+000        
  0.000000000000000E+000  0.000000000000000E+000  0.000000000000000E+000        
   3906.12685480000       4.774860441400000E-003  0.000000000000000E+000        
  0.000000000000000E+000  0.000000000000000E+000  0.000000000000000E+000        
   888.974549930000       2.447168482900000E-002  0.000000000000000E+000        
  0.000000000000000E+000  0.000000000000000E+000  0.000000000000000E+000        
   251.454979610000       9.475539497700000E-002  0.000000000000000E+000        
  0.000000000000000E+000  0.000000000000000E+000  0.000000000000000E+000        
   81.6501435120000       0.268674969200000       0.000000000000000E+000        
  0.000000000000000E+000  0.000000000000000E+000  0.000000000000000E+000        
   28.9041584010000       0.479254754400000       0.000000000000000E+000        
  0.000000000000000E+000  0.000000000000000E+000  0.000000000000000E+000        
   10.6257829320000       0.332485914690000       0.000000000000000E+000        
  0.000000000000000E+000  0.000000000000000E+000  0.000000000000000E+000        
   53.7694101790000       0.000000000000000E+000  1.952773187200000E-002        
  0.000000000000000E+000  0.000000000000000E+000  0.000000000000000E+000        
   16.3082430250000       0.000000000000000E+000  9.264801079399999E-002        
  0.000000000000000E+000  0.000000000000000E+000  0.000000000000000E+000        
   2.37303841250000       0.000000000000000E+000 -0.399386701720000             
  0.000000000000000E+000  0.000000000000000E+000  0.000000000000000E+000        
  0.957307726030000       0.000000000000000E+000  0.000000000000000E+000        
   1.64285953910000       0.000000000000000E+000  0.000000000000000E+000        
  0.408064609590000       0.000000000000000E+000  0.000000000000000E+000        
  0.556925969660000       0.000000000000000E+000  0.000000000000000E+000        
  4.996758232900000E-002  0.000000000000000E+000  0.000000000000000E+000        
  0.000000000000000E+000   1.00000000000000       0.000000000000000E+000        
  1.926861625000000E-002  0.000000000000000E+000  0.000000000000000E+000        
  0.000000000000000E+000  0.000000000000000E+000   1.00000000000000             
    8    4                                                                      
   138.079799890000       5.795189192900000E-003  0.000000000000000E+000        
  0.000000000000000E+000  0.000000000000000E+000                                
   32.2327003930000       4.162084625100000E-002  0.000000000000000E+000        
  0.000000000000000E+000  0.000000000000000E+000                                
   9.98160753600000       0.162819168850000       0.000000000000000E+000        
  0.000000000000000E+000  0.000000000000000E+000                                
   3.48220339280000       0.360117846470000       0.000000000000000E+000        
  0.000000000000000E+000  0.000000000000000E+000                                
   1.22991346200000       0.448589798890000       0.000000000000000E+000        
  0.000000000000000E+000  0.000000000000000E+000                                
  0.417439594230000       0.000000000000000E+000  0.230407595590000             
  0.000000000000000E+000  0.000000000000000E+000                                
  3.000000000000000E-002  0.000000000000000E+000  0.000000000000000E+000        
   1.00000000000000       0.000000000000000E+000                                
  9.100000000000000E-002  0.000000000000000E+000  0.000000000000000E+000        
  0.000000000000000E+000   1.00000000000000                                     
    3    3                                                                      
   2.60900000000000        1.00000000000000       0.000000000000000E+000        
  0.000000000000000E+000                                                        
  0.430000000000000       0.000000000000000E+000   1.00000000000000             
  0.000000000000000E+000                                                        
  0.100000000000000       0.000000000000000E+000  0.000000000000000E+000        
   1.00000000000000                                                             
         11.00000000    1    3    1    1    1                                   
NA#3   0.188542121409456  -2.923813218904098   0.000461866017279                
   14    5                                                                      
   26041.1099270000       6.180634281100000E-004  0.000000000000000E+000        
  0.000000000000000E+000  0.000000000000000E+000  0.000000000000000E+000        
   3906.12685480000       4.774860441400000E-003  0.000000000000000E+000        
  0.000000000000000E+000  0.000000000000000E+000  0.000000000000000E+000        
   888.974549930000       2.447168482900000E-002  0.000000000000000E+000        
  0.000000000000000E+000  0.000000000000000E+000  0.000000000000000E+000        
   251.454979610000       9.475539497700000E-002  0.000000000000000E+000        
  0.000000000000000E+000  0.000000000000000E+000  0.000000000000000E+000        
   81.6501435120000       0.268674969200000       0.000000000000000E+000        
  0.000000000000000E+000  0.000000000000000E+000  0.000000000000000E+000        
   28.9041584010000       0.479254754400000       0.000000000000000E+000        
  0.000000000000000E+000  0.000000000000000E+000  0.000000000000000E+000        
   10.6257829320000       0.332485914690000       0.000000000000000E+000        
  0.000000000000000E+000  0.000000000000000E+000  0.000000000000000E+000        
   53.7694101790000       0.000000000000000E+000  1.952773187200000E-002        
  0.000000000000000E+000  0.000000000000000E+000  0.000000000000000E+000        
   16.3082430250000       0.000000000000000E+000  9.264801079399999E-002        
  0.000000000000000E+000  0.000000000000000E+000  0.000000000000000E+000        
   2.37303841250000       0.000000000000000E+000 -0.399386701720000             
  0.000000000000000E+000  0.000000000000000E+000  0.000000000000000E+000        
  0.957307726030000       0.000000000000000E+000  0.000000000000000E+000        
   1.64285953910000       0.000000000000000E+000  0.000000000000000E+000        
  0.408064609590000       0.000000000000000E+000  0.000000000000000E+000        
  0.556925969660000       0.000000000000000E+000  0.000000000000000E+000        
  4.996758232900000E-002  0.000000000000000E+000  0.000000000000000E+000        
  0.000000000000000E+000   1.00000000000000       0.000000000000000E+000        
  1.926861625000000E-002  0.000000000000000E+000  0.000000000000000E+000        
  0.000000000000000E+000  0.000000000000000E+000   1.00000000000000             
    8    4                                                                      
   138.079799890000       5.795189192900000E-003  0.000000000000000E+000        
  0.000000000000000E+000  0.000000000000000E+000                                
   32.2327003930000       4.162084625100000E-002  0.000000000000000E+000        
  0.000000000000000E+000  0.000000000000000E+000                                
   9.98160753600000       0.162819168850000       0.000000000000000E+000        
  0.000000000000000E+000  0.000000000000000E+000                                
   3.48220339280000       0.360117846470000       0.000000000000000E+000        
  0.000000000000000E+000  0.000000000000000E+000                                
   1.22991346200000       0.448589798890000       0.000000000000000E+000        
  0.000000000000000E+000  0.000000000000000E+000                                
  0.417439594230000       0.000000000000000E+000  0.230407595590000             
  0.000000000000000E+000  0.000000000000000E+000                                
  3.000000000000000E-002  0.000000000000000E+000  0.000000000000000E+000        
   1.00000000000000       0.000000000000000E+000                                
  9.100000000000000E-002  0.000000000000000E+000  0.000000000000000E+000        
  0.000000000000000E+000   1.00000000000000                                     
    3    3                                                                      
   2.60900000000000        1.00000000000000       0.000000000000000E+000        
  0.000000000000000E+000                                                        
  0.430000000000000       0.000000000000000E+000   1.00000000000000             
  0.000000000000000E+000                                                        
  0.100000000000000       0.000000000000000E+000  0.000000000000000E+000        
   1.00000000000000                                                             
         11.00000000    1    3    1    1    1                                   
NA#4  -6.004843038486178  -0.091717869066807  -0.000461902179850                
   14    5                                                                      
   26041.1099270000       6.180634281100000E-004  0.000000000000000E+000        
  0.000000000000000E+000  0.000000000000000E+000  0.000000000000000E+000        
   3906.12685480000       4.774860441400000E-003  0.000000000000000E+000        
  0.000000000000000E+000  0.000000000000000E+000  0.000000000000000E+000        
   888.974549930000       2.447168482900000E-002  0.000000000000000E+000        
  0.000000000000000E+000  0.000000000000000E+000  0.000000000000000E+000        
   251.454979610000       9.475539497700000E-002  0.000000000000000E+000        
  0.000000000000000E+000  0.000000000000000E+000  0.000000000000000E+000        
   81.6501435120000       0.268674969200000       0.000000000000000E+000        
  0.000000000000000E+000  0.000000000000000E+000  0.000000000000000E+000        
   28.9041584010000       0.479254754400000       0.000000000000000E+000        
  0.000000000000000E+000  0.000000000000000E+000  0.000000000000000E+000        
   10.6257829320000       0.332485914690000       0.000000000000000E+000        
  0.000000000000000E+000  0.000000000000000E+000  0.000000000000000E+000        
   53.7694101790000       0.000000000000000E+000  1.952773187200000E-002        
  0.000000000000000E+000  0.000000000000000E+000  0.000000000000000E+000        
   16.3082430250000       0.000000000000000E+000  9.264801079399999E-002        
  0.000000000000000E+000  0.000000000000000E+000  0.000000000000000E+000        
   2.37303841250000       0.000000000000000E+000 -0.399386701720000             
  0.000000000000000E+000  0.000000000000000E+000  0.000000000000000E+000        
  0.957307726030000       0.000000000000000E+000  0.000000000000000E+000        
   1.64285953910000       0.000000000000000E+000  0.000000000000000E+000        
  0.408064609590000       0.000000000000000E+000  0.000000000000000E+000        
  0.556925969660000       0.000000000000000E+000  0.000000000000000E+000        
  4.996758232900000E-002  0.000000000000000E+000  0.000000000000000E+000        
  0.000000000000000E+000   1.00000000000000       0.000000000000000E+000        
  1.926861625000000E-002  0.000000000000000E+000  0.000000000000000E+000        
  0.000000000000000E+000  0.000000000000000E+000   1.00000000000000             
    8    4                                                                      
   138.079799890000       5.795189192900000E-003  0.000000000000000E+000        
  0.000000000000000E+000  0.000000000000000E+000                                
   32.2327003930000       4.162084625100000E-002  0.000000000000000E+000        
  0.000000000000000E+000  0.000000000000000E+000                                
   9.98160753600000       0.162819168850000       0.000000000000000E+000        
  0.000000000000000E+000  0.000000000000000E+000                                
   3.48220339280000       0.360117846470000       0.000000000000000E+000        
  0.000000000000000E+000  0.000000000000000E+000                                
   1.22991346200000       0.448589798890000       0.000000000000000E+000        
  0.000000000000000E+000  0.000000000000000E+000                                
  0.417439594230000       0.000000000000000E+000  0.230407595590000             
  0.000000000000000E+000  0.000000000000000E+000                                
  3.000000000000000E-002  0.000000000000000E+000  0.000000000000000E+000        
   1.00000000000000       0.000000000000000E+000                                
  9.100000000000000E-002  0.000000000000000E+000  0.000000000000000E+000        
  0.000000000000000E+000   1.00000000000000                                     
    3    3                                                                      
   2.60900000000000        1.00000000000000       0.000000000000000E+000        
  0.000000000000000E+000                                                        
  0.430000000000000       0.000000000000000E+000   1.00000000000000             
  0.000000000000000E+000                                                        
  0.100000000000000       0.000000000000000E+000  0.000000000000000E+000        
   1.00000000000000                                                             
FINISH                                                                          
 
********************************************************************************
 One- and two-electron integrals over symmetry-adapted AOs are calculated.

  Spherical harmonics are used.
  
   4 types of atoms
   0 symmetry operations

  
  Integrals less than  0.10E-13 are neglected.

  Atomic type number  1 :
  -----------------------

    Nuclear charge:                       11
    number of symmetry independent atoms:  1
    highest orbital type:                  d

      1 groups of CGTOs of s type
      1 groups of CGTOs of p type
      1 groups of CGTOs of d type

    nuclear coordinates (in a.u.) are :

    NA#1       -0.188604765845059        2.923619710928636        0.000461926796494
  
   Basis function not normalized: 
   Center (as ordered in MOL file):   1
   Angular Momentum type          : s
   Offset within angular momentum :  1
   <chi|chi>                      :    0.9502442359
   Basis function not normalized: 
   Center (as ordered in MOL file):   1
   Angular Momentum type          : s
   Offset within angular momentum :  2
   <chi|chi>                      :    2.8051739232
   Basis function not normalized: 
   Center (as ordered in MOL file):   1
   Angular Momentum type          : s
   Offset within angular momentum :  3
   <chi|chi>                      :    0.4656380174
   Basis function not normalized: 
   Center (as ordered in MOL file):   1
   Angular Momentum type          : p
   Offset within angular momentum :  1
   <chi|chi>                      :    1.1598158564
   Basis function not normalized: 
   Center (as ordered in MOL file):   1
   Angular Momentum type          : p
   Offset within angular momentum :  2
   <chi|chi>                      :    4.3401346967
  Atomic type number  2 :
  -----------------------

    Nuclear charge:                       11
    number of symmetry independent atoms:  1
    highest orbital type:                  d

      1 groups of CGTOs of s type
      1 groups of CGTOs of p type
      1 groups of CGTOs of d type

    nuclear coordinates (in a.u.) are :

    NA#2        6.004905682921780        0.091911377042268       -0.000461890633923
  
   Basis function not normalized: 
   Center (as ordered in MOL file):   2
   Angular Momentum type          : s
   Offset within angular momentum :  1
   <chi|chi>                      :    0.9502442359
   Basis function not normalized: 
   Center (as ordered in MOL file):   2
   Angular Momentum type          : s
   Offset within angular momentum :  2
   <chi|chi>                      :    2.8051739232
   Basis function not normalized: 
   Center (as ordered in MOL file):   2
   Angular Momentum type          : s
   Offset within angular momentum :  3
   <chi|chi>                      :    0.4656380174
   Basis function not normalized: 
   Center (as ordered in MOL file):   2
   Angular Momentum type          : p
   Offset within angular momentum :  1
   <chi|chi>                      :    1.1598158564
   Basis function not normalized: 
   Center (as ordered in MOL file):   2
   Angular Momentum type          : p
   Offset within angular momentum :  2
   <chi|chi>                      :    4.3401346967
  Atomic type number  3 :
  -----------------------

    Nuclear charge:                       11
    number of symmetry independent atoms:  1
    highest orbital type:                  d

      1 groups of CGTOs of s type
      1 groups of CGTOs of p type
      1 groups of CGTOs of d type

    nuclear coordinates (in a.u.) are :

    NA#3        0.188542121409456       -2.923813218904098        0.000461866017279
  
   Basis function not normalized: 
   Center (as ordered in MOL file):   3
   Angular Momentum type          : s
   Offset within angular momentum :  1
   <chi|chi>                      :    0.9502442359
   Basis function not normalized: 
   Center (as ordered in MOL file):   3
   Angular Momentum type          : s
   Offset within angular momentum :  2
   <chi|chi>                      :    2.8051739232
   Basis function not normalized: 
   Center (as ordered in MOL file):   3
   Angular Momentum type          : s
   Offset within angular momentum :  3
   <chi|chi>                      :    0.4656380174
   Basis function not normalized: 
   Center (as ordered in MOL file):   3
   Angular Momentum type          : p
   Offset within angular momentum :  1
   <chi|chi>                      :    1.1598158564
   Basis function not normalized: 
   Center (as ordered in MOL file):   3
   Angular Momentum type          : p
   Offset within angular momentum :  2
   <chi|chi>                      :    4.3401346967
  Atomic type number  4 :
  -----------------------

    Nuclear charge:                       11
    number of symmetry independent atoms:  1
    highest orbital type:                  d

      1 groups of CGTOs of s type
      1 groups of CGTOs of p type
      1 groups of CGTOs of d type

    nuclear coordinates (in a.u.) are :

    NA#4       -6.004843038486178       -0.091717869066807       -0.000461902179850
  
   Basis function not normalized: 
   Center (as ordered in MOL file):   4
   Angular Momentum type          : s
   Offset within angular momentum :  1
   <chi|chi>                      :    0.9502442359
   Basis function not normalized: 
   Center (as ordered in MOL file):   4
   Angular Momentum type          : s
   Offset within angular momentum :  2
   <chi|chi>                      :    2.8051739232
   Basis function not normalized: 
   Center (as ordered in MOL file):   4
   Angular Momentum type          : s
   Offset within angular momentum :  3
   <chi|chi>                      :    0.4656380174
   Basis function not normalized: 
   Center (as ordered in MOL file):   4
   Angular Momentum type          : p
   Offset within angular momentum :  1
   <chi|chi>                      :    1.1598158564
   Basis function not normalized: 
   Center (as ordered in MOL file):   4
   Angular Momentum type          : p
   Offset within angular momentum :  2
   <chi|chi>                      :    4.3401346967
   Internuclear distances (A) :

     for atom NA#1 (coordinates :  -0.18860   2.92362   0.00046)

     NA#2   1     distance is  3.604
     NA#3   1     distance is  3.101
     NA#4   1     distance is  3.467

     for atom NA#2 (coordinates :   6.00491   0.09191  -0.00046)

     NA#3   1     distance is  3.467
     NA#4   1     distance is  6.356

     for atom NA#3 (coordinates :   0.18854  -2.92381   0.00046)

     NA#4   1     distance is  3.604

     for atom NA#4 (coordinates :  -6.00484  -0.09172  -0.00046)


   Group multiplication table :

         1

   Gaussian basis information :

   atom                 exponent      coefficients

 NA#1  1    S   
+                 1   26041.109927   0.0006181   0.0000000   0.0000000   0.0000000   0.0000000
                  2    3906.126855   0.0047749   0.0000000   0.0000000   0.0000000   0.0000000
                  3     888.974550   0.0244717   0.0000000   0.0000000   0.0000000   0.0000000
                  4     251.454980   0.0947554   0.0000000   0.0000000   0.0000000   0.0000000
                  5      81.650144   0.2686750   0.0000000   0.0000000   0.0000000   0.0000000
                  6      28.904158   0.4792548   0.0000000   0.0000000   0.0000000   0.0000000
                  7      10.625783   0.3324859   0.0000000   0.0000000   0.0000000   0.0000000
                  8      53.769410   0.0000000   0.0195277   0.0000000   0.0000000   0.0000000
                  9      16.308243   0.0000000   0.0926480   0.0000000   0.0000000   0.0000000
                 10       2.373038   0.0000000  -0.3993867   0.0000000   0.0000000   0.0000000
                 11       0.957308   0.0000000   0.0000000   1.6428595   0.0000000   0.0000000
                 12       0.408065   0.0000000   0.0000000   0.5569260   0.0000000   0.0000000
                 13       0.049968   0.0000000   0.0000000   0.0000000   1.0000000   0.0000000
                 14       0.019269   0.0000000   0.0000000   0.0000000   0.0000000   1.0000000

 NA#1  1    X   
+                15     138.079800   0.0057952   0.0000000   0.0000000   0.0000000
                 16      32.232700   0.0416208   0.0000000   0.0000000   0.0000000
                 17       9.981608   0.1628192   0.0000000   0.0000000   0.0000000
                 18       3.482203   0.3601178   0.0000000   0.0000000   0.0000000
                 19       1.229913   0.4485898   0.0000000   0.0000000   0.0000000
                 20       0.417440   0.0000000   0.2304076   0.0000000   0.0000000
                 21       0.030000   0.0000000   0.0000000   1.0000000   0.0000000
                 22       0.091000   0.0000000   0.0000000   0.0000000   1.0000000

 NA#1  1    Y   
+                23     138.079800   0.0057952   0.0000000   0.0000000   0.0000000
                 24      32.232700   0.0416208   0.0000000   0.0000000   0.0000000
                 25       9.981608   0.1628192   0.0000000   0.0000000   0.0000000
                 26       3.482203   0.3601178   0.0000000   0.0000000   0.0000000
                 27       1.229913   0.4485898   0.0000000   0.0000000   0.0000000
                 28       0.417440   0.0000000   0.2304076   0.0000000   0.0000000
                 29       0.030000   0.0000000   0.0000000   1.0000000   0.0000000
                 30       0.091000   0.0000000   0.0000000   0.0000000   1.0000000

 NA#1  1    Z   
+                31     138.079800   0.0057952   0.0000000   0.0000000   0.0000000
                 32      32.232700   0.0416208   0.0000000   0.0000000   0.0000000
                 33       9.981608   0.1628192   0.0000000   0.0000000   0.0000000
                 34       3.482203   0.3601178   0.0000000   0.0000000   0.0000000
                 35       1.229913   0.4485898   0.0000000   0.0000000   0.0000000
                 36       0.417440   0.0000000   0.2304076   0.0000000   0.0000000
                 37       0.030000   0.0000000   0.0000000   1.0000000   0.0000000
                 38       0.091000   0.0000000   0.0000000   0.0000000   1.0000000

 NA#1  1    XX  
+                39       2.609000   1.0000000   0.0000000   0.0000000
                 40       0.430000   0.0000000   1.0000000   0.0000000
                 41       0.100000   0.0000000   0.0000000   1.0000000

 NA#1  1    XY  
+                42       2.609000   1.0000000   0.0000000   0.0000000
                 43       0.430000   0.0000000   1.0000000   0.0000000
                 44       0.100000   0.0000000   0.0000000   1.0000000

 NA#1  1    XZ  
+                45       2.609000   1.0000000   0.0000000   0.0000000
                 46       0.430000   0.0000000   1.0000000   0.0000000
                 47       0.100000   0.0000000   0.0000000   1.0000000

 NA#1  1    YY  
+                48       2.609000   1.0000000   0.0000000   0.0000000
                 49       0.430000   0.0000000   1.0000000   0.0000000
                 50       0.100000   0.0000000   0.0000000   1.0000000

 NA#1  1    YZ  
+                51       2.609000   1.0000000   0.0000000   0.0000000
                 52       0.430000   0.0000000   1.0000000   0.0000000
                 53       0.100000   0.0000000   0.0000000   1.0000000

 NA#1  1    ZZ  
+                54       2.609000   1.0000000   0.0000000   0.0000000
                 55       0.430000   0.0000000   1.0000000   0.0000000
                 56       0.100000   0.0000000   0.0000000   1.0000000

 NA#2  1    S   
+                57   26041.109927   0.0006181   0.0000000   0.0000000   0.0000000   0.0000000
                 58    3906.126855   0.0047749   0.0000000   0.0000000   0.0000000   0.0000000
                 59     888.974550   0.0244717   0.0000000   0.0000000   0.0000000   0.0000000
                 60     251.454980   0.0947554   0.0000000   0.0000000   0.0000000   0.0000000
                 61      81.650144   0.2686750   0.0000000   0.0000000   0.0000000   0.0000000
                 62      28.904158   0.4792548   0.0000000   0.0000000   0.0000000   0.0000000
                 63      10.625783   0.3324859   0.0000000   0.0000000   0.0000000   0.0000000
                 64      53.769410   0.0000000   0.0195277   0.0000000   0.0000000   0.0000000
                 65      16.308243   0.0000000   0.0926480   0.0000000   0.0000000   0.0000000
                 66       2.373038   0.0000000  -0.3993867   0.0000000   0.0000000   0.0000000
                 67       0.957308   0.0000000   0.0000000   1.6428595   0.0000000   0.0000000
                 68       0.408065   0.0000000   0.0000000   0.5569260   0.0000000   0.0000000
                 69       0.049968   0.0000000   0.0000000   0.0000000   1.0000000   0.0000000
                 70       0.019269   0.0000000   0.0000000   0.0000000   0.0000000   1.0000000

 NA#2  1    X   
+                71     138.079800   0.0057952   0.0000000   0.0000000   0.0000000
                 72      32.232700   0.0416208   0.0000000   0.0000000   0.0000000
                 73       9.981608   0.1628192   0.0000000   0.0000000   0.0000000
                 74       3.482203   0.3601178   0.0000000   0.0000000   0.0000000
                 75       1.229913   0.4485898   0.0000000   0.0000000   0.0000000
                 76       0.417440   0.0000000   0.2304076   0.0000000   0.0000000
                 77       0.030000   0.0000000   0.0000000   1.0000000   0.0000000
                 78       0.091000   0.0000000   0.0000000   0.0000000   1.0000000

 NA#2  1    Y   
+                79     138.079800   0.0057952   0.0000000   0.0000000   0.0000000
                 80      32.232700   0.0416208   0.0000000   0.0000000   0.0000000
                 81       9.981608   0.1628192   0.0000000   0.0000000   0.0000000
                 82       3.482203   0.3601178   0.0000000   0.0000000   0.0000000
                 83       1.229913   0.4485898   0.0000000   0.0000000   0.0000000
                 84       0.417440   0.0000000   0.2304076   0.0000000   0.0000000
                 85       0.030000   0.0000000   0.0000000   1.0000000   0.0000000
                 86       0.091000   0.0000000   0.0000000   0.0000000   1.0000000

 NA#2  1    Z   
+                87     138.079800   0.0057952   0.0000000   0.0000000   0.0000000
                 88      32.232700   0.0416208   0.0000000   0.0000000   0.0000000
                 89       9.981608   0.1628192   0.0000000   0.0000000   0.0000000
                 90       3.482203   0.3601178   0.0000000   0.0000000   0.0000000
                 91       1.229913   0.4485898   0.0000000   0.0000000   0.0000000
                 92       0.417440   0.0000000   0.2304076   0.0000000   0.0000000
                 93       0.030000   0.0000000   0.0000000   1.0000000   0.0000000
                 94       0.091000   0.0000000   0.0000000   0.0000000   1.0000000

 NA#2  1    XX  
+                95       2.609000   1.0000000   0.0000000   0.0000000
                 96       0.430000   0.0000000   1.0000000   0.0000000
                 97       0.100000   0.0000000   0.0000000   1.0000000

 NA#2  1    XY  
+                98       2.609000   1.0000000   0.0000000   0.0000000
                 99       0.430000   0.0000000   1.0000000   0.0000000
                100       0.100000   0.0000000   0.0000000   1.0000000

 NA#2  1    XZ  
+               101       2.609000   1.0000000   0.0000000   0.0000000
                102       0.430000   0.0000000   1.0000000   0.0000000
                103       0.100000   0.0000000   0.0000000   1.0000000

 NA#2  1    YY  
+               104       2.609000   1.0000000   0.0000000   0.0000000
                105       0.430000   0.0000000   1.0000000   0.0000000
                106       0.100000   0.0000000   0.0000000   1.0000000

 NA#2  1    YZ  
+               107       2.609000   1.0000000   0.0000000   0.0000000
                108       0.430000   0.0000000   1.0000000   0.0000000
                109       0.100000   0.0000000   0.0000000   1.0000000

 NA#2  1    ZZ  
+               110       2.609000   1.0000000   0.0000000   0.0000000
                111       0.430000   0.0000000   1.0000000   0.0000000
                112       0.100000   0.0000000   0.0000000   1.0000000

 NA#3  1    S   
+               113   26041.109927   0.0006181   0.0000000   0.0000000   0.0000000   0.0000000
                114    3906.126855   0.0047749   0.0000000   0.0000000   0.0000000   0.0000000
                115     888.974550   0.0244717   0.0000000   0.0000000   0.0000000   0.0000000
                116     251.454980   0.0947554   0.0000000   0.0000000   0.0000000   0.0000000
                117      81.650144   0.2686750   0.0000000   0.0000000   0.0000000   0.0000000
                118      28.904158   0.4792548   0.0000000   0.0000000   0.0000000   0.0000000
                119      10.625783   0.3324859   0.0000000   0.0000000   0.0000000   0.0000000
                120      53.769410   0.0000000   0.0195277   0.0000000   0.0000000   0.0000000
                121      16.308243   0.0000000   0.0926480   0.0000000   0.0000000   0.0000000
                122       2.373038   0.0000000  -0.3993867   0.0000000   0.0000000   0.0000000
                123       0.957308   0.0000000   0.0000000   1.6428595   0.0000000   0.0000000
                124       0.408065   0.0000000   0.0000000   0.5569260   0.0000000   0.0000000
                125       0.049968   0.0000000   0.0000000   0.0000000   1.0000000   0.0000000
                126       0.019269   0.0000000   0.0000000   0.0000000   0.0000000   1.0000000

 NA#3  1    X   
+               127     138.079800   0.0057952   0.0000000   0.0000000   0.0000000
                128      32.232700   0.0416208   0.0000000   0.0000000   0.0000000
                129       9.981608   0.1628192   0.0000000   0.0000000   0.0000000
                130       3.482203   0.3601178   0.0000000   0.0000000   0.0000000
                131       1.229913   0.4485898   0.0000000   0.0000000   0.0000000
                132       0.417440   0.0000000   0.2304076   0.0000000   0.0000000
                133       0.030000   0.0000000   0.0000000   1.0000000   0.0000000
                134       0.091000   0.0000000   0.0000000   0.0000000   1.0000000

 NA#3  1    Y   
+               135     138.079800   0.0057952   0.0000000   0.0000000   0.0000000
                136      32.232700   0.0416208   0.0000000   0.0000000   0.0000000
                137       9.981608   0.1628192   0.0000000   0.0000000   0.0000000
                138       3.482203   0.3601178   0.0000000   0.0000000   0.0000000
                139       1.229913   0.4485898   0.0000000   0.0000000   0.0000000
                140       0.417440   0.0000000   0.2304076   0.0000000   0.0000000
                141       0.030000   0.0000000   0.0000000   1.0000000   0.0000000
                142       0.091000   0.0000000   0.0000000   0.0000000   1.0000000

 NA#3  1    Z   
+               143     138.079800   0.0057952   0.0000000   0.0000000   0.0000000
                144      32.232700   0.0416208   0.0000000   0.0000000   0.0000000
                145       9.981608   0.1628192   0.0000000   0.0000000   0.0000000
                146       3.482203   0.3601178   0.0000000   0.0000000   0.0000000
                147       1.229913   0.4485898   0.0000000   0.0000000   0.0000000
                148       0.417440   0.0000000   0.2304076   0.0000000   0.0000000
                149       0.030000   0.0000000   0.0000000   1.0000000   0.0000000
                150       0.091000   0.0000000   0.0000000   0.0000000   1.0000000

 NA#3  1    XX  
+               151       2.609000   1.0000000   0.0000000   0.0000000
                152       0.430000   0.0000000   1.0000000   0.0000000
                153       0.100000   0.0000000   0.0000000   1.0000000

 NA#3  1    XY  
+               154       2.609000   1.0000000   0.0000000   0.0000000
                155       0.430000   0.0000000   1.0000000   0.0000000
                156       0.100000   0.0000000   0.0000000   1.0000000

 NA#3  1    XZ  
+               157       2.609000   1.0000000   0.0000000   0.0000000
                158       0.430000   0.0000000   1.0000000   0.0000000
                159       0.100000   0.0000000   0.0000000   1.0000000

 NA#3  1    YY  
+               160       2.609000   1.0000000   0.0000000   0.0000000
                161       0.430000   0.0000000   1.0000000   0.0000000
                162       0.100000   0.0000000   0.0000000   1.0000000

 NA#3  1    YZ  
+               163       2.609000   1.0000000   0.0000000   0.0000000
                164       0.430000   0.0000000   1.0000000   0.0000000
                165       0.100000   0.0000000   0.0000000   1.0000000

 NA#3  1    ZZ  
+               166       2.609000   1.0000000   0.0000000   0.0000000
                167       0.430000   0.0000000   1.0000000   0.0000000
                168       0.100000   0.0000000   0.0000000   1.0000000

 NA#4  1    S   
+               169   26041.109927   0.0006181   0.0000000   0.0000000   0.0000000   0.0000000
                170    3906.126855   0.0047749   0.0000000   0.0000000   0.0000000   0.0000000
                171     888.974550   0.0244717   0.0000000   0.0000000   0.0000000   0.0000000
                172     251.454980   0.0947554   0.0000000   0.0000000   0.0000000   0.0000000
                173      81.650144   0.2686750   0.0000000   0.0000000   0.0000000   0.0000000
                174      28.904158   0.4792548   0.0000000   0.0000000   0.0000000   0.0000000
                175      10.625783   0.3324859   0.0000000   0.0000000   0.0000000   0.0000000
                176      53.769410   0.0000000   0.0195277   0.0000000   0.0000000   0.0000000
                177      16.308243   0.0000000   0.0926480   0.0000000   0.0000000   0.0000000
                178       2.373038   0.0000000  -0.3993867   0.0000000   0.0000000   0.0000000
                179       0.957308   0.0000000   0.0000000   1.6428595   0.0000000   0.0000000
                180       0.408065   0.0000000   0.0000000   0.5569260   0.0000000   0.0000000
                181       0.049968   0.0000000   0.0000000   0.0000000   1.0000000   0.0000000
                182       0.019269   0.0000000   0.0000000   0.0000000   0.0000000   1.0000000

 NA#4  1    X   
+               183     138.079800   0.0057952   0.0000000   0.0000000   0.0000000
                184      32.232700   0.0416208   0.0000000   0.0000000   0.0000000
                185       9.981608   0.1628192   0.0000000   0.0000000   0.0000000
                186       3.482203   0.3601178   0.0000000   0.0000000   0.0000000
                187       1.229913   0.4485898   0.0000000   0.0000000   0.0000000
                188       0.417440   0.0000000   0.2304076   0.0000000   0.0000000
                189       0.030000   0.0000000   0.0000000   1.0000000   0.0000000
                190       0.091000   0.0000000   0.0000000   0.0000000   1.0000000

 NA#4  1    Y   
+               191     138.079800   0.0057952   0.0000000   0.0000000   0.0000000
                192      32.232700   0.0416208   0.0000000   0.0000000   0.0000000
                193       9.981608   0.1628192   0.0000000   0.0000000   0.0000000
                194       3.482203   0.3601178   0.0000000   0.0000000   0.0000000
                195       1.229913   0.4485898   0.0000000   0.0000000   0.0000000
                196       0.417440   0.0000000   0.2304076   0.0000000   0.0000000
                197       0.030000   0.0000000   0.0000000   1.0000000   0.0000000
                198       0.091000   0.0000000   0.0000000   0.0000000   1.0000000

 NA#4  1    Z   
+               199     138.079800   0.0057952   0.0000000   0.0000000   0.0000000
                200      32.232700   0.0416208   0.0000000   0.0000000   0.0000000
                201       9.981608   0.1628192   0.0000000   0.0000000   0.0000000
                202       3.482203   0.3601178   0.0000000   0.0000000   0.0000000
                203       1.229913   0.4485898   0.0000000   0.0000000   0.0000000
                204       0.417440   0.0000000   0.2304076   0.0000000   0.0000000
                205       0.030000   0.0000000   0.0000000   1.0000000   0.0000000
                206       0.091000   0.0000000   0.0000000   0.0000000   1.0000000

 NA#4  1    XX  
+               207       2.609000   1.0000000   0.0000000   0.0000000
                208       0.430000   0.0000000   1.0000000   0.0000000
                209       0.100000   0.0000000   0.0000000   1.0000000

 NA#4  1    XY  
+               210       2.609000   1.0000000   0.0000000   0.0000000
                211       0.430000   0.0000000   1.0000000   0.0000000
                212       0.100000   0.0000000   0.0000000   1.0000000

 NA#4  1    XZ  
+               213       2.609000   1.0000000   0.0000000   0.0000000
                214       0.430000   0.0000000   1.0000000   0.0000000
                215       0.100000   0.0000000   0.0000000   1.0000000

 NA#4  1    YY  
+               216       2.609000   1.0000000   0.0000000   0.0000000
                217       0.430000   0.0000000   1.0000000   0.0000000
                218       0.100000   0.0000000   0.0000000   1.0000000

 NA#4  1    YZ  
+               219       2.609000   1.0000000   0.0000000   0.0000000
                220       0.430000   0.0000000   1.0000000   0.0000000
                221       0.100000   0.0000000   0.0000000   1.0000000

 NA#4  1    ZZ  
+               222       2.609000   1.0000000   0.0000000   0.0000000
                223       0.430000   0.0000000   1.0000000   0.0000000
                224       0.100000   0.0000000   0.0000000   1.0000000
140128
  1  2  3  4  5  6  7  8  9 10 11 12 13 14 15 16 17 18 19 20 21 22 23 24 25
 26 27 28 29 30 31 32********* 33 34 35 36 37 38 39 40 41 42 43 44 45 46 47
 48 49 50 51 52 53 54 55 56 57 58 59 60 61 62 63 64********* 65 66 67 68 69
 70 71 72 73 74 75 76 77 78 79 80 81 82 83 84 85 86 87 88 89 90 91 92 93 94
 95 96********* 97 98 99100101102103104105106107108109110111112113114115116
117118119120121122123124125126127128*********
1

             SYMMETRY TRANSFORMATION INFO
            128 SYMMETRY ADAPTED BASIS FUNCTIONS 


          irreducible representation number 1

    1    1  NA#1     1s     1   1   1.0
    2    2  NA#1     1s     1   2   1.0
    3    3  NA#1     1s     1   3   1.0
    4    4  NA#1     1s     1   4   1.0
    5    5  NA#1     1s     1   5   1.0
    6    6  NA#1     2px    1   6   1.0
    7    7  NA#1     2px    1   7   1.0
    8    8  NA#1     2px    1   8   1.0
    9    9  NA#1     2px    1   9   1.0
   10   10  NA#1     2py    1  10   1.0
   11   11  NA#1     2py    1  11   1.0
   12   12  NA#1     2py    1  12   1.0
   13   13  NA#1     2py    1  13   1.0
   14   14  NA#1     2pz    1  14   1.0
   15   15  NA#1     2pz    1  15   1.0
   16   16  NA#1     2pz    1  16   1.0
   17   17  NA#1     2pz    1  17   1.0
   18   18  NA#1     3d2-   3  18  -1.0  27  -1.0  33   2.0
   19   19  NA#1     3d2-   3  19  -1.0  28  -1.0  34   2.0
   20   20  NA#1     3d2-   3  20  -1.0  29  -1.0  35   2.0
   21   21  NA#1     3d1-   1  21   1.0
   22   22  NA#1     3d1-   1  22   1.0
   23   23  NA#1     3d1-   1  23   1.0
   24   24  NA#1     3d0    1  24   1.0
   25   25  NA#1     3d0    1  25   1.0
   26   26  NA#1     3d0    1  26   1.0
   27   27  NA#1     3d1+   2  18   1.0  27  -1.0
   28   28  NA#1     3d1+   2  19   1.0  28  -1.0
   29   29  NA#1     3d1+   2  20   1.0  29  -1.0
   30   30  NA#1     3d2+   1  30   1.0
   31   31  NA#1     3d2+   1  31   1.0
   32   32  NA#1     3d2+   1  32   1.0
   33   33  NA#2     1s     1  36   1.0
   34   34  NA#2     1s     1  37   1.0
   35   35  NA#2     1s     1  38   1.0
   36   36  NA#2     1s     1  39   1.0
   37   37  NA#2     1s     1  40   1.0
   38   38  NA#2     2px    1  41   1.0
   39   39  NA#2     2px    1  42   1.0
   40   40  NA#2     2px    1  43   1.0
   41   41  NA#2     2px    1  44   1.0
   42   42  NA#2     2py    1  45   1.0
   43   43  NA#2     2py    1  46   1.0
   44   44  NA#2     2py    1  47   1.0
   45   45  NA#2     2py    1  48   1.0
   46   46  NA#2     2pz    1  49   1.0
   47   47  NA#2     2pz    1  50   1.0
   48   48  NA#2     2pz    1  51   1.0
   49   49  NA#2     2pz    1  52   1.0
   50   50  NA#2     3d2-   3  53  -1.0  62  -1.0  68   2.0
   51   51  NA#2     3d2-   3  54  -1.0  63  -1.0  69   2.0
   52   52  NA#2     3d2-   3  55  -1.0  64  -1.0  70   2.0
   53   53  NA#2     3d1-   1  56   1.0
   54   54  NA#2     3d1-   1  57   1.0
   55   55  NA#2     3d1-   1  58   1.0
   56   56  NA#2     3d0    1  59   1.0
   57   57  NA#2     3d0    1  60   1.0
   58   58  NA#2     3d0    1  61   1.0
   59   59  NA#2     3d1+   2  53   1.0  62  -1.0
   60   60  NA#2     3d1+   2  54   1.0  63  -1.0
   61   61  NA#2     3d1+   2  55   1.0  64  -1.0
   62   62  NA#2     3d2+   1  65   1.0
   63   63  NA#2     3d2+   1  66   1.0
   64   64  NA#2     3d2+   1  67   1.0
   65   65  NA#3     1s     1  71   1.0
   66   66  NA#3     1s     1  72   1.0
   67   67  NA#3     1s     1  73   1.0
   68   68  NA#3     1s     1  74   1.0
   69   69  NA#3     1s     1  75   1.0
   70   70  NA#3     2px    1  76   1.0
   71   71  NA#3     2px    1  77   1.0
   72   72  NA#3     2px    1  78   1.0
   73   73  NA#3     2px    1  79   1.0
   74   74  NA#3     2py    1  80   1.0
   75   75  NA#3     2py    1  81   1.0
   76   76  NA#3     2py    1  82   1.0
   77   77  NA#3     2py    1  83   1.0
   78   78  NA#3     2pz    1  84   1.0
   79   79  NA#3     2pz    1  85   1.0
   80   80  NA#3     2pz    1  86   1.0
   81   81  NA#3     2pz    1  87   1.0
   82   82  NA#3     3d2-   3  88  -1.0  97  -1.0 103   2.0
   83   83  NA#3     3d2-   3  89  -1.0  98  -1.0 104   2.0
   84   84  NA#3     3d2-   3  90  -1.0  99  -1.0 105   2.0
   85   85  NA#3     3d1-   1  91   1.0
   86   86  NA#3     3d1-   1  92   1.0
   87   87  NA#3     3d1-   1  93   1.0
   88   88  NA#3     3d0    1  94   1.0
   89   89  NA#3     3d0    1  95   1.0
   90   90  NA#3     3d0    1  96   1.0
   91   91  NA#3     3d1+   2  88   1.0  97  -1.0
   92   92  NA#3     3d1+   2  89   1.0  98  -1.0
   93   93  NA#3     3d1+   2  90   1.0  99  -1.0
   94   94  NA#3     3d2+   1 100   1.0
   95   95  NA#3     3d2+   1 101   1.0
   96   96  NA#3     3d2+   1 102   1.0
   97   97  NA#4     1s     1 106   1.0
   98   98  NA#4     1s     1 107   1.0
   99   99  NA#4     1s     1 108   1.0
  100  100  NA#4     1s     1 109   1.0
  101  101  NA#4     1s     1 110   1.0
  102  102  NA#4     2px    1 111   1.0
  103  103  NA#4     2px    1 112   1.0
  104  104  NA#4     2px    1 113   1.0
  105  105  NA#4     2px    1 114   1.0
  106  106  NA#4     2py    1 115   1.0
  107  107  NA#4     2py    1 116   1.0
  108  108  NA#4     2py    1 117   1.0
  109  109  NA#4     2py    1 118   1.0
  110  110  NA#4     2pz    1 119   1.0
  111  111  NA#4     2pz    1 120   1.0
  112  112  NA#4     2pz    1 121   1.0
  113  113  NA#4     2pz    1 122   1.0
  114  114  NA#4     3d2-   3 123  -1.0 132  -1.0 138   2.0
  115  115  NA#4     3d2-   3 124  -1.0 133  -1.0 139   2.0
  116  116  NA#4     3d2-   3 125  -1.0 134  -1.0 140   2.0
  117  117  NA#4     3d1-   1 126   1.0
  118  118  NA#4     3d1-   1 127   1.0
  119  119  NA#4     3d1-   1 128   1.0
  120  120  NA#4     3d0    1 129   1.0
  121  121  NA#4     3d0    1 130   1.0
  122  122  NA#4     3d0    1 131   1.0
  123  123  NA#4     3d1+   2 123   1.0 132  -1.0
  124  124  NA#4     3d1+   2 124   1.0 133  -1.0
  125  125  NA#4     3d1+   2 125   1.0 134  -1.0
  126  126  NA#4     3d2+   1 135   1.0
  127  127  NA#4     3d2+   1 136   1.0
  128  128  NA#4     3d2+   1 137   1.0
  Nuclear repulsion energy :  103.1968089796 a.u.
  required memory for a1 array                5106434  words 
  required memory for a2 array                2269589  words 
 @GETMEM-I,  Allocated      71 MB of main memory.
  @MOLECU-I, One electron integrals (CPU/WALL):        0.06/       0.07 seconds.
  @TWOEL-I,   25520617 integrals of symmetry type  I I I I
  @TWOEL-I, Total number of 2-e integrals   25520617.
  @MOLECU-I, Two electron integrals (CPU/WALL):        6.17/       6.33 seconds.
  @CHECKOUT-I, Total execution time (CPU/WALL):        6.69/       7.26 seconds.
--executable xvmol finished with status     0 in        7.37 seconds (walltime).
 --invoking executable--
/home/nike/cfour_v2.00beta/cfour_v2.00beta/bin/xvmol2ja
 @GETMEM-I,  Allocated   11444 MB of main memory.
  @CHECKOUT-I, Total execution time (CPU/WALL):        0.02/       0.02 seconds.
--executable xvmol2ja finished with status     0 in        0.12 seconds (walltime).
 --invoking executable--
/home/nike/cfour_v2.00beta/cfour_v2.00beta/bin/xvscf
  There are  128 functions in the AO basis.

  There are 1 irreducible representations.

       Irrep        # of functions
         1                128


  Parameters for SCF calculation: 
        SCF reference function:  RHF  
  Maximum number of iterations: ****
     Full symmetry point group: C1  
     Computational point group: C1  
        Initial density matrix: MOREAD                 
     SCF convergence tolerance: 10**(-12)
  DIIS convergence acceleration:  ON
          Latest start for DIIS:   5
                     DIIS order:   6

  Memory information:     826055 words required.
  Fock matrices are constructed from AO integral file.
 @GETMEM-I,  Allocated       6 MB of main memory.
  Initialization and symmetry analysis required      0.017 seconds.

  @INITGES-I, Occupancies from core Hamiltonian:

          Alpha population by irrep:  22
           Beta population by irrep:  22


 total no. of electrons in initial guess :  0.000000000000000E+000
  --------------------------------------------------------------------
  Iteration         Total Energy            Largest Density Difference
  --------------------------------------------------------------------
       0           103.196808979584858              0.0000000000D+00
  processed               25520617  ao basis integrals from 
                 42535  buffers.
       1          -615.777032566382672              0.2723791066D+01
  processed               25520617  ao basis integrals from 
                 42535  buffers.
       2          -590.986508774658432              0.3383103268D+02
  processed               25520617  ao basis integrals from 
                 42535  buffers.
       3          -558.895727188789010              0.3382623351D+02
  processed               25520617  ao basis integrals from 
                 42535  buffers.
       4          -505.703129970203804              0.9391848796D+01
 
 sum over diagonal and offdiagdiagonal of C(T)*S*C for irrep
                     1
  1.245670233629426E-012 -2.424188787517473E-013
 reorthoganalization of MOs is carried out
 sum over diagonal and offdiagdiagonal of C(T)*S*C for irrep
                     1
  3.375077994860476E-014  2.757769436125971E-013
  processed               25520617  ao basis integrals from 
                 42535  buffers.
       5          -484.781175332156295              0.3559388267D+01
  processed               25520617  ao basis integrals from 
                 42535  buffers.
       6          -642.292295588744764              0.9050994610D+01
  processed               25520617  ao basis integrals from 
                 42535  buffers.
       7          -644.661315739158567              0.2182064459D+01
  processed               25520617  ao basis integrals from 
                 42535  buffers.
       8          -646.141591984401202              0.4714233677D+01
  processed               25520617  ao basis integrals from 
                 42535  buffers.
       9          -647.294480087263310              0.9373415424D+01
 
 sum over diagonal and offdiagdiagonal of C(T)*S*C for irrep
                     1
  1.224909063068935E-012  8.161103227777993E-013
 reorthoganalization of MOs is carried out
 sum over diagonal and offdiagdiagonal of C(T)*S*C for irrep
                     1
 -1.398881011027697E-014 -9.986381571045417E-014
  processed               25520617  ao basis integrals from 
                 42535  buffers.
      10          -647.337482615273530              0.8633180631D+00
  processed               25520617  ao basis integrals from 
                 42535  buffers.
      11          -647.343804157477280              0.1145027329D+00
  processed               25520617  ao basis integrals from 
                 42535  buffers.
      12          -647.352188792301376              0.7099352097D-01
  processed               25520617  ao basis integrals from 
                 42535  buffers.
      13          -647.349279490268032              0.3070116999D-01
  processed               25520617  ao basis integrals from 
                 42535  buffers.
      14          -647.335834760273997              0.1652555192D+00
 
[...]
-----------------------------------------------------------------------------
  W(mnij) AB contribution =  0.1356250542 a.u.
  W(abef) AB contribution =  0.1341850168 a.u.
  W(mbej) AB contribution = -0.4218645166 a.u.
   After 136 iterations, amplitude changes are:
    -------------------------------------------------------------------
                 Spin      RMS          Max.      Max. change for
     Amplitude   Case     Change       Change       i    j    a    b
    -------------------------------------------------------------------
        T1        AA    0.0000000000 0.0000000012   18        19
        T2        AA    0.0000000000 0.0000000010   18   17   22   19
        T2        AB    0.0000000000-0.0000000024   18   18   19   19
    -------------------------------------------------------------------
   The AA contribution to the correlation energy is:   -0.0912667 a.u.
   The AB contribution to the correlation energy is:   -0.5629500 a.u.
   The total correlation energy is -0.745483386315 a.u.
   The total correlation energy is -0.745483386315 a.u.
  Current DIIS expansion coefficients : 
 [   1] 2.8429861948 [   2] 1.0317775012 [   3]-9.5127736852 [   4] 8.4971346899
 [   5]-1.8591247006
  Convergence information after   136 iterations: 
  Largest element of residual vector : -0.24330542E-08.
  Largest element of DIIS residual   :  0.17757443E-08.
  W(mnij) AB contribution =  0.1356250566 a.u.
  W(abef) AB contribution =  0.1341850195 a.u.
  W(mbej) AB contribution = -0.4218645285 a.u.
   After 137 iterations, amplitude changes are:
    -------------------------------------------------------------------
                 Spin      RMS          Max.      Max. change for
     Amplitude   Case     Change       Change       i    j    a    b
    -------------------------------------------------------------------
        T1        AA    0.0000000000 0.0000000017   18        19
        T2        AA    0.0000000000-0.0000000001   18   17   23   22
        T2        AB    0.0000000000-0.0000000025   18   18   19   19
    -------------------------------------------------------------------
   The AA contribution to the correlation energy is:   -0.0912667 a.u.
   The AB contribution to the correlation energy is:   -0.5629500 a.u.
   The total correlation energy is -0.745483386705 a.u.
   The total correlation energy is -0.745483386705 a.u.
  Current DIIS expansion coefficients : 
 [   1] 0.9192487491 [   2] 0.8933955880 [   3]-0.4041653342 [   4] 0.8142949506
 [   5]-1.2227739535
  Convergence information after   137 iterations: 
  Largest element of residual vector : -0.24725839E-08.
  Largest element of DIIS residual   :  0.11872437E-08.
  W(mnij) AB contribution =  0.1356250572 a.u.
  W(abef) AB contribution =  0.1341850201 a.u.
  W(mbej) AB contribution = -0.4218645315 a.u.
   After 138 iterations, amplitude changes are:
    -------------------------------------------------------------------
                 Spin      RMS          Max.      Max. change for
     Amplitude   Case     Change       Change       i    j    a    b
    -------------------------------------------------------------------
        T1        AA    0.0000000000 0.0000000006   18        19
        T2        AA    0.0000000000-0.0000000000   18   17   23   22
        T2        AB    0.0000000000-0.0000000013   18   18   19   19
    -------------------------------------------------------------------
   The AA contribution to the correlation energy is:   -0.0912667 a.u.
   The AB contribution to the correlation energy is:   -0.5629500 a.u.
   The total correlation energy is -0.745483386707 a.u.
   The total correlation energy is -0.745483386707 a.u.
  Current DIIS expansion coefficients : 
 [   1] 0.3300938469 [   2]-0.2364330796 [   3] 1.1818160050 [   4] 0.2886303827
 [   5]-0.5641071549
  Convergence information after   138 iterations: 
  Largest element of residual vector : -0.13066997E-08.
  Largest element of DIIS residual   :  0.90289473E-09.
  W(mnij) AB contribution =  0.1356250574 a.u.
  W(abef) AB contribution =  0.1341850204 a.u.
  W(mbej) AB contribution = -0.4218645326 a.u.
   After 139 iterations, amplitude changes are:
    -------------------------------------------------------------------
                 Spin      RMS          Max.      Max. change for
     Amplitude   Case     Change       Change       i    j    a    b
    -------------------------------------------------------------------
        T1        AA    0.0000000000 0.0000000007   18        19
        T2        AA    0.0000000000-0.0000000001   18   17   22   19
        T2        AB    0.0000000000-0.0000000008   18   18   19   19
    -------------------------------------------------------------------
   The AA contribution to the correlation energy is:   -0.0912667 a.u.
   The AB contribution to the correlation energy is:   -0.5629500 a.u.
   The total correlation energy is -0.745483386706 a.u.
   The total correlation energy is -0.745483386706 a.u.
  Current DIIS expansion coefficients : 
 [   1]-0.0293711619 [   2]-0.8331790890 [   3]-0.1488026278 [   4] 1.8770859193
 [   5] 0.1342669595
  Convergence information after   139 iterations: 
  Largest element of residual vector : -0.84244839E-09.
  Largest element of DIIS residual   :  0.38631392E-09.
  Amplitude equations converged in   139iterations.
   The AA contribution to the correlation energy is:   -0.0912667 a.u.
   The AB contribution to the correlation energy is:   -0.5629500 a.u.
   The total correlation energy is -0.745483386668 a.u.
   The total correlation energy is -0.745483386668 a.u.
   The CC iterations have converged.

   Largest T1 amplitudes for spin case AA:
   i       a                 i       a                 i       a    
-----------------------------------------------------------------------------
[ 18      30    ] 0.05686 [ 17      25    ] 0.05500 [ 18      36    ] 0.03048
[ 18      26    ]-0.02976 [ 17      31    ] 0.02460 [ 17      33    ]-0.02097
[ 17      20    ]-0.02076 [ 17      46    ]-0.01790 [ 17      34    ]-0.01566
[ 17      41    ]-0.01335 [ 18      42    ]-0.01081 [ 17      60    ]-0.00752
[ 18      56    ] 0.00701 [ 18      19    ]-0.00676 [ 17      57    ]-0.00659
-----------------------------------------------------------------------------
   Norm of T1AA vector (     1908 symmetry allowed elements):  0.1091663073.
-----------------------------------------------------------------------------
   Largest T2 amplitudes for spin case AB:
       _       _                 _       _                 _       _
   i   j   a   b             i   j   a   b             i   j   a   b
-----------------------------------------------------------------------------
[ 18  18  19  19] 0.29566 [ 17  17  19  19]-0.23882 [ 18  18  22  22]-0.22936
[ 17  17  23  19]-0.11996 [ 17  17  19  23]-0.11996 [ 18  18  25  25]-0.11003
[ 18  17  19  22]-0.10686 [ 17  18  22  19]-0.10686 [ 18  18  20  20]-0.09729
[ 18  17  22  19]-0.08102 [ 17  18  19  22]-0.08102 [ 18  18  21  21]-0.07719
[ 18  18  34  22]-0.06451 [ 18  18  22  34]-0.06451 [ 17  17  23  23]-0.06409
-----------------------------------------------------------------------------
   Norm of T2AB vector (  3640464 symmetry allowed elements):  0.7012435499.
-----------------------------------------------------------------------------
       Summary of iterative solution of CC equations 
      -----------------------------------------------------------
                       Correlation           Total
       Iteration         Energy              Energy
      -----------------------------------------------------------
            0        -0.712745873721    -648.047643908638  DIIS 
            1        -0.731473159144    -648.066371194061  DIIS 
            2        -0.743342761088    -648.078240796004  DIIS 
            3        -0.745450730348    -648.080348765265  DIIS 
            4        -0.745656829026    -648.080554863943  DIIS 
            5        -0.742057134430    -648.076955169347  DIIS 
            6        -0.744457631552    -648.079355666469  DIIS 
            7        -0.744704862664    -648.079602897581  DIIS 
            8        -0.744898521950    -648.079796556867  DIIS 
            9        -0.745091691052    -648.079989725968  DIIS 
           10        -0.745242897515    -648.080140932432  DIIS 
           11        -0.744998581937    -648.079896616854  DIIS 
           12        -0.745338470873    -648.080236505790  DIIS 
           13        -0.745555680456    -648.080453715373  DIIS 
           14        -0.745558553727    -648.080456588644  DIIS 
           15        -0.745568507721    -648.080466542638  DIIS 
           16        -0.745514747307    -648.080412782224  DIIS 
           17        -0.745576825464    -648.080474860381  DIIS 
           18        -0.745541978469    -648.080440013386  DIIS 
           19        -0.745641824309    -648.080539859226  DIIS 
           20        -0.745610254306    -648.080508289223  DIIS 
           21        -0.745629507058    -648.080527541975  DIIS 
           22        -0.745635171748    -648.080533206665  DIIS 
           23        -0.745667686733    -648.080565721650  DIIS 
           24        -0.745607399562    -648.080505434479  DIIS 
           25        -0.745532679172    -648.080430714089  DIIS 
           26        -0.745515747595    -648.080413782512  DIIS 
           27        -0.745522498288    -648.080420533204  DIIS 
           28        -0.745520189511    -648.080418224428  DIIS 
           29        -0.745473188425    -648.080371223342  DIIS 
           30        -0.745440095949    -648.080338130866  DIIS 
           31        -0.745420223457    -648.080318258374  DIIS 
           32        -0.745426179049    -648.080324213966  DIIS 
           33        -0.745465144447    -648.080363179363  DIIS 
           34        -0.745460579360    -648.080358614277  DIIS 
           35        -0.745461358154    -648.080359393071  DIIS 
           36        -0.745473674480    -648.080371709397  DIIS 
           37        -0.745437217782    -648.080335252699  DIIS 
           38        -0.745438149737    -648.080336184654  DIIS 
           39        -0.745460865473    -648.080358900390  DIIS 
           40        -0.745463557012    -648.080361591929  DIIS 
           41        -0.745464699068    -648.080362733985  DIIS 
           42        -0.745463056746    -648.080361091663  DIIS 
           43        -0.745459193883    -648.080357228799  DIIS 
           44        -0.745459129407    -648.080357164324  DIIS 
           45        -0.745476021269    -648.080374056186  DIIS 
           46        -0.745482112337    -648.080380147254  DIIS 
           47        -0.745483318218    -648.080381353135  DIIS 
           48        -0.745483834160    -648.080381869077  DIIS 
           49        -0.745482758449    -648.080380793366  DIIS 
           50        -0.745483533818    -648.080381568735  DIIS 
           51        -0.745483200499    -648.080381235416  DIIS 
           52        -0.745483037500    -648.080381072417  DIIS 
           53        -0.745482900012    -648.080380934929  DIIS 
           54        -0.745482992102    -648.080381027019  DIIS 
           55        -0.745482985191    -648.080381020108  DIIS 
           56        -0.745482898301    -648.080380933218  DIIS 
           57        -0.745482980670    -648.080381015587  DIIS 
           58        -0.745483276176    -648.080381311093  DIIS 
           59        -0.745483399228    -648.080381434145  DIIS 
           60        -0.745483546154    -648.080381581071  DIIS 
           61        -0.745483469636    -648.080381504553  DIIS 
           62        -0.745483315692    -648.080381350609  DIIS 
           63        -0.745483277648    -648.080381312564  DIIS 
           64        -0.745483465170    -648.080381500087  DIIS 
           65        -0.745483494118    -648.080381529035  DIIS 
           66        -0.745483476800    -648.080381511717  DIIS 
           67        -0.745483406341    -648.080381441258  DIIS 
           68        -0.745483372872    -648.080381407789  DIIS 
           69        -0.745483358196    -648.080381393113  DIIS 
           70        -0.745483398752    -648.080381433669  DIIS 
           71        -0.745483404127    -648.080381439044  DIIS 
           72        -0.745483366686    -648.080381401603  DIIS 
           73        -0.745483368099    -648.080381403016  DIIS 
           74        -0.745483359273    -648.080381394190  DIIS 
           75        -0.745483365640    -648.080381400557  DIIS 
           76        -0.745483369150    -648.080381404067  DIIS 
           77        -0.745483372665    -648.080381407582  DIIS 
           78        -0.745483378091    -648.080381413008  DIIS 
           79        -0.745483381029    -648.080381415946  DIIS 
           80        -0.745483380930    -648.080381415847  DIIS 
           81        -0.745483379470    -648.080381414387  DIIS 
           82        -0.745483382111    -648.080381417028  DIIS 
           83        -0.745483382774    -648.080381417691  DIIS 
           84        -0.745483382544    -648.080381417461  DIIS 
           85        -0.745483382049    -648.080381416966  DIIS 
           86        -0.745483381809    -648.080381416726  DIIS 
           87        -0.745483381960    -648.080381416877  DIIS 
           88        -0.745483381261    -648.080381416177  DIIS 
           89        -0.745483379514    -648.080381414431  DIIS 
           90        -0.745483375931    -648.080381410848  DIIS 
           91        -0.745483376768    -648.080381411685  DIIS 
           92        -0.745483385602    -648.080381420519  DIIS 
           93        -0.745483391119    -648.080381426036  DIIS 
           94        -0.745483387368    -648.080381422285  DIIS 
           95        -0.745483387249    -648.080381422166  DIIS 
           96        -0.745483386274    -648.080381421191  DIIS 
           97        -0.745483382786    -648.080381417703  DIIS 
           98        -0.745483377446    -648.080381412363  DIIS 
           99        -0.745483374552    -648.080381409469  DIIS 
          100        -0.745483375012    -648.080381409929  DIIS 
          101        -0.745483375017    -648.080381409933  DIIS 
          102        -0.745483375000    -648.080381409917  DIIS 
          103        -0.745483375783    -648.080381410700  DIIS 
          104        -0.745483376014    -648.080381410931  DIIS 
          105        -0.745483377734    -648.080381412651  DIIS 
          106        -0.745483380482    -648.080381415399  DIIS 
          107        -0.745483383420    -648.080381418337  DIIS 
          108        -0.745483383570    -648.080381418487  DIIS 
          109        -0.745483383381    -648.080381418298  DIIS 
          110        -0.745483384490    -648.080381419407  DIIS 
          111        -0.745483384756    -648.080381419673  DIIS 
          112        -0.745483383905    -648.080381418822  DIIS 
          113        -0.745483385818    -648.080381420735  DIIS 
          114        -0.745483388216    -648.080381423133  DIIS 
          115        -0.745483388461    -648.080381423378  DIIS 
          116        -0.745483387623    -648.080381422540  DIIS 
          117        -0.745483386251    -648.080381421168  DIIS 
          118        -0.745483386257    -648.080381421174  DIIS 
          119        -0.745483386366    -648.080381421283  DIIS 
          120        -0.745483386392    -648.080381421309  DIIS 
          121        -0.745483386305    -648.080381421222  DIIS 
          122        -0.745483386447    -648.080381421364  DIIS 
          123        -0.745483386488    -648.080381421404  DIIS 
          124        -0.745483386512    -648.080381421429  DIIS 
          125        -0.745483386480    -648.080381421397  DIIS 
          126        -0.745483386502    -648.080381421419  DIIS 
          127        -0.745483386554    -648.080381421471  DIIS 
          128        -0.745483386694    -648.080381421611  DIIS 
          129        -0.745483386540    -648.080381421457  DIIS 
          130        -0.745483386362    -648.080381421279  DIIS 
          131        -0.745483386455    -648.080381421372  DIIS 
          132        -0.745483386398    -648.080381421315  DIIS 
          133        -0.745483386376    -648.080381421293  DIIS 
          134        -0.745483386420    -648.080381421336  DIIS 
          135        -0.745483386336    -648.080381421253  DIIS 
          136        -0.745483386315    -648.080381421232  DIIS 
          137        -0.745483386705    -648.080381421622  DIIS 
          138        -0.745483386707    -648.080381421624  DIIS 
          139        -0.745483386668    -648.080381421585  DIIS 
      -----------------------------------------------------------
      A miracle has come to pass. The CC iterations have converged.
 @DIMT3-I, Dimensions of T3 amplitudes : 
               # abc          # ijk       Symmetry    Spin 
                   192920            816     1          1
                   589890           2754     1          2
                   589890           2754     1          3
                   192920            816     1          4
 @DIMT3-I, Dimensions of T3 amplitudes : 
               # abc          # ijk       Symmetry    Spin 
                   192920            816     1          1
                   589890           2754     1          2
                   589890           2754     1          3
                   192920            816     1          4
 @TRPS-I, Welcome to TRPS. Watch your RUs ! 
 @TRPS-I, Method is CCSD(T) 
 @TRPS-I, Calculation type is energy 
 @TRPS-I, Reference function information : 
          Reference function is Hartree-Fock 
          Reference function is RHF Hartree-Fock 
 @TRPS-I, INT1 is true 
 @TRPS-I, INT2 is false 
 @TRPS-I, Lengths of ijka integrals. #1     291924
                                     #2     291924
                                     #3     618192
                                     #4     618192
                                    Max     618192
 @INITRP-I, Initializing W intermediate lists. 
 @SETOOOV-I, Some OOOV lists are being transposed. 
 @TRPS-I, Available memory in integer words   1499959040
          Number of pre-allocated words for TRPS2       856741
          Number of free words for TRPS2   1499102299
 @TRPS2-I, Spin case AAB 
 @TRPS2-I, Number of free integer words 1499102299
           Number of free double  words 1499102299
           Ratio                                 1
 @TRPS2-I, E4TBAA      -0.011210062410
  @TRPS2-I, E4TAAA  -3.286090578595339E-004
 @TRPS2-I, E5ST A    0.000461959230974
 @TRPS2-I, E5ST B    0.000245976635015
 @SETOOOV-I, Some OOOV lists are being transposed. 
 @CCENRG-I, CCSD/QCISD energy will now be evaluated. 
 @CCENRG-I, Correlation energies. ECCAA       -0.091266716566
                                  ECCBB        0.000000000000
                                  ECCAB       -0.562949953536
                                  Total       -0.745483386668
 @CCENRG-I, Reference   energy    -647.334898034917
            CCSD/QCISD energy     -648.080381421585
          E4T (T(CCSD)) = -0.023077342935
          E5ST          =  0.001415871732
          E4ST          =  0.000000000000
          In other words  
          <T3[2](Dagger) D3  T3[2]> = -0.023077342935
          <T1   (Dagger) Q1 WT3[2]> =  0.001415871732
          <T2   (Dagger) Q2 FT3[2]> =  0.000000000000
        E(CCSD)           =    -648.080381421585
        E(CCSD + T(CCSD)) =    -648.103458764521
        E(CCSD(T))        =    -648.102042892789
  @CHECKOUT-I, Total execution time (CPU/WALL):     1232.40/    1240.84 seconds.
--executable xvcc finished with status     0 in     1240.99 seconds (walltime).
  The final electronic energy is      -648.102042892788631 a.u. 
  This computation required                         1601.55 seconds (walltime).
