 --invoking executable--
/home/nike/cfour_v2.00beta/bin/xjoda


   *************************************************************************
         <<<     CCCCCC     CCCCCC   |||     CCCCCC     CCCCCC   >>>
       <<<      CCC        CCC       |||    CCC        CCC         >>>
      <<<      CCC        CCC        |||   CCC        CCC            >>>
    <<<        CCC        CCC        |||   CCC        CCC              >>>
      <<<      CCC        CCC        |||   CCC        CCC            >>>
       <<<      CCC        CCC       |||    CCC        CCC         >>>
         <<<     CCCCCC     CCCCCC   |||     CCCCCC     CCCCCC   >>>
   *************************************************************************

     ****************************************************************
     * CFOUR Coupled-Cluster techniques for Computational Chemistry *
     ****************************************************************
 

   Department of Chemistry                Institut fuer Physikalische Chemie
   University of Texas at Austin          Universitaet Mainz
   Austin, TX  78712, USA                 D-55099 Mainz, Germany
 
                       Version 2.00beta
 
                     wob148                                            
                     Sat Jan 26 03:26:46 EST 2019                      
                     integer*8 version is running
 
********************************************************************************
*                          Input from ZMAT file                                *
********************************************************************************
TITLE                                                                           
N                                                                               
                                                                                
*ACES2(CALC=CCSD                                                                
INPUT_MRCC=OFF                                                                  
CC_PROG=MRCC                                                                    
XFORM_TOL=18                                                                    
SAVE_INTS=ON                                                                    
SCF_EXPORDER=6                                                                  
SCF_EXPSTART=5                                                                  
#SCF_DAMPING=1000                                                               
SCF_EXTRAPOLATION=ON                                                            
SCF_CONV=10                                                                     
SCF_MAXCYC=9999                                                                 
CC_CONV=10                                                                      
CC_MAXCYC=999                                                                   
T3_EXTRAPOL=ON                                                                  
REFERENCE=ROHF                                                                  
CHARGE=+0                                                                       
MULT=4                                                                          
ABCDTYPE=STANDARD                                                               
OCCUPATION=2-1-1-0-1-0-0-0/2-0-0-0-0-0-0-0                                      
MEM=52                                                                          
MEM_UNIT=GB                                                                     
BASIS=SPECIAL)                                                                  
                                                                                
N:aCV6Z-EMOLP                                                                   
                                                                                
********************************************************************************
  @GTFLGS-W, Keyword #SCF_DAMPING not known and is ignored.
    -------------------------------------------------------------------
                    CFOUR Control Parameters 
    -------------------------------------------------------------------
        External           Internal           Value            Units
          Name               Name
    -------------------------------------------------------------------
       ABCDTYPE             IABCDT         STANDARD     [  0]   ***   
       ANHARMONIC           IANHAR         OFF          [  0]   ***   
       ANH_ALGORIT          IANALG         STANDARD     [  0]   ***   
       ANH_DERIVAT          IANDER         SECOND       [  1]   ***   
       ANH_STEPSIZ          ICUBST             50000          x 10-6  
       ANH_SYMMETR          IANHSM         ABELIAN      [  0]   ***   
       AO_LADDERS           IAOLAD         SINGLEPASS   [  1]   ***   
       BASIS                IBASIS         SPECIAL      [  0]   ***   
       BREIT                IBREIT         OFF          [  0]   ***   
       BRUCK_CONV           IBRTOL          10D-  4             ***   
       BRUECKNER            IBRKNR             OFF      [  0]   ***   
       BUFFERSIZE           IBUFFS            600               ***   
       CACHE_RECS           ICHREC             10               ***   
       CALCLEVEL            ICLLVL           CCSD       [ 10]   ***   
       CCORBOPT             ICCORB             OFF      [  0] x 0.01  
       CC_CONV              ICCCNV          10D- 10             ***   
       CC_EXPORDER          ICCEOR              5               ***   
       CC_EXTRAPOL          ICCEXT             DIIS     [  1]   ***   
       CC_MAXCYC            ICCCYC            999              cycles 
       CC_PROGRAM           ICCPRO         MRCC         [  2]   ***   
       CHARGE               ICHRGE              0               ***   
       CHOLESKY             ICHOLE         OFF          [  0]   ***   
       CIS_CONV             ICISTL              5               ***   
       COMM_SIZE            IPSIZE            ***               ***   
       CONSTANT             ICONST         OLD          [  1]   ***   
       CONTINUUM            ICONTU         NONE         [  0]   ***   
       CONTRACTION          ICNTYP          GENERAL     [  1]   ***   
       COORDINATES          ICOORD         INTERNAL     [  0]   ***   
       CPHF_CONVER          ICPHFT          10D- 16             ***   
       CPHF_MAXCYC          ICPHFC             64              cycles 
       CUBIC                ICUBIC         OFF          [  0]   ***   
       CURVILINEAR          ICURVY            OFF       [  0]   ***   
       DBOC                 IDBOC          OFF          [  0]   ***   
       DCT                  IDCT           OFF          [  0]   ***   
       DERIV_LEV            IDRLVL            ZERO      [  0]   ***   
       DIAG_MRCC            IEOMST          10D-  0             ***   
       DIFF_TYPE            IDIFTY         RELAXED      [  0]   ***   
       DIRECT               IDIRCT         OFF          [  0]   ***   
       DROPMO               IDRPMO      NONE         
       ECP                  IECP           OFF          [  0]   ***   
       EIGENVECTOR          IVEC                1               ***   
       EL_ANHARM            IELANH         OFF          [  0]   ***   
       EOMFOLLOW            IEOMSR         ENERGY       [  0]   ***   
       EOM_MRCC             IMRCCE         NEW          [  1]   ***   
       EOM_NONIT            EOMNON         OFF          [  0]   ***   
       EOM_NSING            IEOMSI          10D-  0             ***   
       EOM_NSTATES          IMRCCD         DAVIDSON     [  0]   ***   
       EOM_NTRIP            IEOMTR          10D-  0             ***   
       EOM_ORDER            IEXORD         ENERGY       [  0]   ***   
       ESTATE_CONV          IEXTOL          10D-  5             ***   
       ESTATE_DIAG          IEXDIG         ITERATIVE    [  0]   ***   
       ESTATE_LOCK          IESLOC         ON           [  1]   ***   
       ESTATE_MAXC          IEXMXC             20               ***   
       ESTATE_PROP          IEXPRP         OFF          [  0]   ***   
       EVAL_HESS            IRECAL              0            # of cyc.
       EXCITATION           IEXCIT              0               ***   
       EXCITE               IEXCIT         NONE         [  0]   ***   
       FCGRADNEW            IFCGNW         OFF          [  0]   ***   
       FC_FIELD             IFINFC              0             x 10-6  
       FD_CALTYPE           IFDCAL         GRADONLY     [  0]   ***   
       FD_PROJECT           IFDPRJ         OFF          [  1]   ***   
       FD_STEPSIZE          IDISFD              0            10-4 bohr
       FD_USEGROUP          IFDGRP         FULL         [  0]   ***   
       FILE_RECSIZ          IFLREC              4096           words  
       FINITE_PERT          IFIPER              0             x 10-6  
       FIXGEOM              IFIXGM         OFF          [  0]   ***   
       FOCK                 IFOCK          AO           [  1]   ***   
       FREQ_ALGORI          IVIALG         STANDARD     [  0]   ***   
       FROZEN_CORE          IFROCO         OFF          [  0]   ***   
       FROZEN_VIRT          IFROVI         OFF          [  0]   ***   
       GAMMA_ABCD           IGABCD         STORE        [  0]   ***   
       GAMMA_ABCI           IGABCI         STORE        [  0]   ***   
       GENBAS_1             IGNBS1              0               ***   
       GENBAS_2             IGNBS2              0               ***   
       GENBAS_3             IGNBS3              0               ***   
       GENBAS_4             IGNBS4              0               ***   
       GEO_CONV             ICONTL              5              H/bohr 
       GEO_MAXCYC           IOPTCY             50               ***   
       GEO_MAXSTEP          IMXSTP            300            millibohr
       GEO_METHOD           INR            SINGLE_POINT [  5]   ***   
       GIAO                 IGIAO          OFF          [  1]   ***   
       GIMIC                IGIMIC         OFF          [  0]   ***   
       GRID                 IGRID          OFF          [  0]   ***   
       GRID_ALGO            IGALGO         SERIAL       [  0]   ***   
       GUESS                IGUESS            MOREAD    [  0]   ***   
       HBAR                 IHBAR              OFF      [  0]   ***   
       HESS_TYPE            IHESTP         SCF          [  0]   ***   
       HF2_FILE             IHF2Fl         USE          [  1]   ***   
       HFSTABILITY          ISTABL         OFF          [  0]   ***   
       INCORE               INCORE             OFF      [  0]   ***   
       INPUT_MRCC           IMRCC          OFF          [  0]   ***   
       INTEGRALS            INTTYP             VMOL     [  1]   ***   
       JODA_PRINT           IJPRNT              0               ***   
       LINDEP_TOL           ILINDP              8               ***   
       LINEQ_CONV           IZTACN          10D-  7           cycles  
       LINEQ_EXPOR          ILMAXD              5               ***   
       LINEQ_MAXCY          ILMAXC             50               ***   
       LINEQ_TYPE           ILTYPE         DIIS         [  1]   ***   
       LOCK_ORBOCC          ILOCOC             OFF      [  0]   ***   
       MEMORY_SIZE          IMEMSZ         *********           words  
       MEM_UNIT             IMEMU          GB           [  3]   ***   
       MRCC                 IMRCCC         OFF          [  0]   ***   
       MULTIPLICTY          IMULTP              4               ***   
       NEGEVAL              IDIE             ABORT      [  0]   ***   
       NEWNORM              INEWNO         OFF          [  0]   ***   
       NON-HF               INONHF              ON      [  1]   ***   
       NTOP_TAMP            ITOPT2             15               ***   
       NUC_MODEL            INUCMO         POINT        [  0]   ***   
       OCCUPATION           IOCCU  A   2,  1,  1,  0,  1,  0,  0,  0,
                                   B   2,  0,  0,  0,  0,  0,  0,  0,
       OPEN-SHELL           IOPEN          SPIN-ORBITAL [  0]   ***   
       ORBITALS             IORBTP         SEMICANONICAL[  1]   ***   
       PARALLEL             IPARAL         ON           [  1]   ***   
       PARA_INT             IPINTS         ON           [  1]   ***   
       PARA_PRINT           IPPRIN              0               ***   
       PERT_ORB             IPTORB         STANDARD     [  0]   ***   
       POINTS               IGRDFD              0               ***   
       PRINT                IPRNT               0               ***   
       PROPS                IPROPS             OFF      [  0]   ***   
       PROP_INTEGR          IINTYP         INTERNAL     [  0]   ***   
       PSI                  IPSI           OFF          [  0]   ***   
       QUARTIC              IQUART         OFF          [  0]   ***   
       RAMAN_INT            IRAMIN         OFF          [  0]   ***   
       RAMAN_ORB            IRAMRE         UNRELAXED    [  0]   ***   
       RDO                  IRDOFM             OFF      [  0]   ***   
       REFERENCE            IREFNC             ROHF     [  2]   ***   
       RELATIVIST           IRELAT         OFF          [  0]   ***   
       RELAX_DENS           IRDENS             OFF      [  0]   ***   
       RESET_FLAGS          IRESET             OFF      [  0]   ***   
       RESTART_CC           ICCRES         OFF          [  0]   ***   
       ROT_EVEC             ROTVEC              0               ***   
       SAVE_INTS            ISVINT              ON      [  1]   ***   
       SCALE_ON             ISTCRT              0               ***   
       SCF_CONV             ISCFCV          10D- 10             ***   
       SCF_DAMPING          IDAMP               0             x 10-3  
       SCF_EXPORDE          IRPPOR              6               ***   
       SCF_EXPSTAR          IRPPLS              5               ***   
       SCF_EXTRAPO          IRPP                ON      [  1]   ***   
       SCF_MAXCYC           ISCFCY            ***              cycles 
       SCF_NOSTOP           ISCFST         OFF          [  0]   ***   
       SCF_PRINT            ISCFPR              0               ***   
       SD_FIELD             IFINSD              0             x 10-6  
       SEQUENCE             ISEQUE         OFF          [  0]   ***   
       SOPERT               IPERSO         OFF          [  0]   ***   
       SPHERICAL            IDFGHI             ON       [  1]   ***   
       SPINORBIT            ISOCAL         OFF          [  0]   ***   
       SPINROTATIO          ISRCON         OFF          [  0]   ***   
       SPIN_FLIP            ISPFLP         OFF          [  0]   ***   
       SPIN_ORBIT           ISPORB         OFF          [  0]   ***   
       SPIN_SCAL            ISCSMP         OFF          [  0]   ***   
       SUBGROUP             ISUBGP         DEFAULT      [  0]   ***   
       SUBGRPAXIS           ISBXYZ         X            [  0]   ***   
       SYMMETRY             ISYM             ON         [  0]   ***   
       SYM_CHECK            ISYMCK         OVERRIDE     [  1]   ***   
       T3_EXTRAPOL          IT3EXT         ON           [  1]   ***   
       TAMP_SUM             IEVERY              5               ***   
       TESTSUITE            ITESTS         OFF          [  0]   ***   
       THERMOCH             ITHERM         OFF          [  0]   ***   
       TOL_CHOLESK          ITOLCH          10D-  4             ***   
       TRANGRAD             IRESRM         OFF          [  0]   ***   
       TRANS_INV            ITRAIN         USE          [  0]   ***   
       TREAT_PERT           ITREAT         SIMULTANEOUS [  0]   ***   
       UIJ_THRESHO          IUIJTH              1               ***   
       UNITS                IUNITS         ANGSTROM     [  0]   ***   
       UNOS                 IUNOS          OFF          [  0]   ***   
       UPDATE_HESS          IHUPDT         ON           [  1]   ***   
       VIBPHASE             ISETPH         STANDARD     [  0]   ***   
       VIBRATION            IVIB              NO        [  0]   ***   
       VIB_ALGORIT          IGEALG         STANDARD     [  0]   ***   
       VNATORB              IVNORB         OFF          [  0]   ***   
       VTRAN                IVTRAN         FULL/PARTIAL [  0]   ***   
       XFIELD               IXEFLD              0             x 10-6  
       XFORM_TOL            IXFTOL          10D- 18             ***   
       YFIELD               IYEFLD              0             x 10-6  
       ZFIELD               IZEFLD              0             x 10-6  
    -------------------------------------------------------------------
   1 entries found in Z-matrix 
   Job Title : TITLE                                                                           
  1  N          7    14.00307
 factor:   60.1997200000000     
   Rotational constants (in cm-1): 

   Rotational constants (in MHz): 

********************************************************************************
   The full molecular point group is I h .
   The largest Abelian subgroup of the full molecular point group is D2h .
   The computational point group is D2h .
********************************************************************************
  @GTFLGS-W, Keyword #SCF_DAMPING not known and is ignored.
  There are  279 basis functions.
 @GEOPT-W, Archive file not created for single-point calculation.
  @CHECKOUT-I, Total execution time (CPU/WALL):        0.13/       0.49 seconds.
--executable xjoda finished with status     0 in        0.90 seconds (walltime).
 --invoking executable--
/home/nike/cfour_v2.00beta/bin/xvmol
 Serial version of molecule started
********************************************************************************
                    Input from MOL file
********************************************************************************
INTGRL        1    0    1    0    0    0    0    0    0                         
         *** CFOUR Program System (Release V0.1) ***                            
TITLE                                                                           
    1    3 X  Y   Z   0.10E-08              0    0                              
   9999.00      3.00                                                            
          7.00000000    1    7    1    1    1    1    1    1    1               
N #1   0.000000000000000   0.000000000000000   0.000000000000000                
   22   13                                                                      
   432300.000000000       5.500000000000000E-006 -1.200000000000000E-006        
  0.000000000000000E+000  0.000000000000000E+000  0.000000000000000E+000        
  0.000000000000000E+000  0.000000000000000E+000  0.000000000000000E+000        
  0.000000000000000E+000  0.000000000000000E+000  0.000000000000000E+000        
  0.000000000000000E+000  0.000000000000000E+000                                
   64700.0000000000       4.350000000000000E-005 -9.500000000000001E-006        
  0.000000000000000E+000  0.000000000000000E+000  0.000000000000000E+000        
  0.000000000000000E+000  0.000000000000000E+000  0.000000000000000E+000        
  0.000000000000000E+000  0.000000000000000E+000  0.000000000000000E+000        
  0.000000000000000E+000  0.000000000000000E+000                                
   14720.0000000000       2.289000000000000E-004 -5.050000000000000E-005        
  0.000000000000000E+000  0.000000000000000E+000  0.000000000000000E+000        
  0.000000000000000E+000  0.000000000000000E+000  0.000000000000000E+000        
  0.000000000000000E+000  0.000000000000000E+000  0.000000000000000E+000        
  0.000000000000000E+000  0.000000000000000E+000                                
   4170.00000000000       9.650000000000000E-004 -2.126000000000000E-004        
  0.000000000000000E+000  0.000000000000000E+000  0.000000000000000E+000        
  0.000000000000000E+000  0.000000000000000E+000  0.000000000000000E+000        
  0.000000000000000E+000  0.000000000000000E+000  0.000000000000000E+000        
  0.000000000000000E+000  0.000000000000000E+000                                
   1361.00000000000       3.502100000000000E-003 -7.753000000000000E-004        
  0.000000000000000E+000  0.000000000000000E+000  0.000000000000000E+000        
  0.000000000000000E+000  0.000000000000000E+000  0.000000000000000E+000        
  0.000000000000000E+000  0.000000000000000E+000  0.000000000000000E+000        
  0.000000000000000E+000  0.000000000000000E+000                                
   491.200000000000       1.129210000000000E-002 -2.506200000000000E-003        
  0.000000000000000E+000  0.000000000000000E+000  0.000000000000000E+000        
  0.000000000000000E+000  0.000000000000000E+000  0.000000000000000E+000        
  0.000000000000000E+000  0.000000000000000E+000  0.000000000000000E+000        
  0.000000000000000E+000  0.000000000000000E+000                                
   191.600000000000       3.261280000000000E-002 -7.365200000000000E-003        
  0.000000000000000E+000  0.000000000000000E+000  0.000000000000000E+000        
  0.000000000000000E+000  0.000000000000000E+000  0.000000000000000E+000        
  0.000000000000000E+000  0.000000000000000E+000  0.000000000000000E+000        
  0.000000000000000E+000  0.000000000000000E+000                                
   79.4100000000000       8.329720000000000E-002 -1.930160000000000E-002        
  0.000000000000000E+000  0.000000000000000E+000  0.000000000000000E+000        
  0.000000000000000E+000  0.000000000000000E+000  0.000000000000000E+000        
  0.000000000000000E+000  0.000000000000000E+000  0.000000000000000E+000        
  0.000000000000000E+000  0.000000000000000E+000                                
   34.5300000000000       0.179985600000000      -4.471730000000000E-002        
  0.000000000000000E+000  0.000000000000000E+000  0.000000000000000E+000        
  0.000000000000000E+000  0.000000000000000E+000  0.000000000000000E+000        
  0.000000000000000E+000  0.000000000000000E+000  0.000000000000000E+000        
  0.000000000000000E+000  0.000000000000000E+000                                
   15.5800000000000       0.305003500000000      -8.606640000000000E-002        
  0.000000000000000E+000  0.000000000000000E+000  0.000000000000000E+000        
  0.000000000000000E+000  0.000000000000000E+000  0.000000000000000E+000        
  0.000000000000000E+000  0.000000000000000E+000  0.000000000000000E+000        
  0.000000000000000E+000  0.000000000000000E+000                                
   7.23200000000000       0.341159300000000      -0.133296200000000             
  0.000000000000000E+000  0.000000000000000E+000  0.000000000000000E+000        
  0.000000000000000E+000  0.000000000000000E+000  0.000000000000000E+000        
  0.000000000000000E+000  0.000000000000000E+000  0.000000000000000E+000        
  0.000000000000000E+000  0.000000000000000E+000                                
   3.38200000000000       0.000000000000000E+000  0.000000000000000E+000        
   1.00000000000000       0.000000000000000E+000  0.000000000000000E+000        
  0.000000000000000E+000  0.000000000000000E+000  0.000000000000000E+000        
  0.000000000000000E+000  0.000000000000000E+000  0.000000000000000E+000        
  0.000000000000000E+000  0.000000000000000E+000                                
   1.36900000000000       0.000000000000000E+000  0.000000000000000E+000        
  0.000000000000000E+000   1.00000000000000       0.000000000000000E+000        
  0.000000000000000E+000  0.000000000000000E+000  0.000000000000000E+000        
  0.000000000000000E+000  0.000000000000000E+000  0.000000000000000E+000        
  0.000000000000000E+000  0.000000000000000E+000                                
  0.624800000000000       0.000000000000000E+000  0.000000000000000E+000        
  0.000000000000000E+000  0.000000000000000E+000   1.00000000000000             
  0.000000000000000E+000  0.000000000000000E+000  0.000000000000000E+000        
  0.000000000000000E+000  0.000000000000000E+000  0.000000000000000E+000        
  0.000000000000000E+000  0.000000000000000E+000                                
  0.274700000000000       0.000000000000000E+000  0.000000000000000E+000        
  0.000000000000000E+000  0.000000000000000E+000  0.000000000000000E+000        
   1.00000000000000       0.000000000000000E+000  0.000000000000000E+000        
  0.000000000000000E+000  0.000000000000000E+000  0.000000000000000E+000        
  0.000000000000000E+000  0.000000000000000E+000                                
  0.119200000000000       0.000000000000000E+000  0.000000000000000E+000        
  0.000000000000000E+000  0.000000000000000E+000  0.000000000000000E+000        
  0.000000000000000E+000   1.00000000000000       0.000000000000000E+000        
  0.000000000000000E+000  0.000000000000000E+000  0.000000000000000E+000        
  0.000000000000000E+000  0.000000000000000E+000                                
   246.262000000000       0.000000000000000E+000  0.000000000000000E+000        
  0.000000000000000E+000  0.000000000000000E+000  0.000000000000000E+000        
  0.000000000000000E+000  0.000000000000000E+000   1.00000000000000             
  0.000000000000000E+000  0.000000000000000E+000  0.000000000000000E+000        
  0.000000000000000E+000  0.000000000000000E+000                                
   124.187000000000       0.000000000000000E+000  0.000000000000000E+000        
  0.000000000000000E+000  0.000000000000000E+000  0.000000000000000E+000        
  0.000000000000000E+000  0.000000000000000E+000  0.000000000000000E+000        
   1.00000000000000       0.000000000000000E+000  0.000000000000000E+000        
  0.000000000000000E+000  0.000000000000000E+000                                
   62.6260000000000       0.000000000000000E+000  0.000000000000000E+000        
  0.000000000000000E+000  0.000000000000000E+000  0.000000000000000E+000        
  0.000000000000000E+000  0.000000000000000E+000  0.000000000000000E+000        
  0.000000000000000E+000   1.00000000000000       0.000000000000000E+000        
  0.000000000000000E+000  0.000000000000000E+000                                
   31.5810000000000       0.000000000000000E+000  0.000000000000000E+000        
  0.000000000000000E+000  0.000000000000000E+000  0.000000000000000E+000        
  0.000000000000000E+000  0.000000000000000E+000  0.000000000000000E+000        
  0.000000000000000E+000  0.000000000000000E+000   1.00000000000000             
  0.000000000000000E+000  0.000000000000000E+000                                
   15.9260000000000       0.000000000000000E+000  0.000000000000000E+000        
  0.000000000000000E+000  0.000000000000000E+000  0.000000000000000E+000        
  0.000000000000000E+000  0.000000000000000E+000  0.000000000000000E+000        
  0.000000000000000E+000  0.000000000000000E+000  0.000000000000000E+000        
   1.00000000000000       0.000000000000000E+000                                
  4.714000000000000E-002  0.000000000000000E+000  0.000000000000000E+000        
  0.000000000000000E+000  0.000000000000000E+000  0.000000000000000E+000        
  0.000000000000000E+000  0.000000000000000E+000  0.000000000000000E+000        
  0.000000000000000E+000  0.000000000000000E+000  0.000000000000000E+000        
  0.000000000000000E+000   1.00000000000000                                     
   16   12                                                                      
   415.900000000000       1.484000000000000E-004  0.000000000000000E+000        
  0.000000000000000E+000  0.000000000000000E+000  0.000000000000000E+000        
  0.000000000000000E+000  0.000000000000000E+000  0.000000000000000E+000        
  0.000000000000000E+000  0.000000000000000E+000  0.000000000000000E+000        
  0.000000000000000E+000                                                        
   98.6100000000000       1.276300000000000E-003  0.000000000000000E+000        
  0.000000000000000E+000  0.000000000000000E+000  0.000000000000000E+000        
  0.000000000000000E+000  0.000000000000000E+000  0.000000000000000E+000        
  0.000000000000000E+000  0.000000000000000E+000  0.000000000000000E+000        
  0.000000000000000E+000                                                        
   31.9200000000000       6.702400000000000E-003  0.000000000000000E+000        
  0.000000000000000E+000  0.000000000000000E+000  0.000000000000000E+000        
  0.000000000000000E+000  0.000000000000000E+000  0.000000000000000E+000        
  0.000000000000000E+000  0.000000000000000E+000  0.000000000000000E+000        
  0.000000000000000E+000                                                        
   12.0000000000000       2.526170000000000E-002  0.000000000000000E+000        
  0.000000000000000E+000  0.000000000000000E+000  0.000000000000000E+000        
  0.000000000000000E+000  0.000000000000000E+000  0.000000000000000E+000        
  0.000000000000000E+000  0.000000000000000E+000  0.000000000000000E+000        
  0.000000000000000E+000                                                        
   4.91900000000000       7.518940000000000E-002  0.000000000000000E+000        
  0.000000000000000E+000  0.000000000000000E+000  0.000000000000000E+000        
  0.000000000000000E+000  0.000000000000000E+000  0.000000000000000E+000        
  0.000000000000000E+000  0.000000000000000E+000  0.000000000000000E+000        
  0.000000000000000E+000                                                        
   2.14800000000000       0.000000000000000E+000   1.00000000000000             
  0.000000000000000E+000  0.000000000000000E+000  0.000000000000000E+000        
  0.000000000000000E+000  0.000000000000000E+000  0.000000000000000E+000        
  0.000000000000000E+000  0.000000000000000E+000  0.000000000000000E+000        
  0.000000000000000E+000                                                        
  0.969600000000000       0.000000000000000E+000  0.000000000000000E+000        
   1.00000000000000       0.000000000000000E+000  0.000000000000000E+000        
  0.000000000000000E+000  0.000000000000000E+000  0.000000000000000E+000        
  0.000000000000000E+000  0.000000000000000E+000  0.000000000000000E+000        
  0.000000000000000E+000                                                        
  0.439900000000000       0.000000000000000E+000  0.000000000000000E+000        
  0.000000000000000E+000   1.00000000000000       0.000000000000000E+000        
  0.000000000000000E+000  0.000000000000000E+000  0.000000000000000E+000        
  0.000000000000000E+000  0.000000000000000E+000  0.000000000000000E+000        
  0.000000000000000E+000                                                        
  0.197800000000000       0.000000000000000E+000  0.000000000000000E+000        
  0.000000000000000E+000  0.000000000000000E+000   1.00000000000000             
  0.000000000000000E+000  0.000000000000000E+000  0.000000000000000E+000        
  0.000000000000000E+000  0.000000000000000E+000  0.000000000000000E+000        
  0.000000000000000E+000                                                        
  8.603000000000000E-002  0.000000000000000E+000  0.000000000000000E+000        
  0.000000000000000E+000  0.000000000000000E+000  0.000000000000000E+000        
   1.00000000000000       0.000000000000000E+000  0.000000000000000E+000        
  0.000000000000000E+000  0.000000000000000E+000  0.000000000000000E+000        
  0.000000000000000E+000                                                        
   270.142000000000       0.000000000000000E+000  0.000000000000000E+000        
  0.000000000000000E+000  0.000000000000000E+000  0.000000000000000E+000        
  0.000000000000000E+000   1.00000000000000       0.000000000000000E+000        
  0.000000000000000E+000  0.000000000000000E+000  0.000000000000000E+000        
  0.000000000000000E+000                                                        
   123.465000000000       0.000000000000000E+000  0.000000000000000E+000        
  0.000000000000000E+000  0.000000000000000E+000  0.000000000000000E+000        
  0.000000000000000E+000  0.000000000000000E+000   1.00000000000000             
  0.000000000000000E+000  0.000000000000000E+000  0.000000000000000E+000        
  0.000000000000000E+000                                                        
   56.4280000000000       0.000000000000000E+000  0.000000000000000E+000        
  0.000000000000000E+000  0.000000000000000E+000  0.000000000000000E+000        
  0.000000000000000E+000  0.000000000000000E+000  0.000000000000000E+000        
   1.00000000000000       0.000000000000000E+000  0.000000000000000E+000        
  0.000000000000000E+000                                                        
   25.7900000000000       0.000000000000000E+000  0.000000000000000E+000        
  0.000000000000000E+000  0.000000000000000E+000  0.000000000000000E+000        
  0.000000000000000E+000  0.000000000000000E+000  0.000000000000000E+000        
  0.000000000000000E+000   1.00000000000000       0.000000000000000E+000        
  0.000000000000000E+000                                                        
   11.7870000000000       0.000000000000000E+000  0.000000000000000E+000        
  0.000000000000000E+000  0.000000000000000E+000  0.000000000000000E+000        
  0.000000000000000E+000  0.000000000000000E+000  0.000000000000000E+000        
  0.000000000000000E+000  0.000000000000000E+000   1.00000000000000             
  0.000000000000000E+000                                                        
  3.150000000000000E-002  0.000000000000000E+000  0.000000000000000E+000        
  0.000000000000000E+000  0.000000000000000E+000  0.000000000000000E+000        
  0.000000000000000E+000  0.000000000000000E+000  0.000000000000000E+000        
  0.000000000000000E+000  0.000000000000000E+000  0.000000000000000E+000        
   1.00000000000000                                                             
   10   10                                                                      
   6.71700000000000        1.00000000000000       0.000000000000000E+000        
  0.000000000000000E+000  0.000000000000000E+000  0.000000000000000E+000        
  0.000000000000000E+000  0.000000000000000E+000  0.000000000000000E+000        
  0.000000000000000E+000  0.000000000000000E+000                                
   2.89600000000000       0.000000000000000E+000   1.00000000000000             
  0.000000000000000E+000  0.000000000000000E+000  0.000000000000000E+000        
  0.000000000000000E+000  0.000000000000000E+000  0.000000000000000E+000        
  0.000000000000000E+000  0.000000000000000E+000                                
   1.24900000000000       0.000000000000000E+000  0.000000000000000E+000        
   1.00000000000000       0.000000000000000E+000  0.000000000000000E+000        
  0.000000000000000E+000  0.000000000000000E+000  0.000000000000000E+000        
  0.000000000000000E+000  0.000000000000000E+000                                
  0.538000000000000       0.000000000000000E+000  0.000000000000000E+000        
  0.000000000000000E+000   1.00000000000000       0.000000000000000E+000        
  0.000000000000000E+000  0.000000000000000E+000  0.000000000000000E+000        
  0.000000000000000E+000  0.000000000000000E+000                                
  0.232000000000000       0.000000000000000E+000  0.000000000000000E+000        
  0.000000000000000E+000  0.000000000000000E+000   1.00000000000000             
  0.000000000000000E+000  0.000000000000000E+000  0.000000000000000E+000        
  0.000000000000000E+000  0.000000000000000E+000                                
   199.920000000000       0.000000000000000E+000  0.000000000000000E+000        
  0.000000000000000E+000  0.000000000000000E+000  0.000000000000000E+000        
   1.00000000000000       0.000000000000000E+000  0.000000000000000E+000        
  0.000000000000000E+000  0.000000000000000E+000                                
   87.1110000000000       0.000000000000000E+000  0.000000000000000E+000        
  0.000000000000000E+000  0.000000000000000E+000  0.000000000000000E+000        
  0.000000000000000E+000   1.00000000000000       0.000000000000000E+000        
  0.000000000000000E+000  0.000000000000000E+000                                
   37.9570000000000       0.000000000000000E+000  0.000000000000000E+000        
  0.000000000000000E+000  0.000000000000000E+000  0.000000000000000E+000        
  0.000000000000000E+000  0.000000000000000E+000   1.00000000000000             
  0.000000000000000E+000  0.000000000000000E+000                                
   16.5390000000000       0.000000000000000E+000  0.000000000000000E+000        
  0.000000000000000E+000  0.000000000000000E+000  0.000000000000000E+000        
  0.000000000000000E+000  0.000000000000000E+000  0.000000000000000E+000        
   1.00000000000000       0.000000000000000E+000                                
  8.740000000000001E-002  0.000000000000000E+000  0.000000000000000E+000        
  0.000000000000000E+000  0.000000000000000E+000  0.000000000000000E+000        
  0.000000000000000E+000  0.000000000000000E+000  0.000000000000000E+000        
  0.000000000000000E+000   1.00000000000000                                     
    8    8                                                                      
   3.82900000000000        1.00000000000000       0.000000000000000E+000        
  0.000000000000000E+000  0.000000000000000E+000  0.000000000000000E+000        
  0.000000000000000E+000  0.000000000000000E+000  0.000000000000000E+000        
   1.79500000000000       0.000000000000000E+000   1.00000000000000             
  0.000000000000000E+000  0.000000000000000E+000  0.000000000000000E+000        
  0.000000000000000E+000  0.000000000000000E+000  0.000000000000000E+000        
  0.841000000000000       0.000000000000000E+000  0.000000000000000E+000        
   1.00000000000000       0.000000000000000E+000  0.000000000000000E+000        
  0.000000000000000E+000  0.000000000000000E+000  0.000000000000000E+000        
  0.394000000000000       0.000000000000000E+000  0.000000000000000E+000        
  0.000000000000000E+000   1.00000000000000       0.000000000000000E+000        
  0.000000000000000E+000  0.000000000000000E+000  0.000000000000000E+000        
   105.346000000000       0.000000000000000E+000  0.000000000000000E+000        
  0.000000000000000E+000  0.000000000000000E+000   1.00000000000000             
  0.000000000000000E+000  0.000000000000000E+000  0.000000000000000E+000        
   37.5300000000000       0.000000000000000E+000  0.000000000000000E+000        
  0.000000000000000E+000  0.000000000000000E+000  0.000000000000000E+000        
   1.00000000000000       0.000000000000000E+000  0.000000000000000E+000        
   13.3700000000000       0.000000000000000E+000  0.000000000000000E+000        
  0.000000000000000E+000  0.000000000000000E+000  0.000000000000000E+000        
  0.000000000000000E+000   1.00000000000000       0.000000000000000E+000        
  0.151000000000000       0.000000000000000E+000  0.000000000000000E+000        
  0.000000000000000E+000  0.000000000000000E+000  0.000000000000000E+000        
  0.000000000000000E+000  0.000000000000000E+000   1.00000000000000             
    6    6                                                                      
   3.85600000000000        1.00000000000000       0.000000000000000E+000        
  0.000000000000000E+000  0.000000000000000E+000  0.000000000000000E+000        
  0.000000000000000E+000                                                        
   1.70200000000000       0.000000000000000E+000   1.00000000000000             
  0.000000000000000E+000  0.000000000000000E+000  0.000000000000000E+000        
  0.000000000000000E+000                                                        
  0.751000000000000       0.000000000000000E+000  0.000000000000000E+000        
   1.00000000000000       0.000000000000000E+000  0.000000000000000E+000        
  0.000000000000000E+000                                                        
   67.1880000000000       0.000000000000000E+000  0.000000000000000E+000        
  0.000000000000000E+000   1.00000000000000       0.000000000000000E+000        
  0.000000000000000E+000                                                        
   20.3600000000000       0.000000000000000E+000  0.000000000000000E+000        
  0.000000000000000E+000  0.000000000000000E+000   1.00000000000000             
  0.000000000000000E+000                                                        
  0.326000000000000       0.000000000000000E+000  0.000000000000000E+000        
  0.000000000000000E+000  0.000000000000000E+000  0.000000000000000E+000        
   1.00000000000000                                                             
    4    4                                                                      
   2.87500000000000        1.00000000000000       0.000000000000000E+000        
  0.000000000000000E+000  0.000000000000000E+000                                
   1.17000000000000       0.000000000000000E+000   1.00000000000000             
  0.000000000000000E+000  0.000000000000000E+000                                
   52.0500000000000       0.000000000000000E+000  0.000000000000000E+000        
   1.00000000000000       0.000000000000000E+000                                
  0.587000000000000       0.000000000000000E+000  0.000000000000000E+000        
  0.000000000000000E+000   1.00000000000000                                     
    2    2                                                                      
   2.09900000000000        1.00000000000000       0.000000000000000E+000        
   1.04100000000000       0.000000000000000E+000   1.00000000000000             
FINISH                                                                          
 
********************************************************************************
 One- and two-electron integrals over symmetry-adapted AOs are calculated.

  Spherical harmonics are used.
  
  Integrals less than  0.10E-13 are neglected.

   Basis function not normalized: 
   Center (as ordered in MOL file):   1
   Angular Momentum type          : s
   Offset within angular momentum :  1
   <chi|chi>                      :    1.1714440624
   Basis function not normalized: 
   Center (as ordered in MOL file):   1
   Angular Momentum type          : s
   Offset within angular momentum :  2
   <chi|chi>                      :    3.7623155081
   Basis function not normalized: 
   Center (as ordered in MOL file):   1
   Angular Momentum type          : p
   Offset within angular momentum :  1
   <chi|chi>                      :    9.9907394657
  Nuclear repulsion energy :    0.0000000000 a.u.
  required memory for a1 array               77218834  words 
  required memory for a2 array              133231759  words 
 @GETMEM-I,  Allocated    1620 MB of main memory.
  @MOLECU-I, One electron integrals (CPU/WALL):        0.40/       0.46 seconds.
  @TWOEL-I,    1836219 integrals of symmetry type  I I I I
  @TWOEL-I,   17030369 integrals of symmetry type  I J I J
  @TWOEL-I,    9600838 integrals of symmetry type  I I J J
  @TWOEL-I,   42365946 integrals of symmetry type  I J K L
  @TWOEL-I, Total number of 2-e integrals   70833372.
  @MOLECU-I, Two electron integrals (CPU/WALL):      266.44/     267.33 seconds.
  @CHECKOUT-I, Total execution time (CPU/WALL):      267.02/     268.02 seconds.
--executable xvmol finished with status     0 in      268.26 seconds (walltime).
 --invoking executable--
/home/nike/cfour_v2.00beta/bin/xvmol2ja
 @GETMEM-I,  Allocated   49591 MB of main memory.
  @CHECKOUT-I, Total execution time (CPU/WALL):        0.02/       0.03 seconds.
--executable xvmol2ja finished with status     0 in        0.32 seconds (walltime).
 --invoking executable--
/home/nike/cfour_v2.00beta/bin/xvscf
  There are  279 functions in the AO basis.

  There are 8 irreducible representations.

       Irrep        # of functions
         1                 59
         2                 40
         3                 40
         4                 28
         5                 40
         6                 28
         7                 28
         8                 16


  Parameters for SCF calculation: 
        SCF reference function: ROHF  
  Maximum number of iterations: 9999
     Full symmetry point group: I h 
     Computational point group: D2h 
        Initial density matrix: MOREAD                 
     SCF convergence tolerance: 10**(-10)
  DIIS convergence acceleration:  ON
          Latest start for DIIS:   5
                     DIIS order:   6

     Alpha population by irrep:   2    1    1    0    1    0    0    0
      Beta population by irrep:   2    0    0    0    0    0    0    0


  Memory information:    5506270 words required.
  Fock matrices are constructed from AO integral file.
 @GETMEM-I,  Allocated      42 MB of main memory.
  Initialization and symmetry analysis required      0.001 seconds.

 total no. of electrons in initial guess :  0.000000000000000E+000
 total no. of electrons in initial guess :  0.000000000000000E+000
  --------------------------------------------------------------------
  Iteration         Total Energy            Largest Density Difference
  --------------------------------------------------------------------
       0             0.000000000000000              0.0000000000D+00
   current occupation vector 
     2  1  1  0  1  0  0  0
     2  0  0  0  0  0  0  0
       1           -49.150459232283879              0.9411126112D+00
   current occupation vector 
     2  1  1  0  1  0  0  0
     2  0  0  0  0  0  0  0
       2           -51.181584718109889              0.1699284545D+01
   current occupation vector 
     2  1  1  0  1  0  0  0
     2  0  0  0  0  0  0  0
       3           -53.904236812354199              0.1699265453D+01
   current occupation vector 
     2  1  1  0  1  0  0  0
     2  0  0  0  0  0  0  0
       4           -51.992833913236524              0.1479922568D+01
   current occupation vector 
     2  1  1  0  1  0  0  0
     2  0  0  0  0  0  0  0
       5           -54.037332179824674              0.1479671122D+01
   current occupation vector 
     2  1  1  0  1  0  0  0
     2  0  0  0  0  0  0  0
       6           -54.349460839293684              0.9926968639D-01
   current occupation vector 
     2  1  1  0  1  0  0  0
     2  0  0  0  0  0  0  0
       7           -54.396913471903353              0.6979689298D-01
   current occupation vector 
     2  1  1  0  1  0  0  0
     2  0  0  0  0  0  0  0
       8           -54.395371144143319              0.5352178535D-01
   current occupation vector 
     2  1  1  0  1  0  0  0
     2  0  0  0  0  0  0  0
       9           -54.400861793487380              0.3358800278D-01
   current occupation vector 
     2  1  1  0  1  0  0  0
     2  0  0  0  0  0  0  0
      10           -54.400920133146585              0.2681716362D-02
   current occupation vector 
     2  1  1  0  1  0  0  0
     2  0  0  0  0  0  0  0
      11           -54.400923659826056              0.5306486155D-03
   current occupation vector 
     2  1  1  0  1  0  0  0
     2  0  0  0  0  0  0  0
      12           -54.400923661018886              0.2132131107D-04
   current occupation vector 
     2  1  1  0  1  0  0  0
     2  0  0  0  0  0  0  0
      13           -54.400923661030241              0.2289365897D-05
   current occupation vector 
     2  1  1  0  1  0  0  0
     2  0  0  0  0  0  0  0
      14           -54.400923661030717              0.2305110369D-06
   current occupation vector 
     2  1  1  0  1  0  0  0
     2  0  0  0  0  0  0  0
      15           -54.400923661030944              0.2916840205D-07
   current occupation vector 
     2  1  1  0  1  0  0  0
     2  0  0  0  0  0  0  0
      16           -54.400923661030909              0.1500833646D-08
   current occupation vector 
     2  1  1  0  1  0  0  0
     2  0  0  0  0  0  0  0
      17           -54.400923661030859              0.1486415158D-09
   current occupation vector 
     2  1  1  0  1  0  0  0
     2  0  0  0  0  0  0  0

  SCF has converged.

 Density matrix saved to file den.dat
 total alpha spin electron number:   5.00000000000002     
 total  beta spin electron number:   2.00000000000000     
     E(ROHF)=       -54.400923661030916              0.2832289958D-10

  Eigenvector printing suppressed.


       The average multiplicity is    4.0000000
  The expectation value of S**2 is    3.7500000

 @PUTMOS-I, Writing converged MOs to NEWMOS. 
 @PUTMOS-I, Symmetry   1 Full Blocks 14 Partial Blocksize   3
 @PUTMOS-I, Symmetry   2 Full Blocks 10 Partial Blocksize   0
 @PUTMOS-I, Symmetry   3 Full Blocks 10 Partial Blocksize   0
 @PUTMOS-I, Symmetry   4 Full Blocks  7 Partial Blocksize   0
 @PUTMOS-I, Symmetry   5 Full Blocks 10 Partial Blocksize   0
 @PUTMOS-I, Symmetry   6 Full Blocks  7 Partial Blocksize   0
 @PUTMOS-I, Symmetry   7 Full Blocks  7 Partial Blocksize   0
 @PUTMOS-I, Symmetry   8 Full Blocks  4 Partial Blocksize   0
  @DMPJOB-I, Rotating orbitals to semicanonical basis.
             *** Eigenvalues correspond to new basis. ***

  @PRJDEN-I, Basis set contains h and/or higher angular momentum functions.
             Analysis of density matrix symmetry not available.
             Check irreps of the molecular orbitals in the full point group
             for presence of an asymmetric solution.

 
  ORBITAL EIGENVALUES (ALPHA)  (1H = 27.2113838 eV)

       MO #        E(hartree)               E(eV)           FULLSYM    COMPSYM
       ----   --------------------   --------------------   -------   ---------
    1     1         -15.6725593879        -426.4720289384      Ag        Ag (1)
    2     2          -1.1510336941         -31.3212196393      Ag        Ag (1)
    3   168          -0.5675890206         -15.4448826923     T1u       B1u (5)
    4    60          -0.5675890206         -15.4448826923     T1u       B2u (2)
    5   100          -0.5675890206         -15.4448826923     T1u       B3u (3)
  +++++++++++++++++++++++++++++++++++++++++++++++++++++++++++++++++++++++++++++
    6    61           0.0724430646           1.9712760357     T1u       B2u (2)
    7   101           0.0724430646           1.9712760357     T1u       B3u (3)
    8   169           0.0724430646           1.9712760357     T1u       B1u (5)
    9     3           0.0808860352           2.2010209489      Ag        Ag (1)
   10   236           0.2639378837           7.1821150584      Hg       B2g (7)
   11   140           0.2639378837           7.1821150584      Hg       B1g (4)
   12   208           0.2639378837           7.1821150584      Hg       B3g (6)
   13     4           0.2639378837           7.1821150584      Hg        Ag (1)
   14     5           0.2639378837           7.1821150584      Hg        Ag (1)
   15    62           0.3065095439           8.3405488433     T1u       B2u (2)
   16   102           0.3065095439           8.3405488433     T1u       B3u (3)
   17   170           0.3065095439           8.3405488433     T1u       B1u (5)
   18     6           0.4423436347          12.0367824248      Ag        Ag (1)
   19    63           0.6152417768          16.7415801307       u       B2u (2)
   20   264           0.6152417768          16.7415801307       u        Au (8)
   21   103           0.6152417768          16.7415801307       u       B3u (3)
   22   171           0.6152417768          16.7415801307       u       B1u (5)
   23    64           0.6152417768          16.7415801307       u       B2u (2)
   24   172           0.6152417768          16.7415801307       u       B1u (5)
   25   104           0.6152417768          16.7415801307       u       B3u (3)
   26   209           0.8015240864          21.8105795558      Hg       B3g (6)
   27   237           0.8015240864          21.8105795558      Hg       B2g (7)
   28   141           0.8015240864          21.8105795558      Hg       B1g (4)
   29     7           0.8015240864          21.8105795558      Hg        Ag (1)
   30     8           0.8015240864          21.8105795558      Hg        Ag (1)
   31    65           0.9334883879          25.4015108154     T1u       B2u (2)
   32   105           0.9334883879          25.4015108154     T1u       B3u (3)
   33   173           0.9334883879          25.4015108154     T1u       B1u (5)
   34     9           1.5468308049          42.0914067362      Ag        Ag (1)
   35   142           1.6288154034          44.3223211141       g       B1g (4)
   36   143           1.6288154034          44.3223211141       g       B1g (4)
   37    10           1.6288154034          44.3223211141       g        Ag (1)
   38   210           1.6288154034          44.3223211141       g       B3g (6)
   39    11           1.6288154034          44.3223211141       g        Ag (1)
   40   211           1.6288154034          44.3223211141       g       B3g (6)
   41   238           1.6288154034          44.3223211141       g       B2g (7)
   42    12           1.6288154034          44.3223211141       g        Ag (1)
   43   239           1.6288154034          44.3223211141       g       B2g (7)
   44    66           1.7956849462          48.8630722892       u       B2u (2)
   45    67           1.7956849462          48.8630722892       u       B2u (2)
   46   106           1.7956849462          48.8630722892       u       B3u (3)
   47   174           1.7956849462          48.8630722892       u       B1u (5)
   48   265           1.7956849462          48.8630722892       u        Au (8)
   49   175           1.7956849462          48.8630722892       u       B1u (5)
   50   107           1.7956849462          48.8630722892       u       B3u (3)
   51   240           1.9851763947          54.0193968248      Hg       B2g (7)
   52   212           1.9851763947          54.0193968248      Hg       B3g (6)
   53   144           1.9851763947          54.0193968248      Hg       B1g (4)
   54    13           1.9851763947          54.0193968248      Hg        Ag (1)
   55    14           1.9851763947          54.0193968248      Hg        Ag (1)
   56    68           2.4451629958          66.5362687802     T1u       B2u (2)
   57   176           2.4451629958          66.5362687802     T1u       B1u (5)
   58   108           2.4451629958          66.5362687802     T1u       B3u (3)
   59   109           3.4446131269          93.7326899047               B3u (3)
   60   177           3.4446131269          93.7326899047               B1u (5)
   61    69           3.4446131269          93.7326899047               B2u (2)
   62   266           3.4446131269          93.7326899047                Au (8)
   63    70           3.4446131269          93.7326899047               B2u (2)
   64   178           3.4446131269          93.7326899047               B1u (5)
   65    71           3.4446131269          93.7326899047               B2u (2)
   66   110           3.4446131269          93.7326899047               B3u (3)
   67   179           3.4446131269          93.7326899047               B1u (5)
   68   267           3.4446131269          93.7326899047                Au (8)
   69   111           3.4446131269          93.7326899047               B3u (3)
   70    72           4.2079948510         114.5053630005       u       B2u (2)
   71   112           4.2079948510         114.5053630005       u       B3u (3)
   72    73           4.2079948510         114.5053630005       u       B2u (2)
   73   113           4.2079948510         114.5053630005       u       B3u (3)
   74   180           4.2079948510         114.5053630005       u       B1u (5)
   75   268           4.2079948510         114.5053630005       u        Au (8)
   76   181           4.2079948510         114.5053630005       u       B1u (5)
   77   145           4.3388037276         118.0648535500       g       B1g (4)
   78   146           4.3388037276         118.0648535500       g       B1g (4)
   79    15           4.3388037276         118.0648535500       g        Ag (1)
   80   241           4.3388037276         118.0648535500       g       B2g (7)
   81   213           4.3388037276         118.0648535500       g       B3g (6)
   82    16           4.3388037276         118.0648535500       g        Ag (1)
   83   214           4.3388037276         118.0648535500       g       B3g (6)
   84    17           4.3388037276         118.0648535500       g        Ag (1)
   85   242           4.3388037276         118.0648535500       g       B2g (7)
   86    18           4.6052176705         125.3143456034      Ag        Ag (1)
   87    19           4.7238830624         128.5433951296      Hg        Ag (1)
   88   147           4.7238830624         128.5433951296      Hg       B1g (4)
   89   215           4.7238830624         128.5433951296      Hg       B3g (6)
   90   243           4.7238830624         128.5433951296      Hg       B2g (7)
   91    20           4.7238830624         128.5433951296      Hg        Ag (1)
   92   182           5.9937553445         163.0983772007     T1u       B1u (5)
   93    74           5.9937553445         163.0983772007     T1u       B2u (2)
   94   114           5.9937553445         163.0983772007     T1u       B3u (3)
   95   216           7.2023350675         195.9855039196    XXXX      XXXX (6)
   96    21           7.2023350675         195.9855039196    XXXX      XXXX (1)
   97   244           7.2023350675         195.9855039196    XXXX      XXXX (7)
   98   148           7.2023350675         195.9855039196    XXXX      XXXX (4)
   99    22           7.2023350675         195.9855039196    XXXX      XXXX (1)
  100   217           7.2023350675         195.9855039196    XXXX      XXXX (6)
  101    23           7.2023350675         195.9855039196    XXXX      XXXX (1)
  102    24           7.2023350675         195.9855039196    XXXX      XXXX (1)
  103   218           7.2023350675         195.9855039196    XXXX      XXXX (6)
  104   149           7.2023350675         195.9855039196    XXXX      XXXX (4)
  105   245           7.2023350675         195.9855039196    XXXX      XXXX (7)
  106   150           7.2023350675         195.9855039196    XXXX      XXXX (4)
  107   246           7.2023350675         195.9855039196    XXXX      XXXX (7)
  108    75           8.3581974546         227.4381189759               B2u (2)
  109   183           8.3581974546         227.4381189759               B1u (5)
  110   115           8.3581974546         227.4381189759               B3u (3)
  111   269           8.3581974546         227.4381189759                Au (8)
  112   184           8.3581974546         227.4381189759               B1u (5)
  113    76           8.3581974546         227.4381189759               B2u (2)
  114   270           8.3581974546         227.4381189759                Au (8)
  115   116           8.3581974546         227.4381189759               B3u (3)
  116   185           8.3581974546         227.4381189759               B1u (5)
  117    77           8.3581974546         227.4381189759               B2u (2)
  118   117           8.3581974546         227.4381189759               B3u (3)
  119   118           9.2845150622         252.6445029349       u       B3u (3)
  120   186           9.2845150622         252.6445029349       u       B1u (5)
  121    78           9.2845150622         252.6445029349       u       B2u (2)
  122   271           9.2845150622         252.6445029349       u        Au (8)
  123   187           9.2845150622         252.6445029349       u       B1u (5)
  124    79           9.2845150622         252.6445029349       u       B2u (2)
  125   119           9.2845150622         252.6445029349       u       B3u (3)
  126   151          10.1733638349         276.8313080483       g       B1g (4)
  127   152          10.1733638349         276.8313080483       g       B1g (4)
  128   247          10.1733638349         276.8313080483       g       B2g (7)
  129   219          10.1733638349         276.8313080483       g       B3g (6)
  130   220          10.1733638349         276.8313080483       g       B3g (6)
  131   248          10.1733638349         276.8313080483       g       B2g (7)
  132    25          10.1733638349         276.8313080483       g        Ag (1)
  133    26          10.1733638349         276.8313080483       g        Ag (1)
  134    27          10.1733638349         276.8313080483       g        Ag (1)
  135    28          11.1809988748         304.2504518694      Hg        Ag (1)
  136    29          11.1809988748         304.2504518694      Hg        Ag (1)
  137   221          11.1809988748         304.2504518694      Hg       B3g (6)
  138   249          11.1809988748         304.2504518694      Hg       B2g (7)
  139   153          11.1809988748         304.2504518694      Hg       B1g (4)
  140    30          13.0284098436         354.5210608116      Ag        Ag (1)
  141   188          14.5488706520         395.8949034531     T1u       B1u (5)
  142   120          14.5488706520         395.8949034531     T1u       B3u (3)
  143    80          14.5488706520         395.8949034531     T1u       B2u (2)
  144   250          17.2976278723         470.6923912022    XXXX      XXXX (7)
  145   251          17.2976278723         470.6923912022    XXXX      XXXX (7)
  146   222          17.2976278723         470.6923912022    XXXX      XXXX (6)
  147   223          17.2976278723         470.6923912022    XXXX      XXXX (6)
  148   154          17.2976278723         470.6923912022    XXXX      XXXX (4)
  149    31          17.2976278723         470.6923912022    XXXX      XXXX (1)
  150   252          17.2976278723         470.6923912022    XXXX      XXXX (7)
  151   155          17.2976278723         470.6923912022    XXXX      XXXX (4)
  152   224          17.2976278723         470.6923912022    XXXX      XXXX (6)
  153    32          17.2976278723         470.6923912022    XXXX      XXXX (1)
  154   156          17.2976278723         470.6923912022    XXXX      XXXX (4)
  155    33          17.2976278723         470.6923912022    XXXX      XXXX (1)
  156    34          17.2976278723         470.6923912022    XXXX      XXXX (1)
  157   272          20.2081810505         549.8925708614                Au (8)
  158   273          20.2081810505         549.8925708614                Au (8)
  159    81          20.2081810505         549.8925708614               B2u (2)
  160   121          20.2081810505         549.8925708614               B3u (3)
  161   189          20.2081810505         549.8925708614               B1u (5)
  162   190          20.2081810505         549.8925708614               B1u (5)
  163   122          20.2081810505         549.8925708614               B3u (3)
  164   123          20.2081810505         549.8925708614               B3u (3)
  165    82          20.2081810505         549.8925708614               B2u (2)
  166   191          20.2081810505         549.8925708614               B1u (5)
  167    83          20.2081810505         549.8925708614               B2u (2)
  168    84          20.6536028335         562.0131139606       u       B2u (2)
  169   274          20.6536028335         562.0131139606       u        Au (8)
  170    85          20.6536028335         562.0131139606       u       B2u (2)
  171   192          20.6536028335         562.0131139606       u       B1u (5)
  172   124          20.6536028335         562.0131139606       u       B3u (3)
  173   193          20.6536028335         562.0131139606       u       B1u (5)
  174   125          20.6536028335         562.0131139606       u       B3u (3)
  175    35          23.8625082639         649.3318712666       g        Ag (1)
  176   253          23.8625082639         649.3318712666       g       B2g (7)
  177   225          23.8625082639         649.3318712666       g       B3g (6)
  178   226          23.8625082639         649.3318712666       g       B3g (6)
  179    36          23.8625082639         649.3318712666       g        Ag (1)
  180    37          23.8625082639         649.3318712666       g        Ag (1)
  181   157          23.8625082639         649.3318712666       g       B1g (4)
  182   254          23.8625082639         649.3318712666       g       B2g (7)
  183   158          23.8625082639         649.3318712666       g       B1g (4)
  184   227          26.8075943340         729.4717387008      Hg       B3g (6)
  185   255          26.8075943340         729.4717387008      Hg       B2g (7)
  186    38          26.8075943340         729.4717387008      Hg        Ag (1)
  187   159          26.8075943340         729.4717387008      Hg       B1g (4)
  188    39          26.8075943340         729.4717387008      Hg        Ag (1)
  189    40          34.7885351509         946.6441825110      Ag        Ag (1)
  190   194          35.8756982048         976.2273936452     T1u       B1u (5)
  191   126          35.8756982048         976.2273936452     T1u       B3u (3)
  192    86          35.8756982048         976.2273936452     T1u       B2u (2)
  193    87          59.0669343510        1607.2930216711       u       B2u (2)
  194   195          59.0669343510        1607.2930216711       u       B1u (5)
  195   196          59.0669343510        1607.2930216711       u       B1u (5)
  196   275          59.0669343510        1607.2930216711       u        Au (8)
  197   127          59.0669343510        1607.2930216711       u       B3u (3)
  198    88          59.0669343510        1607.2930216711       u       B2u (2)
  199   128          59.0669343510        1607.2930216711       u       B3u (3)
  200   228          65.9992111245        1795.9298656976      Hg       B3g (6)
  201    41          65.9992111245        1795.9298656976      Hg        Ag (1)
  202    42          65.9992111245        1795.9298656976      Hg        Ag (1)
  203   160          65.9992111245        1795.9298656976      Hg       B1g (4)
  204   256          65.9992111245        1795.9298656976      Hg       B2g (7)
  205    43          85.7518582891        2333.4267291456      Ag        Ag (1)
  206   197          87.4678172354        2380.1203466536     T1u       B1u (5)
  207   129          87.4678172354        2380.1203466536     T1u       B3u (3)
  208    89          87.4678172354        2380.1203466536     T1u       B2u (2)
  209    44         103.0820977381        2805.0065264776       g        Ag (1)
  210   229         103.0820977381        2805.0065264776       g       B3g (6)
  211   161         103.0820977381        2805.0065264776       g       B1g (4)
  212    45         103.0820977381        2805.0065264776       g        Ag (1)
  213   162         103.0820977381        2805.0065264776       g       B1g (4)
  214   257         103.0820977381        2805.0065264776       g       B2g (7)
  215   230         103.0820977381        2805.0065264776       g       B3g (6)
  216    46         103.0820977381        2805.0065264776       g        Ag (1)
  217   258         103.0820977381        2805.0065264776       g       B2g (7)
  218    47         161.7520242801        4401.4964162799      Hg        Ag (1)
  219    48         161.7520242801        4401.4964162799      Hg        Ag (1)
  220   231         161.7520242801        4401.4964162799      Hg       B3g (6)
  221   259         161.7520242801        4401.4964162800      Hg       B2g (7)
  222   163         161.7520242801        4401.4964162800      Hg       B1g (4)
  223   198         176.6599248178        4807.1610197542       u       B1u (5)
  224   130         176.6599248178        4807.1610197542       u       B3u (3)
  225   199         176.6599248178        4807.1610197542       u       B1u (5)
  226    90         176.6599248178        4807.1610197542       u       B2u (2)
  227   131         176.6599248178        4807.1610197543       u       B3u (3)
  228   276         176.6599248178        4807.1610197543       u        Au (8)
  229    91         176.6599248178        4807.1610197543       u       B2u (2)
  230    49         197.0616009743        5362.3188602124      Ag        Ag (1)
  231   200         207.4953550198        5646.2357462227     T1u       B1u (5)
  232   132         207.4953550198        5646.2357462227     T1u       B3u (3)
  233    92         207.4953550198        5646.2357462227     T1u       B2u (2)
  234   277         320.6312954608        8724.8212453542                Au (8)
  235    93         320.6312954608        8724.8212453542               B2u (2)
  236   278         320.6312954608        8724.8212453542                Au (8)
  237    94         320.6312954608        8724.8212453542               B2u (2)
  238   201         320.6312954608        8724.8212453542               B1u (5)
  239   133         320.6312954608        8724.8212453543               B3u (3)
  240   202         320.6312954608        8724.8212453543               B1u (5)
  241   134         320.6312954608        8724.8212453543               B3u (3)
  242    95         320.6312954608        8724.8212453543               B2u (2)
  243   203         320.6312954608        8724.8212453543               B1u (5)
  244   135         320.6312954608        8724.8212453543               B3u (3)
  245    50         374.4280734276       10188.7060188644       g        Ag (1)
  246   232         374.4280734276       10188.7060188645       g       B3g (6)
  247    51         374.4280734276       10188.7060188645       g        Ag (1)
  248   164         374.4280734276       10188.7060188645       g       B1g (4)
  249   260         374.4280734276       10188.7060188645       g       B2g (7)
  250   233         374.4280734276       10188.7060188645       g       B3g (6)
  251   165         374.4280734276       10188.7060188645       g       B1g (4)
  252   261         374.4280734276       10188.7060188646       g       B2g (7)
  253    52         374.4280734276       10188.7060188646       g        Ag (1)
  254    53         393.7242318882       10713.7811929780      Hg        Ag (1)
  255   262         393.7242318882       10713.7811929781      Hg       B2g (7)
  256   234         393.7242318882       10713.7811929781      Hg       B3g (6)
  257   166         393.7242318882       10713.7811929782      Hg       B1g (4)
  258    54         393.7242318882       10713.7811929783      Hg        Ag (1)
  259    55         438.1879444958       11923.7003427877      Ag        Ag (1)
  260    96         489.2948022950       13314.3886661758     T1u       B2u (2)
  261   136         489.2948022950       13314.3886661758     T1u       B3u (3)
  262   204         489.2948022950       13314.3886661760     T1u       B1u (5)
  263   279         531.7445822366       14469.5059212236       u        Au (8)
  264    97         531.7445822366       14469.5059212237       u       B2u (2)
  265   137         531.7445822366       14469.5059212237       u       B3u (3)
  266   205         531.7445822366       14469.5059212237       u       B1u (5)
  267    98         531.7445822366       14469.5059212237       u       B2u (2)
  268   138         531.7445822367       14469.5059212238       u       B3u (3)
  269   206         531.7445822367       14469.5059212238       u       B1u (5)
  270    56         982.5086725641       26735.4205952087      Ag        Ag (1)
  271    57         984.0931262684       26778.5357731003      Hg        Ag (1)
  272   235         984.0931262684       26778.5357731005      Hg       B3g (6)
  273   263         984.0931262684       26778.5357731005      Hg       B2g (7)
  274   167         984.0931262684       26778.5357731005      Hg       B1g (4)
  275    58         984.0931262684       26778.5357731008      Hg        Ag (1)
  276    99        1181.0871584686       32139.0159934675     T1u       B2u (2)
  277   207        1181.0871584686       32139.0159934675     T1u       B1u (5)
  278   139        1181.0871584686       32139.0159934676     T1u       B3u (3)
  279    59        3155.7921030561       85873.4701710581      Ag        Ag (1)


 
  ORBITAL EIGENVALUES ( BETA)  (1H = 27.2113838 eV)

       MO #        E(hartree)               E(eV)           FULLSYM    COMPSYM
       ----   --------------------   --------------------   -------   ---------
    1     1         -15.5858558224        -424.1127049404      Ag        Ag (1)
    2     2          -0.7393228562         -20.1179980058      Ag        Ag (1)
  +++++++++++++++++++++++++++++++++++++++++++++++++++++++++++++++++++++++++++++
    3    60           0.0567058499           1.5430446475     T1u       B2u (2)
    4   168           0.0567058499           1.5430446475     T1u       B1u (5)
    5   100           0.0567058499           1.5430446476     T1u       B3u (3)
    6     3           0.0901375056           2.4527662609      Ag        Ag (1)
    7    61           0.1439584296           3.9173080816     T1u       B2u (2)
    8   101           0.1439584296           3.9173080816     T1u       B3u (3)
    9   169           0.1439584296           3.9173080816     T1u       B1u (5)
   10   140           0.2718191213           7.3965744393      Hg       B1g (4)
   11   236           0.2718191213           7.3965744393      Hg       B2g (7)
   12   208           0.2718191213           7.3965744393      Hg       B3g (6)
   13     4           0.2718191213           7.3965744393      Hg        Ag (1)
   14     5           0.2718191213           7.3965744393      Hg        Ag (1)
   15   102           0.3902505228          10.6192567623     T1u       B3u (3)
   16   170           0.3902505228          10.6192567623     T1u       B1u (5)
   17    62           0.3902505228          10.6192567623     T1u       B2u (2)
   18     6           0.4814540839          13.1010318689      Ag        Ag (1)
   19   103           0.6206892708          16.8898139794       u       B3u (3)
   20   104           0.6206892708          16.8898139794       u       B3u (3)
   21   171           0.6206892708          16.8898139794       u       B1u (5)
   22    63           0.6206892708          16.8898139794       u       B2u (2)
   23   172           0.6206892708          16.8898139794       u       B1u (5)
   24    64           0.6206892708          16.8898139794       u       B2u (2)
   25   264           0.6206892708          16.8898139794       u        Au (8)
   26   209           0.8623252728          23.4650639765      Hg       B3g (6)
   27   141           0.8623252728          23.4650639765      Hg       B1g (4)
   28   237           0.8623252728          23.4650639765      Hg       B2g (7)
   29     7           0.8623252728          23.4650639765      Hg        Ag (1)
   30     8           0.8623252728          23.4650639765      Hg        Ag (1)
   31   105           1.0390153012          28.2730441560     T1u       B3u (3)
   32    65           1.0390153012          28.2730441560     T1u       B2u (2)
   33   173           1.0390153012          28.2730441560     T1u       B1u (5)
   34     9           1.6213182019          44.1183118857      Ag        Ag (1)
   35   210           1.6390834909          44.6017299819       g       B3g (6)
   36   238           1.6390834909          44.6017299819       g       B2g (7)
   37   142           1.6390834909          44.6017299819       g       B1g (4)
   38   211           1.6390834909          44.6017299819       g       B3g (6)
   39   143           1.6390834909          44.6017299819       g       B1g (4)
   40    10           1.6390834909          44.6017299819       g        Ag (1)
   41    11           1.6390834909          44.6017299819       g        Ag (1)
   42    12           1.6390834909          44.6017299819       g        Ag (1)
   43   239           1.6390834909          44.6017299819       g       B2g (7)
   44   106           1.8300851295          49.7991488824       u       B3u (3)
   45   107           1.8300851295          49.7991488824       u       B3u (3)
   46    66           1.8300851295          49.7991488824       u       B2u (2)
   47   174           1.8300851295          49.7991488824       u       B1u (5)
   48    67           1.8300851295          49.7991488824       u       B2u (2)
   49   175           1.8300851295          49.7991488824       u       B1u (5)
   50   265           1.8300851295          49.7991488825       u        Au (8)
   51   240           2.1055548102          57.2950600947      Hg       B2g (7)
   52   212           2.1055548102          57.2950600947      Hg       B3g (6)
   53    13           2.1055548102          57.2950600947      Hg        Ag (1)
   54    14           2.1055548102          57.2950600947      Hg        Ag (1)
   55   144           2.1055548102          57.2950600947      Hg       B1g (4)
   56   108           2.5539363844          69.4961432063     T1u       B3u (3)
   57    68           2.5539363844          69.4961432063     T1u       B2u (2)
   58   176           2.5539363844          69.4961432063     T1u       B1u (5)
   59   177           3.4583063466          94.1053013639               B1u (5)
   60   109           3.4583063466          94.1053013639               B3u (3)
   61   178           3.4583063466          94.1053013639               B1u (5)
   62    69           3.4583063466          94.1053013639               B2u (2)
   63   179           3.4583063466          94.1053013639               B1u (5)
   64   110           3.4583063466          94.1053013639               B3u (3)
   65   266           3.4583063466          94.1053013639                Au (8)
   66    70           3.4583063466          94.1053013639               B2u (2)
   67   111           3.4583063466          94.1053013639               B3u (3)
   68   267           3.4583063466          94.1053013639                Au (8)
   69    71           3.4583063466          94.1053013639               B2u (2)
   70    72           4.2758622385         116.3521285301       u       B2u (2)
   71   112           4.2758622385         116.3521285301       u       B3u (3)
   72    73           4.2758622385         116.3521285301       u       B2u (2)
   73   113           4.2758622385         116.3521285301       u       B3u (3)
   74   180           4.2758622385         116.3521285301       u       B1u (5)
   75   181           4.2758622385         116.3521285301       u       B1u (5)
   76   268           4.2758622385         116.3521285301       u        Au (8)
   77   241           4.3747993318         119.0443437500       g       B2g (7)
   78   213           4.3747993318         119.0443437500       g       B3g (6)
   79   145           4.3747993318         119.0443437500       g       B1g (4)
   80    15           4.3747993318         119.0443437500       g        Ag (1)
   81   146           4.3747993318         119.0443437500       g       B1g (4)
   82   214           4.3747993318         119.0443437500       g       B3g (6)
   83    16           4.3747993318         119.0443437500       g        Ag (1)
   84    17           4.3747993318         119.0443437500       g        Ag (1)
   85   242           4.3747993318         119.0443437500       g       B2g (7)
   86    18           4.6903540432         127.6310241197      Ag        Ag (1)
   87   243           4.8478725208         131.9173198719      Hg       B2g (7)
   88   215           4.8478725208         131.9173198719      Hg       B3g (6)
   89    19           4.8478725208         131.9173198719      Hg        Ag (1)
   90    20           4.8478725208         131.9173198719      Hg        Ag (1)
   91   147           4.8478725208         131.9173198719      Hg       B1g (4)
[...]
    0.011265  5a 2b -> 28a 4b                                           
    0.022195  5a 2b -> 28a 8b                                           
   -0.018515  5a 2b -> 54a 8b                                           
    0.015148  5a 2b -> 28a 17b                                          
   -0.014310  5a 2b -> 54a 17b                                          
    0.011265  5a 2b -> 26a 3b                                           
    0.022195  5a 2b -> 26a 6b                                           
   -0.018515  5a 2b -> 51a 6b                                           
    0.015148  5a 2b -> 26a 15b                                          
   -0.014310  5a 2b -> 51a 15b                                          
    0.010732  3a 2b -> 30a 3b                                           
   -0.010461  3a 2b -> 12a 6b                                           
    0.014481  3a 2b -> 29a 6b                                           
    0.021146  3a 2b -> 30a 6b                                           
   -0.018948  3a 2b -> 53a 6b                                           
   -0.010607  3a 2b -> 18a 15b                                          
    0.014432  3a 2b -> 30a 15b                                          
   -0.014645  3a 2b -> 53a 15b                                          
    0.010087  3a 2b -> 18a 33b                                          
   -0.014282  3a 2b -> 15a 18b                                          
    0.016276  3a 2b -> 33a 18b                                          
    0.010361  3a 2b -> 15a 34b                                          
   -0.014250  3a 2b -> 33a 34b                                          
    0.010440  3a 2b -> 56a 34b                                          
    0.011265  3a 2b -> 27a 4b                                           
    0.022195  3a 2b -> 27a 8b                                           
   -0.018515  3a 2b -> 52a 8b                                           
    0.015148  3a 2b -> 27a 17b                                          
   -0.014310  3a 2b -> 52a 17b                                          
    0.011265  3a 2b -> 26a 5b                                           
    0.022195  3a 2b -> 26a 7b                                           
   -0.018515  3a 2b -> 51a 7b                                           
    0.015148  3a 2b -> 26a 16b                                          
   -0.014310  3a 2b -> 51a 16b                                          
    0.014003  4a 5a -> 16a 17a                                          
   -0.011010  4a 5a -> 28a 29a                                          
    0.014390  4a 5a -> 17a 31a                                          
   -0.014390  4a 5a -> 16a 32a                                          
    0.016698  4a 5a -> 31a 32a                                          
   -0.010729  4a 5a -> 54a 55a                                          
    0.010073  4a 5a -> 32a 57a                                          
   -0.010073  4a 5a -> 31a 58a                                          
   -0.014003  3a 4a -> 15a 17a                                          
    0.012034  3a 4a -> 27a 29a                                          
    0.014390  3a 4a -> 15a 32a                                          
   -0.014390  3a 4a -> 17a 33a                                          
    0.016698  3a 4a -> 32a 33a                                          
    0.010220  3a 4a -> 52a 55a                                          
   -0.010073  3a 4a -> 32a 56a                                          
    0.010073  3a 4a -> 33a 58a                                          
   -0.014003  3a 5a -> 15a 16a                                          
    0.013304  3a 5a -> 26a 30a                                          
    0.014390  3a 5a -> 15a 31a                                          
   -0.014390  3a 5a -> 16a 33a                                          
    0.016698  3a 5a -> 31a 33a                                          
    0.010675  3a 5a -> 30a 51a                                          
   -0.010698  3a 5a -> 26a 53a                                          
    0.012095  3a 5a -> 51a 53a                                          
   -0.010073  3a 5a -> 31a 56a                                          
    0.010073  3a 5a -> 33a 57a                                          

 ************************ 2019-01-28 13:33:59 *************************
 Executing goldstone...

 Generation of CC equations in terms of H and T...
 Generation of antisymmetrized Goldstone diagrams...
 Number of diagrams in T^1 equations:    15
 Number of diagrams in T^2 equations:    38
 Number of diagrams in T^3 equations:    53
 Number of diagrams in T^4 equations:    74
 Translation of diagrams to factorized equations...
 Optimizing intermediate calculation...
 Number of floating-point operations per iteration step:   1.2716E+15
 Probable CPU time per iteration step (hours):  12715.90
 Required memory (Mbytes):  749459.6
 Number of intermediates:                                 104
 Number of intermediates to be stored:                     44
 Length of intermediate file (Mbytes):   24264.7

 ************************ 2019-01-28 13:34:01 *************************
 Executing xmrcc...

 **********************************************************************
 CC(                     4 ) calculation 
 
 
 Allocation of****** Mbytes of memory...
 Number of spinorbitals:                   558
 Number of alpha electrons:                        5
 Number of beta electrons:                         2
 Spin multiplicity:                     2
 z-component of spin:  1.5
 Spatial symmetry:                      8
 Convergence criterion:  1.0E-07
 Construction of occupation graphs...
 Number of                     0 -fold excitations:                      1
 Number of                     1 -fold excitations:                    345
 Number of                     2 -fold excitations:                 154054
 Number of                     3 -fold excitations:               36844916
 Number of                     4 -fold excitations:             4278687833
 Total number of configurations:             4315687149
 Calculation of coupling coefficients...
 Length of intermediate file (Mbytes):   17294.2
 
 ======================================================================
 
 Memory requirements /Mbyte/: 
               Minimal        Optimal
 Real*8:     401844.7189    402779.6804
 Integer:     85403.8331
 Total:      487248.5519    488183.5134
 

 ************************ 2019-01-28 14:17:41 *************************
 Executing mrcc...

 **********************************************************************
 CCSDTQ calculation                                                     
 
 
 OpenMP parallel version is running.
 Number of CPUs:  14
 Allocation of******* Mbytes of memory...
 Number of spinorbitals: 558
 Number of alpha electrons:  5
 Number of beta  electrons:  2
 Spin multiplicity: 2
 z-component of spin:  1.5
 Spatial symmetry: 8
 Convergence criterion:  1.0E-07
 Construction of occupation graphs...
 Number of 0-fold excitations: 1
 Number of 1-fold excitations: 345
 Number of 2-fold excitations: 154054
 Number of 3-fold excitations: 36844916
 Number of 4-fold excitations: 4278687833
 Total number of determinants: 4315687149
 Calculation of coupling coefficients...
 Initial cluster amplitudes are read from unit 16.
 Length of intermediate file (Mbytes):   17294.2
 Reading integral list from unit 55...
 Sorting integrals...
 Sorting integrals...
 Sorting integrals...
 Sorting integrals...
 Energy of reference determinant [au]:     -54.400923661031
 Calculation of MP denominators...
 
 Starting CC iteration...
 ======================================================================
 Norm of residual vector:     0.03573039
 CPU time [min]:  7870.984                   Wall time [min]:   934.757
 
 Iteration  1  CC energy:   -54.58750484  Energy decrease:   3.8646E-11
 ======================================================================
 Norm of residual vector:     0.00506220
 CPU time [min]: 15893.823                   Wall time [min]:  1796.295
 
 Iteration  2  CC energy:   -54.58750256  Energy decrease:   0.00000228
 ======================================================================
 Norm of residual vector:     0.00153241
 CPU time [min]: 23814.971                   Wall time [min]:  2638.224
 
 Iteration  3  CC energy:   -54.58755573  Energy decrease:   0.00005316
 ======================================================================
 Norm of residual vector:     0.00043553
 CPU time [min]: 31669.562                   Wall time [min]:  3485.256
 
 Iteration  4  CC energy:   -54.58757879  Energy decrease:   0.00002306
 ======================================================================
 Norm of residual vector:     0.00012488
 CPU time [min]: 39609.833                   Wall time [min]:  4338.407
 
 Iteration  5  CC energy:   -54.58758104  Energy decrease:   0.00000226
 ======================================================================
 Norm of residual vector:     0.00004174
 CPU time [min]: 47521.253                   Wall time [min]:  5193.559
 
 Iteration  6  CC energy:   -54.58758184  Energy decrease:   0.00000079
 ======================================================================
 Norm of residual vector:     0.00001513
 CPU time [min]: 55446.831                   Wall time [min]:  6056.186
 
 Iteration  7  CC energy:   -54.58758210  Energy decrease:   0.00000026
 ======================================================================
 Norm of residual vector:     0.00000596
 CPU time [min]: 63356.735                   Wall time [min]:  6916.661
 
 Iteration  8  CC energy:   -54.58758209  Energy decrease:   4.3608E-09
 ======================================================================
 Norm of residual vector:     0.00000269
 CPU time [min]: 71279.271                   Wall time [min]:  7792.769
 
 Iteration  9  CC energy:   -54.58758209  Energy decrease:   2.9185E-09
 ======================================================================
 Norm of residual vector:     0.00000116
 CPU time [min]: 79246.795                   Wall time [min]:  8668.229
 
 Iteration 10  CC energy:   -54.58758211  Energy decrease:   0.00000002
 ======================================================================
 Norm of residual vector:     0.00000050
 CPU time [min]: 87176.912                   Wall time [min]:  9546.396
 
 Iteration 11  CC energy:   -54.58758212  Energy decrease:   0.00000001
 ======================================================================
 Norm of residual vector:     0.00000020
 CPU time [min]: 95157.806                   Wall time [min]: 10434.906
 
 Iteration 12  CC energy:   -54.58758211  Energy decrease:   2.5925E-09
 ======================================================================
 Norm of residual vector:     0.00000007
 CPU time [min]:103008.979                   Wall time [min]: 11254.113
 
 Iteration 13  CC energy:   -54.58758211  Energy decrease:   8.4620E-10
 ======================================================================
 
 Iteration has converged in 13 steps.
 
 Final results:
 Total CCSDTQ energy [au]:           -54.587582111705
 
 Dominant cluster amplitudes
 Printing threshold:  1.00E-02
 
    1.000000  Reference determinant                                     
    0.021793  2b -> 9b                                                  
   -0.026212  2b -> 18b                                                 
   -0.013811  2a -> 9a                                                  
    0.021611  2a -> 18a                                                 
   -0.013745  2a -> 34a                                                 
   -0.012915  2a 2b -> 18a 18b                                          
    0.011099  2a 2b -> 34a 18b                                          
    0.011069  2a 2b -> 18a 34b                                          
   -0.011912  2a 2b -> 34a 34b                                          
   -0.010928  2a 2b -> 17a 8b                                           
   -0.010928  2a 2b -> 16a 7b                                           
   -0.010928  2a 2b -> 15a 6b                                           
   -0.012987  4a 2b -> 29a 4b                                           
    0.010352  4a 2b -> 55a 4b                                           
   -0.025586  4a 2b -> 29a 8b                                           
    0.021372  4a 2b -> 55a 8b                                           
   -0.010620  4a 2b -> 18a 17b                                          
   -0.017458  4a 2b -> 29a 17b                                          
    0.016517  4a 2b -> 55a 17b                                          
    0.010094  4a 2b -> 18a 32b                                          
   -0.014307  4a 2b -> 17a 18b                                          
    0.016292  4a 2b -> 32a 18b                                          
    0.010368  4a 2b -> 17a 34b                                          
   -0.014258  4a 2b -> 32a 34b                                          
    0.010443  4a 2b -> 58a 34b                                          
    0.011281  4a 2b -> 28a 5b                                           
    0.022224  4a 2b -> 28a 7b                                           
   -0.018525  4a 2b -> 54a 7b                                           
    0.015164  4a 2b -> 28a 16b                                          
   -0.014317  4a 2b -> 54a 16b                                          
    0.011281  4a 2b -> 27a 3b                                           
    0.022224  4a 2b -> 27a 6b                                           
   -0.018525  4a 2b -> 52a 6b                                           
    0.015164  4a 2b -> 27a 15b                                          
   -0.014317  4a 2b -> 52a 15b                                          
   -0.011747  5a 2b -> 30a 5b                                           
    0.011456  5a 2b -> 14a 7b                                           
    0.011087  5a 2b -> 29a 7b                                           
   -0.023144  5a 2b -> 30a 7b                                           
    0.018059  5a 2b -> 53a 7b                                           
   -0.011465  5a 2b -> 55a 7b                                           
   -0.010620  5a 2b -> 18a 16b                                          
   -0.015791  5a 2b -> 30a 16b                                          
    0.013957  5a 2b -> 53a 16b                                          
    0.010094  5a 2b -> 18a 31b                                          
   -0.014307  5a 2b -> 16a 18b                                          
    0.016292  5a 2b -> 31a 18b                                          
    0.010368  5a 2b -> 16a 34b                                          
   -0.014258  5a 2b -> 31a 34b                                          
    0.010443  5a 2b -> 57a 34b                                          
    0.011281  5a 2b -> 28a 4b                                           
    0.022224  5a 2b -> 28a 8b                                           
   -0.018525  5a 2b -> 54a 8b                                           
    0.015164  5a 2b -> 28a 17b                                          
   -0.014317  5a 2b -> 54a 17b                                          
    0.011281  5a 2b -> 26a 3b                                           
    0.022224  5a 2b -> 26a 6b                                           
   -0.018525  5a 2b -> 51a 6b                                           
    0.015164  5a 2b -> 26a 15b                                          
   -0.014317  5a 2b -> 51a 15b                                          
    0.010747  3a 2b -> 30a 3b                                           
   -0.010485  3a 2b -> 12a 6b                                           
    0.014500  3a 2b -> 29a 6b                                           
    0.021173  3a 2b -> 30a 6b                                           
   -0.018959  3a 2b -> 53a 6b                                           
   -0.010620  3a 2b -> 18a 15b                                          
    0.014447  3a 2b -> 30a 15b                                          
   -0.014652  3a 2b -> 53a 15b                                          
    0.010094  3a 2b -> 18a 33b                                          
   -0.014307  3a 2b -> 15a 18b                                          
    0.016292  3a 2b -> 33a 18b                                          
    0.010368  3a 2b -> 15a 34b                                          
   -0.014258  3a 2b -> 33a 34b                                          
    0.010443  3a 2b -> 56a 34b                                          
    0.011281  3a 2b -> 27a 4b                                           
    0.022224  3a 2b -> 27a 8b                                           
   -0.018525  3a 2b -> 52a 8b                                           
    0.015164  3a 2b -> 27a 17b                                          
   -0.014317  3a 2b -> 52a 17b                                          
    0.011281  3a 2b -> 26a 5b                                           
    0.022224  3a 2b -> 26a 7b                                           
   -0.018525  3a 2b -> 51a 7b                                           
    0.015164  3a 2b -> 26a 16b                                          
   -0.014317  3a 2b -> 51a 16b                                          
    0.014032  4a 5a -> 16a 17a                                          
   -0.011031  4a 5a -> 28a 29a                                          
    0.014405  4a 5a -> 17a 31a                                          
   -0.014405  4a 5a -> 16a 32a                                          
    0.016713  4a 5a -> 31a 32a                                          
   -0.010738  4a 5a -> 54a 55a                                          
    0.010078  4a 5a -> 32a 57a                                          
   -0.010078  4a 5a -> 31a 58a                                          
   -0.014032  3a 4a -> 15a 17a                                          
    0.012058  3a 4a -> 27a 29a                                          
    0.014405  3a 4a -> 15a 32a                                          
   -0.014405  3a 4a -> 17a 33a                                          
    0.016713  3a 4a -> 32a 33a                                          
    0.010229  3a 4a -> 52a 55a                                          
   -0.010078  3a 4a -> 32a 56a                                          
    0.010078  3a 4a -> 33a 58a                                          
   -0.014032  3a 5a -> 15a 16a                                          
    0.013330  3a 5a -> 26a 30a                                          
    0.014405  3a 5a -> 15a 31a                                          
   -0.014405  3a 5a -> 16a 33a                                          
    0.016713  3a 5a -> 31a 33a                                          
    0.010688  3a 5a -> 30a 51a                                          
   -0.010710  3a 5a -> 26a 53a                                          
    0.012105  3a 5a -> 51a 53a                                          
   -0.010078  3a 5a -> 31a 56a                                          
    0.010078  3a 5a -> 33a 57a                                          
 
 ************************ 2019-02-05 09:55:01 *************************
                      Normal termination of mrcc.
 **********************************************************************
--- SharcNET Job Epilogue ---
Job completed successfully.
               jobid: 1660231
               resid: 3136191
         exit status: 0
      allocated time: 784130
           user time: 7296360
         system time: 52449.7
peak rss=531502202880; peak vsz=587961298944 (bytes)
atime=784130; utime=7296360; stime=52449.7; exit=0
