 --invoking executable--
/cvmfs/restricted.computecanada.ca/easybuild/software/2020/avx2/Compiler/intel2020/cfour/2.1/bin/xjoda


   *************************************************************************
         <<<     CCCCCC     CCCCCC   |||     CCCCCC     CCCCCC   >>>
       <<<      CCC        CCC       |||    CCC        CCC         >>>
      <<<      CCC        CCC        |||   CCC        CCC            >>>
    <<<        CCC        CCC        |||   CCC        CCC              >>>
      <<<      CCC        CCC        |||   CCC        CCC            >>>
       <<<      CCC        CCC       |||    CCC        CCC         >>>
         <<<     CCCCCC     CCCCCC   |||     CCCCCC     CCCCCC   >>>
   *************************************************************************

     ****************************************************************
     * CFOUR Coupled-Cluster techniques for Computational Chemistry *
     ****************************************************************
 

   Department of Chemistry                Institut fuer Physikalische Chemie
   University of Florida                  Universitaet Mainz
   Gainesville, FL 32611, USA             D-55099 Mainz, Germany

   Department of Chemistry                Fakultaet fuer Chemie und Biowiss.
   Johns Hopkins University               Karlsruher Institut fuer Technologie
   Baltimore, MD 21218, USA               D-76131 Karlsruhe, Germany

   Department of Chemistry                Department of Physical Chemistry
   Southern Methodist University          Eotvos Lorand University
   Dallas, TX 75275, USA                  H-1053 Budapest, Hungary

 
                       Version 2.1
 
                     gra994                                            
                     Tue 19 Mar 2024 12:23:18 AM EDT                   
                     integer*8 version is running
 
********************************************************************************
*                          Input from ZMAT file                                *
********************************************************************************
Test                                                                            
N                                                                               
                                                                                
*ACES2(CALC=CCSD(T)                                                             
#FROZEN_CORE=ON                                                                 
#DROPMO=1                                                                       
#INPUT_MRCC=OFF                                                                 
#CC_PROG=MRCC                                                                   
XFORM_TOL=18                                                                    
SAVE_INTS=ON                                                                    
SCF_EXPORDER=6                                                                  
SCF_EXPSTART=5                                                                  
#SCF_DAMPING=1000                                                               
SCF_EXTRAPOLATION=ON                                                            
SCF_CONV=10                                                                     
SCF_MAXCYC=9999                                                                 
CC_CONV=10                                                                      
CC_MAXCYC=999                                                                   
T3_EXTRAPOL=ON                                                                  
REFERENCE=ROHF                                                                  
CHARGE=+2                                                                       
MULT=2                                                                          
ABCDTYPE=STANDARD                                                               
OCCUPATION=2-1-0-0-0-0-0-0/2-0-0-0-0-0-0-0                                      
MEM=20                                                                          
MEM_UNIT=GB                                                                     
BASIS=SPECIAL)                                                                  
                                                                                
N:aCV5Z-EMSL                                                                    
                                                                                
********************************************************************************
  @GTFLGS-W, Keyword #FROZEN_CORE not known and is ignored.
  @GTFLGS-W, Keyword #DROPMO not known and is ignored.
  @GTFLGS-W, Keyword #INPUT_MRCC not known and is ignored.
  @GTFLGS-W, Keyword #CC_PROG not known and is ignored.
  @GTFLGS-W, Keyword #SCF_DAMPING not known and is ignored.
    -------------------------------------------------------------------
                    CFOUR Control Parameters 
    -------------------------------------------------------------------
        External           Internal           Value            Units
          Name               Name
    -------------------------------------------------------------------
       ABCDTYPE             IABCDT         STANDARD    [  0]    ***   
       ANHARMONIC           IANHAR         OFF         [  0]    ***   
       ANH_ALGORIT          IANALG         STANDARD    [  0]    ***   
       ANH_DERIVAT          IANDER         SECOND      [  1]    ***   
       ANH_MODE             ANHMOD         VIBRATION   [  0]    ***   
       ANH_STEPSIZ          ICUBST             50000          x 10-6  
       ANH_SYMMETR          IANHSM         ABELIAN     [  0]    ***   
       AO_LADDERS           IAOLAD         SINGLEPASS  [  1]    ***   
       AV_SCF               IAVSCF         OFF         [  0]    ***   
       BASIS                IBASIS         SPECIAL     [  0]    ***   
       BOTHVECTORS          BOTHVC         OFF         [  0]    ***   
       BOX_POTENT           IPIAB          OFF         [  0]    ***   
       BREIT                IBREIT         OFF         [  0]    ***   
       BRUCK_CONV           IBRTOL          10D-  4             ***   
       BRUECKNER            IBRKNR         OFF         [  0]    ***   
       BUFFERSIZE           IBUFFS              4096            ***   
       CACHE_RECS           ICHREC             10               ***   
       CALCLEVEL            ICLLVL         CCSD(T)     [ 22]    ***   
       CCORBOPT             ICCORB         OFF         [  0]  x 0.01  
       CC_CONV              ICCCNV          10D- 10             ***   
       CC_EXPORDER          ICCEOR              5               ***   
       CC_EXTRAPOL          ICCEXT         DIIS        [  1]    ***   
       CC_GUESS             ICCGES         MP2         [  0]    ***   
       CC_MAXCYC            ICCCYC            999              cycles 
       CC_PROGRAM           ICCPRO         VCC         [  0]    ***   
       CHARGE               ICHRGE              2               ***   
       CHOLESKY             ICHOLE         OFF         [  0]    ***   
       CIS_CONV             ICISTL              5               ***   
       COMM_SIZE            IPSIZE            ***               ***   
       CONSTANT             ICONST         OLD         [  1]    ***   
       CONTINUUM            ICONTU         NONE        [  0]    ***   
       CONTRACTION          ICNTYP         GENERAL     [  1]    ***   
       COORDINATES          ICOORD         INTERNAL    [  0]    ***   
       CPHF_CONVER          ICPHFT          10D- 16             ***   
       CPHF_MAXCYC          ICPHFC             64              cycles 
       CUBIC                ICUBIC         OFF         [  0]    ***   
       CURVILINEAR          ICURVY         OFF         [  0]    ***   
       DBOC                 IDBOC          OFF         [  0]    ***   
       DCT                  IDCT           OFF         [  0]    ***   
       DERIV_LEV            IDRLVL         ZERO        [  0]    ***   
       DEVMEM_SIZE          IDVMEM         *********           MByte  
       DIAG_MRCC            IEOMST          10D-  0             ***   
       DIFF_TYPE            IDIFTY         RELAXED     [  0]    ***   
       DIRECT               IDIRCT         OFF         [  0]    ***   
       DROPMO               IDRPMO      NONE         
       ECP                  IECP           OFF         [  0]    ***   
       EIGENVECTOR          IVEC                1               ***   
       EL_ANHARM            IELANH         OFF         [  0]    ***   
       EOMFOLLOW            IEOMSR         ENERGY      [  0]    ***   
       EOMIP                IEOMIP         OFF         [  0]    ***   
       EOMLEVEL             HBARFM         SAME        [  0]    ***   
       EOM_MRCC             IMRCCE         NEW         [  1]    ***   
       EOM_NONIT            EOMNON         OFF         [  0]    ***   
       EOM_NSING            IEOMSI          10D-  0             ***   
       EOM_NSTATES          IMRCCD         DAVIDSON    [  0]    ***   
       EOM_NTRIP            IEOMTR          10D-  0             ***   
       EOM_ORDER            IEXORD         ENERGY      [  0]    ***   
       EOM_PROPSTA          IEOMST              0               ***   
       ESTATE_CONV          IEXTOL          10D-  5             ***   
       ESTATE_DIAG          IEXDIG         ITERATIVE   [  0]    ***   
       ESTATE_LOCK          IESLOC         ON          [  1]    ***   
       ESTATE_MAXC          IEXMXC             40               ***   
       ESTATE_PROP          IEXPRP         OFF         [  0]    ***   
       EVAL_HESS            IRECAL              0            # of cyc.
       EXCITATION           IEXCIT              0               ***   
       EXCITE               IEXCIT         NONE        [  0]    ***   
       EXTERN_POT           IEXPOT         OFF         [  0]    ***   
       FCGRADNEW            IFCGNW         OFF         [  0]    ***   
       FC_FIELD             IFINFC              0             x 10-6  
       FD_CALTYPE           IFDCAL         GRADONLY    [  0]    ***   
       FD_PROJECT           IFDPRJ         OFF         [  1]    ***   
       FD_STEPSIZE          IDISFD              0            10-4 bohr
       FD_USEGROUP          IFDGRP         FULL        [  0]    ***   
       FILE_RECSIZ          IFLREC              4096           words  
       FINITE_PERT          IFIPER              0             x 10-6  
       FIXGEOM              IFIXGM         OFF         [  0]    ***   
       FOCK                 IFOCK          AO          [  1]    ***   
       FREQ_ALGORI          IVIALG         STANDARD    [  0]    ***   
       FROZEN_CORE          IFROCO         OFF         [  0]    ***   
       GAMMA_ABCD           IGABCD         STORE       [  0]    ***   
       GAMMA_ABCI           IGABCI         STORE       [  0]    ***   
       GENBAS_1             IGNBS1              0               ***   
       GENBAS_2             IGNBS2              0               ***   
       GENBAS_3             IGNBS3              0               ***   
       GENBAS_4             IGNBS4              0               ***   
       GEO_CONV             ICONTL              5              H/bohr 
       GEO_MAXCYC           IOPTCY             50               ***   
       GEO_MAXSTEP          IMXSTP            300            millibohr
       GEO_METHOD           INR            SINGLE_POINT[  5]    ***   
       GIAO                 IGIAO          OFF         [  1]    ***   
       GIMIC                IGIMIC         OFF         [  0]    ***   
       GRID                 IGRID          OFF         [  0]    ***   
       GRID_ALGO            IGALGO         SERIAL      [  0]    ***   
       GUESS                IGUESS         MOREAD      [  0]    ***   
       HBAR                 IHBAR          OFF         [  0]    ***   
       HESS_TYPE            IHESTP         SCF         [  0]    ***   
       HF2_FILE             IHF2Fl         USE         [  1]    ***   
       HFSTABILITY          ISTABL         OFF         [  0]    ***   
       INCORE               INCORE         OFF         [  0]    ***   
       INPUT_MRCC           IMRCC          ON          [  1]    ***   
       INTEGRALS            INTTYP         VMOL        [  1]    ***   
       JODA_PRINT           IJPRNT              0               ***   
       KEYWORD_OUT          IDMPKW         NO          [  0]    ***   
       LINDEP_TOL           ILINDP              8               ***   
       LINEQ_CONV           IZTACN          10D-  7           cycles  
       LINEQ_EXPOR          ILMAXD              5               ***   
       LINEQ_MAXCY          ILMAXC            100               ***   
       LINEQ_TYPE           ILTYPE         DIIS        [  1]    ***   
       LOCK_ORBOCC          ILOCOC         OFF         [  0]    ***   
       MEMORY_SIZE          IMEMSZ         *********           words  
       MEM_UNIT             IMEMU          GB          [  3]    ***   
       MRCC                 IMRCCC         OFF         [  0]    ***   
       MULTIPLICTY          IMULTP              2               ***   
       NACOUPLING           IVCOUP         OFF         [  0]    ***   
       NEGEVAL              IDIE           ABORT       [  0]    ***   
       NEWNORM              INEWNO         OFF         [  0]    ***   
       NON-HF               INONHF         ON          [  1]    ***   
       NTOP_TAMP            ITOPT2             15               ***   
       NUC_MODEL            INUCMO         POINT       [  0]    ***   
       OCCUPATION           IOCCU  A   2,  1,  0,  0,  0,  0,  0,  0,
                                   B   2,  0,  0,  0,  0,  0,  0,  0,
       OPEN-SHELL           IOPEN          SPIN-ORBITAL[  0]    ***   
       OPTVIB               IOPTVB         OFF         [  0]    ***   
       ORBITALS             IORBTP         SEMICANONICA[  1]    ***   
       PARALLEL             IPARAL         ON          [  1]    ***   
       PARA_INT             IPINTS         ON          [  1]    ***   
       PARA_PRINT           IPPRIN              0               ***   
       PERT_ORB             IPTORB         STANDARD    [  0]    ***   
       POINTS               IGRDFD              0               ***   
       PRINT                IPRNT               0               ***   
       PROPS                IPROPS         OFF         [  0]    ***   
       PROP_INTEGR          IINTYP         INTERNAL    [  0]    ***   
       PSI                  IPSI           OFF         [  0]    ***   
       QC_ALG               IQCALG         FLM         [  0]    ***   
       QC_LINALG            IQCLIN         TRIDIAG     [  2]    ***   
       QC_MAXCYC            IQCMAX          10D-100           cycles  
       QC_MAXSCFCY          IQCMSC          10D- 15           cycles  
       QC_RTRUST            IQCRTR          10D-  0           x 10-3  
       QC_SKIPSCF           IQCSKI         OFF         [  0]    ***   
       QC_START             IQCSTA          10D-  1             ***   
       QRHFGUESS            IQGUES         OFF         [  0]    ***   
       QUARTIC              IQUART         OFF         [  0]    ***   
       RAMAN_INT            IRAMIN         OFF         [  0]    ***   
       RAMAN_ORB            IRAMRE         UNRELAXED   [  0]    ***   
       RDO                  IRDOFM         OFF         [  0]    ***   
       REDUCE_REPR          REDREP         Ir          [  0]    ***   
       REFERENCE            IREFNC         ROHF        [  2]    ***   
       RELATIVIST           IRELAT         OFF         [  0]    ***   
       RELAX_DENS           IRDENS         OFF         [  0]    ***   
       RESET_FLAGS          IRESET         OFF         [  0]    ***   
       RESTART_CC           ICCRES         OFF         [  0]    ***   
       ROT_EVEC             ROTVEC              0               ***   
       SAVE_INTS            ISVINT         ON          [  1]    ***   
       SCALE_ON             ISTCRT              0               ***   
       SCF_CONV             ISCFCV          10D- 10             ***   
       SCF_DAMPING          IDAMP               0             x 10-3  
       SCF_EXPORDE          IRPPOR              6               ***   
       SCF_EXPSTAR          IRPPLS              5               ***   
       SCF_EXTRAPO          IRPP           ON          [  1]    ***   
       SCF_MAXCYC           ISCFCY            ***              cycles 
       SCF_NOSTOP           ISCFST         OFF         [  0]    ***   
       SCF_PRINT            ISCFPR              0               ***   
       SCF_PROG             ISCFPR         SCF         [  0]    ***   
       SD_FIELD             IFINSD              0             x 10-6  
       SOPERT               IPERSO         OFF         [  0]    ***   
       SPHERICAL            IDFGHI         ON          [  1]    ***   
       SPINORBIT            ISOCAL         OFF         [  0]    ***   
       SPINROTATIO          ISRCON         OFF         [  0]    ***   
       SPIN_FLIP            ISPFLP         OFF         [  0]    ***   
       SPIN_ORBIT           ISPORB         OFF         [  0]    ***   
       SPIN_SCAL            ISCSMP         OFF         [  0]    ***   
       STEEPSCALE           ISTPSC              1000          x 10-3  
       SUBGROUP             ISUBGP         DEFAULT     [  0]    ***   
       SUBGRPAXIS           ISBXYZ         X           [  0]    ***   
       SYMMETRY             ISYM           ON          [  0]    ***   
       SYM_CHECK            ISYMCK         OVERRIDE    [  1]    ***   
       T3_EXTRAPOL          IT3EXT         ON          [  1]    ***   
       T4_EXTRAPOL          IT4EXP         OFF         [  0]    ***   
       TAMP_SUM             IEVERY              5               ***   
       TESTSUITE            ITESTS         OFF         [  0]    ***   
       THERMOCH             ITHERM         OFF         [  0]    ***   
       TOL_CHOLESK          ITOLCH          10D-  4             ***   
       TRANGRAD             IRESRM         OFF         [  0]    ***   
       TRANS_INV            ITRAIN         USE         [  0]    ***   
       TREAT_PERT           ITREAT         SIMULTANEOUS[  0]    ***   
       TRIP_ALGORI          ITRALG         NORMAL      [  0]    ***   
       UIJ_THRESHO          IUIJTH              1               ***   
       UNITS                IUNITS         ANGSTROM    [  0]    ***   
       UNOS                 IUNOS          OFF         [  0]    ***   
       UPDATE_HESS          IHUPDT         ON          [  1]    ***   
       VIBPHASE             ISETPH         STANDARD    [  0]    ***   
       VIBRATION            IVIB           NO          [  0]    ***   
       VIB_ALGORIT          IGEALG         STANDARD    [  0]    ***   
       VNATORB              IVNORB         OFF         [  0]    ***   
       VTRAN                IVTRAN         FULL/PARTIAL[  0]    ***   
       XFIELD               IXEFLD              0             x 10-6  
       XFORM_TOL            IXFTOL          10D- 18             ***   
       YFIELD               IYEFLD              0             x 10-6  
       ZFIELD               IZEFLD              0             x 10-6  
       ZSCALE_EXP           IZEXPS         OFF         [  0]    ***   
    -------------------------------------------------------------------
   1 entries found in Z-matrix 
   Job Title : Test                                                                            
   Rotational constants (in cm-1): 

   Rotational constants (in MHz): 

********************************************************************************
   The full molecular point group is I h .
   The largest Abelian subgroup of the full molecular point group is D2h .
   The computational point group is D2h .
********************************************************************************
  ECPDATA file not present.   Using default ECPDATA. 
  @GTFLGS-W, Keyword #FROZEN_CORE not known and is ignored.
  @GTFLGS-W, Keyword #DROPMO not known and is ignored.
  @GTFLGS-W, Keyword #INPUT_MRCC not known and is ignored.
  @GTFLGS-W, Keyword #CC_PROG not known and is ignored.
  @GTFLGS-W, Keyword #SCF_DAMPING not known and is ignored.
  There are  181 basis functions.
 @GEOPT-W, Archive file not created for single-point calculation.
 @CHECKOUT-I, Total execution time (CPU/WALL):        0.26/       1.32 seconds.
--executable xjoda finished with status     0 in        1.38 seconds (walltime).
 --invoking executable--
/cvmfs/restricted.computecanada.ca/easybuild/software/2020/avx2/Compiler/intel2020/cfour/2.1/bin/xvmol
 SERIAL VERSION OF MOLECULE STARTED
********************************************************************************
                    INPUT FROM MOL FILE
********************************************************************************
INTGRL        1    0    1    0    0    0    0    0    0                         
         *** CFOUR Program System (Release V0.1) ***                            
Test                                                                            
    1    3 X  Y   Z   0.10E-08              0    0                              
   9999.00      3.00                                                            
          7.00000000    1    6    1    1    1    1    1    1                    
N #1   0.000000000000000   0.000000000000000   0.000000000000000                
   19   11                                                                      
   129200.000000000       2.500000000000000E-005 -6.000000000000000E-006        
  0.000000000000000E+000  0.000000000000000E+000  0.000000000000000E+000        
  0.000000000000000E+000  0.000000000000000E+000  0.000000000000000E+000        
  0.000000000000000E+000  0.000000000000000E+000  0.000000000000000E+000        
   19350.0000000000       1.970000000000000E-004 -4.300000000000000E-005        
  0.000000000000000E+000  0.000000000000000E+000  0.000000000000000E+000        
  0.000000000000000E+000  0.000000000000000E+000  0.000000000000000E+000        
  0.000000000000000E+000  0.000000000000000E+000  0.000000000000000E+000        
   4404.00000000000       1.032000000000000E-003 -2.270000000000000E-004        
  0.000000000000000E+000  0.000000000000000E+000  0.000000000000000E+000        
  0.000000000000000E+000  0.000000000000000E+000  0.000000000000000E+000        
  0.000000000000000E+000  0.000000000000000E+000  0.000000000000000E+000        
   1248.00000000000       4.325000000000000E-003 -9.580000000000000E-004        
  0.000000000000000E+000  0.000000000000000E+000  0.000000000000000E+000        
  0.000000000000000E+000  0.000000000000000E+000  0.000000000000000E+000        
  0.000000000000000E+000  0.000000000000000E+000  0.000000000000000E+000        
   408.000000000000       1.538000000000000E-002 -3.416000000000000E-003        
  0.000000000000000E+000  0.000000000000000E+000  0.000000000000000E+000        
  0.000000000000000E+000  0.000000000000000E+000  0.000000000000000E+000        
  0.000000000000000E+000  0.000000000000000E+000  0.000000000000000E+000        
   148.200000000000       4.686700000000000E-002 -1.066700000000000E-002        
  0.000000000000000E+000  0.000000000000000E+000  0.000000000000000E+000        
  0.000000000000000E+000  0.000000000000000E+000  0.000000000000000E+000        
  0.000000000000000E+000  0.000000000000000E+000  0.000000000000000E+000        
   58.5000000000000       0.120116000000000      -2.827900000000000E-002        
  0.000000000000000E+000  0.000000000000000E+000  0.000000000000000E+000        
  0.000000000000000E+000  0.000000000000000E+000  0.000000000000000E+000        
  0.000000000000000E+000  0.000000000000000E+000  0.000000000000000E+000        
   24.5900000000000       0.245695000000000      -6.401999999999999E-002        
  0.000000000000000E+000  0.000000000000000E+000  0.000000000000000E+000        
  0.000000000000000E+000  0.000000000000000E+000  0.000000000000000E+000        
  0.000000000000000E+000  0.000000000000000E+000  0.000000000000000E+000        
   10.8100000000000       0.361379000000000      -0.113932000000000             
  0.000000000000000E+000  0.000000000000000E+000  0.000000000000000E+000        
  0.000000000000000E+000  0.000000000000000E+000  0.000000000000000E+000        
  0.000000000000000E+000  0.000000000000000E+000  0.000000000000000E+000        
   4.88200000000000       0.287283000000000      -0.146995000000000             
  0.000000000000000E+000  0.000000000000000E+000  0.000000000000000E+000        
  0.000000000000000E+000  0.000000000000000E+000  0.000000000000000E+000        
  0.000000000000000E+000  0.000000000000000E+000  0.000000000000000E+000        
   2.19500000000000       7.017100000000000E-002 -7.251000000000000E-003        
   1.00000000000000       0.000000000000000E+000  0.000000000000000E+000        
  0.000000000000000E+000  0.000000000000000E+000  0.000000000000000E+000        
  0.000000000000000E+000  0.000000000000000E+000  0.000000000000000E+000        
  0.871500000000000       1.831000000000000E-003  0.366183000000000             
  0.000000000000000E+000   1.00000000000000       0.000000000000000E+000        
  0.000000000000000E+000  0.000000000000000E+000  0.000000000000000E+000        
  0.000000000000000E+000  0.000000000000000E+000  0.000000000000000E+000        
  0.350400000000000       8.350000000000000E-004  0.547908000000000             
  0.000000000000000E+000  0.000000000000000E+000   1.00000000000000             
  0.000000000000000E+000  0.000000000000000E+000  0.000000000000000E+000        
  0.000000000000000E+000  0.000000000000000E+000  0.000000000000000E+000        
  0.139700000000000      -6.000000000000000E-006  0.216645000000000             
  0.000000000000000E+000  0.000000000000000E+000  0.000000000000000E+000        
   1.00000000000000       0.000000000000000E+000  0.000000000000000E+000        
  0.000000000000000E+000  0.000000000000000E+000  0.000000000000000E+000        
   12.2750000000000       0.000000000000000E+000  0.000000000000000E+000        
  0.000000000000000E+000  0.000000000000000E+000  0.000000000000000E+000        
  0.000000000000000E+000   1.00000000000000       0.000000000000000E+000        
  0.000000000000000E+000  0.000000000000000E+000  0.000000000000000E+000        
   27.8270000000000       0.000000000000000E+000  0.000000000000000E+000        
  0.000000000000000E+000  0.000000000000000E+000  0.000000000000000E+000        
  0.000000000000000E+000  0.000000000000000E+000   1.00000000000000             
  0.000000000000000E+000  0.000000000000000E+000  0.000000000000000E+000        
   63.0850000000000       0.000000000000000E+000  0.000000000000000E+000        
  0.000000000000000E+000  0.000000000000000E+000  0.000000000000000E+000        
  0.000000000000000E+000  0.000000000000000E+000  0.000000000000000E+000        
   1.00000000000000       0.000000000000000E+000  0.000000000000000E+000        
   143.013000000000       0.000000000000000E+000  0.000000000000000E+000        
  0.000000000000000E+000  0.000000000000000E+000  0.000000000000000E+000        
  0.000000000000000E+000  0.000000000000000E+000  0.000000000000000E+000        
  0.000000000000000E+000   1.00000000000000       0.000000000000000E+000        
  5.180000000000000E-002  0.000000000000000E+000  0.000000000000000E+000        
  0.000000000000000E+000  0.000000000000000E+000  0.000000000000000E+000        
  0.000000000000000E+000  0.000000000000000E+000  0.000000000000000E+000        
  0.000000000000000E+000  0.000000000000000E+000   1.00000000000000             
   13   10                                                                      
   147.000000000000       8.920000000000000E-004  0.000000000000000E+000        
  0.000000000000000E+000  0.000000000000000E+000  0.000000000000000E+000        
  0.000000000000000E+000  0.000000000000000E+000  0.000000000000000E+000        
  0.000000000000000E+000  0.000000000000000E+000                                
   34.7600000000000       7.082000000000000E-003  0.000000000000000E+000        
  0.000000000000000E+000  0.000000000000000E+000  0.000000000000000E+000        
  0.000000000000000E+000  0.000000000000000E+000  0.000000000000000E+000        
  0.000000000000000E+000  0.000000000000000E+000                                
   11.0000000000000       3.281600000000000E-002  0.000000000000000E+000        
  0.000000000000000E+000  0.000000000000000E+000  0.000000000000000E+000        
  0.000000000000000E+000  0.000000000000000E+000  0.000000000000000E+000        
  0.000000000000000E+000  0.000000000000000E+000                                
   3.99500000000000       0.108209000000000       0.000000000000000E+000        
  0.000000000000000E+000  0.000000000000000E+000  0.000000000000000E+000        
  0.000000000000000E+000  0.000000000000000E+000  0.000000000000000E+000        
  0.000000000000000E+000  0.000000000000000E+000                                
   1.58700000000000       0.248094000000000        1.00000000000000             
  0.000000000000000E+000  0.000000000000000E+000  0.000000000000000E+000        
  0.000000000000000E+000  0.000000000000000E+000  0.000000000000000E+000        
  0.000000000000000E+000  0.000000000000000E+000                                
  0.653300000000000       0.374513000000000       0.000000000000000E+000        
   1.00000000000000       0.000000000000000E+000  0.000000000000000E+000        
  0.000000000000000E+000  0.000000000000000E+000  0.000000000000000E+000        
  0.000000000000000E+000  0.000000000000000E+000                                
  0.268600000000000       0.348414000000000       0.000000000000000E+000        
  0.000000000000000E+000   1.00000000000000       0.000000000000000E+000        
  0.000000000000000E+000  0.000000000000000E+000  0.000000000000000E+000        
  0.000000000000000E+000  0.000000000000000E+000                                
  0.106700000000000       0.128340000000000       0.000000000000000E+000        
  0.000000000000000E+000  0.000000000000000E+000   1.00000000000000             
  0.000000000000000E+000  0.000000000000000E+000  0.000000000000000E+000        
  0.000000000000000E+000  0.000000000000000E+000                                
   10.7600000000000       0.000000000000000E+000  0.000000000000000E+000        
  0.000000000000000E+000  0.000000000000000E+000  0.000000000000000E+000        
   1.00000000000000       0.000000000000000E+000  0.000000000000000E+000        
  0.000000000000000E+000  0.000000000000000E+000                                
   27.1800000000000       0.000000000000000E+000  0.000000000000000E+000        
  0.000000000000000E+000  0.000000000000000E+000  0.000000000000000E+000        
  0.000000000000000E+000   1.00000000000000       0.000000000000000E+000        
  0.000000000000000E+000  0.000000000000000E+000                                
   68.6560000000000       0.000000000000000E+000  0.000000000000000E+000        
  0.000000000000000E+000  0.000000000000000E+000  0.000000000000000E+000        
  0.000000000000000E+000  0.000000000000000E+000   1.00000000000000             
  0.000000000000000E+000  0.000000000000000E+000                                
   173.425000000000       0.000000000000000E+000  0.000000000000000E+000        
  0.000000000000000E+000  0.000000000000000E+000  0.000000000000000E+000        
  0.000000000000000E+000  0.000000000000000E+000  0.000000000000000E+000        
   1.00000000000000       0.000000000000000E+000                                
  3.690000000000000E-002  0.000000000000000E+000  0.000000000000000E+000        
  0.000000000000000E+000  0.000000000000000E+000  0.000000000000000E+000        
  0.000000000000000E+000  0.000000000000000E+000  0.000000000000000E+000        
  0.000000000000000E+000   1.00000000000000                                     
    8    8                                                                      
   4.64700000000000        1.00000000000000       0.000000000000000E+000        
  0.000000000000000E+000  0.000000000000000E+000  0.000000000000000E+000        
  0.000000000000000E+000  0.000000000000000E+000  0.000000000000000E+000        
   1.81300000000000       0.000000000000000E+000   1.00000000000000             
  0.000000000000000E+000  0.000000000000000E+000  0.000000000000000E+000        
  0.000000000000000E+000  0.000000000000000E+000  0.000000000000000E+000        
  0.707000000000000       0.000000000000000E+000  0.000000000000000E+000        
   1.00000000000000       0.000000000000000E+000  0.000000000000000E+000        
  0.000000000000000E+000  0.000000000000000E+000  0.000000000000000E+000        
  0.276000000000000       0.000000000000000E+000  0.000000000000000E+000        
  0.000000000000000E+000   1.00000000000000       0.000000000000000E+000        
  0.000000000000000E+000  0.000000000000000E+000  0.000000000000000E+000        
   14.0530000000000       0.000000000000000E+000  0.000000000000000E+000        
  0.000000000000000E+000  0.000000000000000E+000   1.00000000000000             
  0.000000000000000E+000  0.000000000000000E+000  0.000000000000000E+000        
   39.0810000000000       0.000000000000000E+000  0.000000000000000E+000        
  0.000000000000000E+000  0.000000000000000E+000  0.000000000000000E+000        
   1.00000000000000       0.000000000000000E+000  0.000000000000000E+000        
   108.685000000000       0.000000000000000E+000  0.000000000000000E+000        
  0.000000000000000E+000  0.000000000000000E+000  0.000000000000000E+000        
  0.000000000000000E+000   1.00000000000000       0.000000000000000E+000        
  9.710000000000001E-002  0.000000000000000E+000  0.000000000000000E+000        
  0.000000000000000E+000  0.000000000000000E+000  0.000000000000000E+000        
  0.000000000000000E+000  0.000000000000000E+000   1.00000000000000             
    6    6                                                                      
   2.94200000000000        1.00000000000000       0.000000000000000E+000        
  0.000000000000000E+000  0.000000000000000E+000  0.000000000000000E+000        
  0.000000000000000E+000                                                        
   1.20400000000000       0.000000000000000E+000   1.00000000000000             
  0.000000000000000E+000  0.000000000000000E+000  0.000000000000000E+000        
  0.000000000000000E+000                                                        
  0.493000000000000       0.000000000000000E+000  0.000000000000000E+000        
   1.00000000000000       0.000000000000000E+000  0.000000000000000E+000        
  0.000000000000000E+000                                                        
   14.3570000000000       0.000000000000000E+000  0.000000000000000E+000        
  0.000000000000000E+000   1.00000000000000       0.000000000000000E+000        
  0.000000000000000E+000                                                        
   52.6900000000000       0.000000000000000E+000  0.000000000000000E+000        
  0.000000000000000E+000  0.000000000000000E+000   1.00000000000000             
  0.000000000000000E+000                                                        
  0.192000000000000       0.000000000000000E+000  0.000000000000000E+000        
  0.000000000000000E+000  0.000000000000000E+000  0.000000000000000E+000        
   1.00000000000000                                                             
    4    4                                                                      
   2.51100000000000        1.00000000000000       0.000000000000000E+000        
  0.000000000000000E+000  0.000000000000000E+000                                
  0.942000000000000       0.000000000000000E+000   1.00000000000000             
  0.000000000000000E+000  0.000000000000000E+000                                
   41.1200000000000       0.000000000000000E+000  0.000000000000000E+000        
   1.00000000000000       0.000000000000000E+000                                
  0.436000000000000       0.000000000000000E+000  0.000000000000000E+000        
  0.000000000000000E+000   1.00000000000000                                     
    2    2                                                                      
   1.76800000000000        1.00000000000000       0.000000000000000E+000        
  0.788000000000000       0.000000000000000E+000   1.00000000000000             
FINISH                                                                          
 
********************************************************************************
 ONE- AND TWO-ELECTRON INTEGRALS OVER SYMMETRY-ADAPTED AOS ARE CALCULATED.

  SPHERICAL HARMONICS ARE USED.
  
  INTEGRALS LESS THAN  0.10E-13 ARE NEGLECTED.

  NUCLEAR REPULSION ENERGY :    0.0000000000 A.U.
  @MOLECU-I, ONE ELECTRON INTEGRALS (CPU/WALL):        0.08/       0.09 SECONDS.
  @TWOEL-I,     354701 INTEGRALS OF SYMMETRY TYPE  I I I I
  @TWOEL-I,    3162072 INTEGRALS OF SYMMETRY TYPE  I J I J
  @TWOEL-I,    1814712 INTEGRALS OF SYMMETRY TYPE  I I J J
  @TWOEL-I,    7384599 INTEGRALS OF SYMMETRY TYPE  I J K L
  @TWOEL-I, TOTAL NUMBER OF 2-E INTEGRALS   12716084.
  @MOLECU-I, TWO ELECTRON INTEGRALS (CPU/WALL):       34.30/      34.32 SECONDS.
 @CHECKOUT-I, Total execution time (CPU/WALL):       34.41/      34.65 seconds.

OMP_NUM_THREADS not specified; defaulting to 1
Running with 1 threads/proc

--executable xvmol finished with status     0 in       34.70 seconds (walltime).
 --invoking executable--
/cvmfs/restricted.computecanada.ca/easybuild/software/2020/avx2/Compiler/intel2020/cfour/2.1/bin/xvmol2ja
 @GETMEM-I,  Allocated   19073 MB of main memory.
 @CHECKOUT-I, Total execution time (CPU/WALL):        0.13/       0.04 seconds.
--executable xvmol2ja finished with status     0 in        0.08 seconds (walltime).
 --invoking executable--
/cvmfs/restricted.computecanada.ca/easybuild/software/2020/avx2/Compiler/intel2020/cfour/2.1/bin/xvscf
  There are  181 functions in the AO basis.

  There are 8 irreducible representations.

       Irrep        # of functions
         1                 39
         2                 28
         3                 28
         4                 16
         5                 28
         6                 16
         7                 16
         8                 10


  Parameters for SCF calculation: 
        SCF reference function: ROHF  
  Maximum number of iterations: 9999
     Full symmetry point group: I h 
     Computational point group: D2h 
        Initial density matrix: MOREAD                 
     SCF convergence tolerance: 10**(-10)
  DIIS convergence acceleration:  ON
          Latest start for DIIS:   5
                     DIIS order:   6

     Alpha population by irrep:   2    1    0    0    0    0    0    0
      Beta population by irrep:   2    0    0    0    0    0    0    0


  Memory information:    2018302 words required.
  Fock matrices are constructed from AO integral file.
 @GETMEM-I,  Allocated      15 MB of main memory.
  Initialization and symmetry analysis required      0.003 seconds.

 total no. of electrons in initial guess :  0.000000000000000E+000
 total no. of electrons in initial guess :  0.000000000000000E+000
  --------------------------------------------------------------------
  Iteration         Total Energy            Largest Density Difference
  --------------------------------------------------------------------
       0             0.000000000000000              0.0000000000D+00
   current occupation vector 
     2  1  0  0  0  0  0  0
     2  0  0  0  0  0  0  0
       1           -51.034885413509024              0.1074926886D+02
   current occupation vector 
     2  1  0  0  0  0  0  0
     2  0  0  0  0  0  0  0
       2           -52.774579727031671              0.9369734629D+01
   current occupation vector 
     2  1  0  0  0  0  0  0
     2  0  0  0  0  0  0  0
       3           -52.814929214414960              0.2931916041D+00
   current occupation vector 
     2  1  0  0  0  0  0  0
     2  0  0  0  0  0  0  0
       4           -52.815726302209647              0.5293959013D-01
   current occupation vector 
     2  1  0  0  0  0  0  0
     2  0  0  0  0  0  0  0
       5           -52.815750799065597              0.1339605970D-01
   current occupation vector 
     2  1  0  0  0  0  0  0
     2  0  0  0  0  0  0  0
       6           -52.815751290428388              0.1760080488D-02
   current occupation vector 
     2  1  0  0  0  0  0  0
     2  0  0  0  0  0  0  0
       7           -52.815751299882585              0.1796608346D-03
   current occupation vector 
     2  1  0  0  0  0  0  0
     2  0  0  0  0  0  0  0
       8           -52.815751299987667              0.1788564260D-04
   current occupation vector 
     2  1  0  0  0  0  0  0
     2  0  0  0  0  0  0  0
       9           -52.815751299988278              0.1960313575D-05
   current occupation vector 
     2  1  0  0  0  0  0  0
     2  0  0  0  0  0  0  0
      10           -52.815751299988392              0.1655499686D-06
   current occupation vector 
     2  1  0  0  0  0  0  0
     2  0  0  0  0  0  0  0
      11           -52.815751299988420              0.5978576523D-08
   current occupation vector 
     2  1  0  0  0  0  0  0
     2  0  0  0  0  0  0  0
      12           -52.815751299988449              0.1300010766D-08
   current occupation vector 
     2  1  0  0  0  0  0  0
     2  0  0  0  0  0  0  0

  SCF has converged.

 Density matrix saved to file den.dat
 total alpha spin electron number:   3.00000000000001     
 total  beta spin electron number:   2.00000000000000     
     E(ROHF)=       -52.815751299988527              0.3486100297D-10

  Eigenvector printing suppressed.


       The average multiplicity is    2.0000000
  The expectation value of S**2 is    0.7500000

 @PUTMOS-I, Writing converged MOs to NEWMOS. 
 @PUTMOS-I, Symmetry   1 Full Blocks  9 Partial Blocksize   3
 @PUTMOS-I, Symmetry   2 Full Blocks  7 Partial Blocksize   0
 @PUTMOS-I, Symmetry   3 Full Blocks  7 Partial Blocksize   0
 @PUTMOS-I, Symmetry   4 Full Blocks  4 Partial Blocksize   0
 @PUTMOS-I, Symmetry   5 Full Blocks  7 Partial Blocksize   0
 @PUTMOS-I, Symmetry   6 Full Blocks  4 Partial Blocksize   0
 @PUTMOS-I, Symmetry   7 Full Blocks  4 Partial Blocksize   0
 @PUTMOS-I, Symmetry   8 Full Blocks  2 Partial Blocksize   2
 @PUTFOCK-I, Writing converged Fock matrix to NEWFOCK. 
 @PUTFOCK-I, Symmetry   1 Full Blocks  9 Partial Blocksize   3
 @PUTFOCK-I, Symmetry   2 Full Blocks  7 Partial Blocksize   0
 @PUTFOCK-I, Symmetry   3 Full Blocks  7 Partial Blocksize   0
 @PUTFOCK-I, Symmetry   4 Full Blocks  4 Partial Blocksize   0
 @PUTFOCK-I, Symmetry   5 Full Blocks  7 Partial Blocksize   0
 @PUTFOCK-I, Symmetry   6 Full Blocks  4 Partial Blocksize   0
 @PUTFOCK-I, Symmetry   7 Full Blocks  4 Partial Blocksize   0
 @PUTFOCK-I, Symmetry   8 Full Blocks  2 Partial Blocksize   2
  @DMPJOB-I, Rotating orbitals to semicanonical basis.
             *** Eigenvalues correspond to new basis. ***

  @PRJDEN-I, Basis set contains h and/or higher angular momentum functions.
             Analysis of density matrix symmetry not available.
             Check irreps of the molecular orbitals in the full point group
             for presence of an asymmetric solution.

 
  ORBITAL EIGENVALUES (ALPHA)  (1H = 27.2113834 eV)

       MO #        E(hartree)               E(eV)           FULLSYM    COMPSYM
       ----   --------------------   --------------------   -------   ---------
    1     1         -17.1400015915        -466.4031547838      Ag        Ag (1)
    2     2          -2.1529791603         -58.5855413843      Ag        Ag (1)
    3    40          -1.7557704065         -47.7769416934      Au       B2u (2)
  +++++++++++++++++++++++++++++++++++++++++++++++++++++++++++++++++++++++++++++
    4    68          -1.0385333163         -28.2599282435       u       B3u (3)
    5   112          -1.0385333163         -28.2599282435       u       B1u (5)
    6     3          -0.3986105515         -10.8467445439      Ag        Ag (1)
    7    41          -0.3166921906          -8.6176326185      Au       B2u (2)
    8    69          -0.3065937027          -8.3428387917       u       B3u (3)
    9   113          -0.3065937027          -8.3428387917       u       B1u (5)
   10     4          -0.2092762273          -5.6946956581       g        Ag (1)
   11   156          -0.2092762273          -5.6946956581       g       B2g (7)
   12    96          -0.2070065474          -5.6329345280       g       B1g (4)
   13   140          -0.2070065474          -5.6329345280       g       B3g (6)
   14     5          -0.2061244467          -5.6089313482      Ag        Ag (1)
   15    42          -0.1143561943          -3.1117902464      Au       B2u (2)
   16   114          -0.1037943302          -2.8243873136       u       B1u (5)
   17    70          -0.1037943302          -2.8243873136       u       B3u (3)
   18     6          -0.0508814464          -1.3845545451      Ag        Ag (1)
   19    71           0.1963573301           5.3431545929       u       B3u (3)
   20   115           0.1963573301           5.3431545929       u       B1u (5)
   21   172           0.2017792388           5.4906922292       u        Au (8)
   22    43           0.2017792388           5.4906922292       u       B2u (2)
   23   116           0.2050790897           5.5804857377       u       B1u (5)
   24    72           0.2050790897           5.5804857377       u       B3u (3)
   25    44           0.2061868911           5.6106305468      Au       B2u (2)
   26     7           0.2187802864           5.9533142527      Ag        Ag (1)
   27    97           0.2199366836           5.9847814220       g       B1g (4)
   28   141           0.2199366836           5.9847814220       g       B3g (6)
   29     8           0.2242311794           6.1016405929       g        Ag (1)
   30   157           0.2242311794           6.1016405929       g       B2g (7)
   31    45           0.5098435955          13.8735495521      Au       B2u (2)
   32    73           0.5406494392          14.7118191757       u       B3u (3)
   33   117           0.5406494392          14.7118191757       u       B1u (5)
   34     9           1.2342181155          33.5847823414      Ag        Ag (1)
   35    10           1.3948544541          37.9559193376       g        Ag (1)
   36   158           1.3948544541          37.9559193376       g       B2g (7)
   37    98           1.4038279485          38.2001005351       g       B1g (4)
   38   142           1.4038279485          38.2001005351       g       B3g (6)
   39    11           1.4102528953          38.3749322253       g        Ag (1)
   40   159           1.4102528953          38.3749322253       g       B2g (7)
   41    99           1.4140981943          38.4795681301       g       B1g (4)
   42   143           1.4140981943          38.4795681301       g       B3g (6)
   43    12           1.4153766945          38.5143578899      Ag        Ag (1)
   44   118           1.4506179847          39.4733221478       u       B1u (5)
   45    74           1.4506179847          39.4733221478       u       B3u (3)
   46    46           1.4618545898          39.7790857187       u       B2u (2)
   47   173           1.4618545898          39.7790857187       u        Au (8)
   48    75           1.4686543348          39.9641161862       u       B3u (3)
   49   119           1.4686543348          39.9641161862       u       B1u (5)
   50    47           1.4709290828          40.0260152268      Au       B2u (2)
   51    13           1.5200089554          41.3615464575      Ag        Ag (1)
   52   100           1.5233758394          41.4531640292       g       B1g (4)
   53   144           1.5233758394          41.4531640292       g       B3g (6)
   54   160           1.5357332263          41.7894256222       g       B2g (7)
   55    14           1.5357332263          41.7894256222       g        Ag (1)
   56    48           2.6661806058          72.5504626780      Au       B2u (2)
   57    76           2.6890068393          73.1715960693       u       B3u (3)
   58   120           2.6890068393          73.1715960693       u       B1u (5)
   59    77           3.8135620981         103.7723003715       u       B3u (3)
   60   121           3.8135620981         103.7723003715       u       B1u (5)
   61   174           3.8264501378         104.1230017593                Au (8)
   62    49           3.8264501378         104.1230017594               B2u (2)
   63   122           3.8365145572         104.3968685355       u       B1u (5)
   64    78           3.8365145572         104.3968685355       u       B3u (3)
   65    50           3.8437252610         104.5930817604       u       B2u (2)
   66   175           3.8437252610         104.5930817604       u        Au (8)
   67    79           3.8480604726         104.7110488668       u       B3u (3)
   68   123           3.8480604726         104.7110488668       u       B1u (5)
   69    51           3.8495070137         104.7504112500      Au       B2u (2)
   70   161           4.6171097482         125.6379435579       g       B2g (7)
   71    15           4.6171097482         125.6379435579       g        Ag (1)
   72   101           4.6359429745         126.1504217000       g       B1g (4)
   73   145           4.6359429745         126.1504217000       g       B3g (6)
   74   162           4.6493998332         126.5166014403       g       B2g (7)
   75    16           4.6493998332         126.5166014403       g        Ag (1)
   76   102           4.6574687021         126.7361665254       g       B1g (4)
   77   146           4.6574687021         126.7361665254       g       B3g (6)
   78    17           4.6601567440         126.8093118649      Ag        Ag (1)
   79    80           4.6787779148         127.3160196825       u       B3u (3)
   80   124           4.6787779148         127.3160196825       u       B1u (5)
   81    52           4.6976076864         127.8284038164       u       B2u (2)
   82   176           4.6976076864         127.8284038164       u        Au (8)
   83   125           4.7089451641         128.1369122705       u       B1u (5)
   84    81           4.7089451641         128.1369122705       u       B3u (3)
   85    53           4.7127313248         128.2399389395      Au       B2u (2)
   86    18           5.2622054443         143.1918898745       g        Ag (1)
   87   163           5.2622054443         143.1918898745       g       B2g (7)
   88   103           5.2651012275         143.2706881421       g       B1g (4)
   89   147           5.2651012275         143.2706881421       g       B3g (6)
   90    19           5.2661291093         143.2986582280      Ag        Ag (1)
   91    20           6.0055992671         163.4206642050      Ag        Ag (1)
   92   126           9.0087401091         245.1402810584       u       B1u (5)
   93    82           9.0087401091         245.1402810584       u       B3u (3)
   94    54           9.0247638084         245.5763080841      Au       B2u (2)
   95   127          11.1748714234         304.0837107486       u       B1u (5)
   96    83          11.1748714234         304.0837107486       u       B3u (3)
   97   177          11.2000504850         304.7688678471                Au (8)
   98    55          11.2000504850         304.7688678471               B2u (2)
   99   128          11.2196911557         305.3033176679       u       B1u (5)
  100    84          11.2196911557         305.3033176679       u       B3u (3)
  101    56          11.2337509232         305.6859033920       u       B2u (2)
  102   178          11.2337509232         305.6859033920       u        Au (8)
  103    85          11.2421991282         305.9157907379       u       B3u (3)
  104   129          11.2421991282         305.9157907379       u       B1u (5)
  105    57          11.2450172597         305.9924759937      Au       B2u (2)
  106    86          13.1352648296         357.4287273383       u       B3u (3)
  107   130          13.1352648296         357.4287273383       u       B1u (5)
  108    58          13.1652209951         358.2438760428       u       B2u (2)
  109   179          13.1652209951         358.2438760428       u        Au (8)
  110    87          13.1832428103         358.7342745662       u       B3u (3)
  111   131          13.1832428103         358.7342745662       u       B1u (5)
  112    59          13.1892585135         358.8979701738      Au       B2u (2)
  113    21          13.3196429739         362.4459117136       g        Ag (1)
  114   164          13.3196429739         362.4459117136       g       B2g (7)
  115   104          13.3502904770         363.2798726718       g       B1g (4)
  116   148          13.3502904770         363.2798726718       g       B3g (6)
  117   165          13.3722263157         363.8767771886       g       B2g (7)
  118    22          13.3722263157         363.8767771886       g        Ag (1)
  119   149          13.3854048984         364.2353846545       g       B3g (6)
  120   105          13.3854048984         364.2353846545       g       B1g (4)
  121    23          13.3898005283         364.3549958240      Ag        Ag (1)
  122    24          15.7524972259         428.6472415225       g        Ag (1)
  123   166          15.7524972259         428.6472415225       g       B2g (7)
  124   106          15.7802603634         429.4027149005       g       B1g (4)
  125   150          15.7802603634         429.4027149005       g       B3g (6)
  126    25          15.7895792225         429.6562939485      Ag        Ag (1)
  127    26          20.8181760909         566.4913712972      Ag        Ag (1)
  128   132          27.7314313613         754.6106110039       u       B1u (5)
  129    88          27.7314313613         754.6106110039       u       B3u (3)
  130    60          27.7726176048         755.7313456645      Au       B2u (2)
  131   167          48.6481574957        1323.7836653193       g       B2g (7)
  132    27          48.6481574957        1323.7836653193       g        Ag (1)
  133   107          48.6828279749        1324.7270970203       g       B1g (4)
  134   151          48.6828279749        1324.7270970203       g       B3g (6)
  135    28          48.6943707169        1325.0411909999      Ag        Ag (1)
  136   133          56.9738028925        1550.3359942641       u       B1u (5)
  137    89          56.9738028925        1550.3359942641       u       B3u (3)
  138   180          57.0039484659        1551.1562970207       u        Au (8)
  139    61          57.0039484659        1551.1562970207       u       B2u (2)
  140   134          57.0220388449        1551.6485612580       u       B1u (5)
  141    90          57.0220388449        1551.6485612580       u       B3u (3)
  142    62          57.0280694725        1551.8126629777      Au       B2u (2)
  143    29          62.1170080126        1690.2897206911      Ag        Ag (1)
  144    91          80.9748263128        2203.4370445460       u       B3u (3)
  145   135          80.9748263128        2203.4370445461       u       B1u (5)
  146    63          81.0147676300        2204.5239030411      Au       B2u (2)
  147    30         148.8356182233        4050.0230710494       g        Ag (1)
  148   168         148.8356182233        4050.0230710494       g       B2g (7)
  149   152         148.8609416670        4050.7121569849       g       B3g (6)
  150   108         148.8609416670        4050.7121569849       g       B1g (4)
  151    31         148.8693662724        4050.9414021542      Ag        Ag (1)
  152    32         168.6760832645        4589.9095721196      Ag        Ag (1)
  153    33         207.4739539094        5645.6533053436       g        Ag (1)
  154   169         207.4739539094        5645.6533053436       g       B2g (7)
  155   109         207.4924877716        5646.1576373734       g       B1g (4)
  156   153         207.4924877716        5646.1576373734       g       B3g (6)
  157    34         207.5057279065        5646.5179197605       g        Ag (1)
  158   170         207.5057279065        5646.5179197605       g       B2g (7)
  159   154         207.5136726524        5646.7341072860       g       B3g (6)
  160   110         207.5136726524        5646.7341072860       g       B1g (4)
  161    35         207.5163210118        5646.8061728104      Ag        Ag (1)
  162    92         227.9806531365        6203.6689602797       u       B3u (3)
  163   136         227.9806531365        6203.6689602797       u       B1u (5)
  164    64         228.0068898703        6204.3828981010      Au       B2u (2)
  165    93         234.6837326904        6386.0690279827       u       B3u (3)
  166   137         234.6837326904        6386.0690279827       u       B1u (5)
  167   181         234.7008065395        6386.5336310344       u        Au (8)
  168    65         234.7008065395        6386.5336310344       u       B2u (2)
  169    94         234.7110601162        6386.8126450429       u       B3u (3)
  170   138         234.7110601162        6386.8126450430       u       B1u (5)
  171    66         234.7144795636        6386.9056929376      Au       B2u (2)
  172    36         446.5065012283       12150.0595955154      Ag        Ag (1)
  173   171         455.1769362184       12385.9941262772       g       B2g (7)
  174    37         455.1769362184       12385.9941262772       g        Ag (1)
  175   111         455.1896633436       12386.3404489589       g       B1g (4)
  176   155         455.1896633436       12386.3404489589       g       B3g (6)
  177    38         455.1939197295       12386.4562711088      Ag        Ag (1)
  178    95         642.2391283397       17476.2151557331       u       B3u (3)
  179   139         642.2391283397       17476.2151557331       u       B1u (5)
  180    67         642.2519324772       17476.5635740292      Au       B2u (2)
  181    39        1566.8856922300       42637.1273152451      Ag        Ag (1)


 
  ORBITAL EIGENVALUES ( BETA)  (1H = 27.2113834 eV)

       MO #        E(hartree)               E(eV)           FULLSYM    COMPSYM
       ----   --------------------   --------------------   -------   ---------
    1     1         -17.0956920367        -465.1974304997      Ag        Ag (1)
    2     2          -1.9910959826         -54.1804761681      Ag        Ag (1)
  +++++++++++++++++++++++++++++++++++++++++++++++++++++++++++++++++++++++++++++
    3    68          -0.9972510238         -27.1365799558       u       B3u (3)
    4   112          -0.9972510238         -27.1365799558       u       B1u (5)
    5    40          -0.9153446955         -24.9077954527      Au       B2u (2)
    6     3          -0.3918511211         -10.6628110926      Ag        Ag (1)
    7    69          -0.3038719377          -8.2687758020       u       B3u (3)
    8   113          -0.3038719377          -8.2687758020       u       B1u (5)
    9    41          -0.2925386439          -7.9603811977      Au       B2u (2)
   10     4          -0.2082996231          -5.6681209050       g        Ag (1)
   11   156          -0.2082996231          -5.6681209050       g       B2g (7)
   12   140          -0.1999236565          -5.4401992677       g       B3g (6)
   13    96          -0.1999236565          -5.4401992677       g       B1g (4)
   14     5          -0.1971851665          -5.3656811670      Ag        Ag (1)
   15   114          -0.1008903037          -2.7453647340       u       B1u (5)
   16    70          -0.1008903037          -2.7453647340       u       B3u (3)
   17    42          -0.0887325806          -2.4145362707      Au       B2u (2)
   18     6          -0.0413660853          -1.1256284071      Ag        Ag (1)
   19    71           0.1966462987           5.3510178276       u       B3u (3)
   20   115           0.1966462987           5.3510178276       u       B1u (5)
   21   172           0.2032782666           5.5314828492       u        Au (8)
   22    43           0.2032782666           5.5314828492       u       B2u (2)
   23    72           0.2073008012           5.6409415799       u       B3u (3)
   24   116           0.2073008012           5.6409415799       u       B1u (5)
   25    44           0.2086520556           5.6777110834      Au       B2u (2)
   26     7           0.2282831674           6.2119007926       g        Ag (1)
   27   157           0.2282831674           6.2119007926       g       B2g (7)
   28   141           0.2493334791           6.7847088956       g       B3g (6)
   29    97           0.2493334791           6.7847088956       g       B1g (4)
   30     8           0.2562506839           6.9729356067      Ag        Ag (1)
   31    73           0.5498724717          14.9627906488       u       B3u (3)
   32   117           0.5498724717          14.9627906488       u       B1u (5)
   33    45           0.5863370611          15.9550425717      Au       B2u (2)
   34     9           1.2633120485          34.3764685053      Ag        Ag (1)
   35    10           1.3953687589          37.9699142839       g        Ag (1)
   36   158           1.3953687589          37.9699142839       g       B2g (7)
   37    98           1.4060882941          38.2616076657       g       B1g (4)
   38   142           1.4060882941          38.2616076657       g       B3g (6)
   39    11           1.4138169541          38.4719151943       g        Ag (1)
   40   159           1.4138169541          38.4719151943       g       B2g (7)
   41   143           1.4184845373          38.5989265925       g       B3g (6)
   42    99           1.4184845373          38.5989265925       g       B1g (4)
   43    12           1.4200457046          38.6414081141      Ag        Ag (1)
   44   118           1.4530366717          39.5391379680       u       B1u (5)
   45    74           1.4530366717          39.5391379680       u       B3u (3)
   46    46           1.4742146879          40.1154210856       u       B2u (2)
   47   173           1.4742146879          40.1154210856       u        Au (8)
   48    75           1.4870612056          40.4649926062       u       B3u (3)
   49   119           1.4870612056          40.4649926062       u       B1u (5)
   50    47           1.4913751220          40.5823802369      Au       B2u (2)
   51    13           1.5456560984          42.0594406987       g        Ag (1)
   52   160           1.5456560984          42.0594406987       g       B2g (7)
   53   100           1.5896366167          43.2562114449       g       B1g (4)
   54   144           1.5896366167          43.2562114449       g       B3g (6)
   55    14           1.6043102966          43.6555025736      Ag        Ag (1)
   56    76           2.7043800684          73.5899229019       u       B3u (3)
   57   120           2.7043800684          73.5899229019       u       B1u (5)
   58    48           2.7711130974          75.4058209393      Au       B2u (2)
   59    77           3.8143757987         103.7944422905       u       B3u (3)
   60   121           3.8143757987         103.7944422905       u       B1u (5)
   61   174           3.8297234166         104.2120722053                Au (8)
   62    49           3.8297234166         104.2120722053               B2u (2)
   63   122           3.8417173157         104.5384427916       u       B1u (5)
   64    78           3.8417173157         104.5384427916       u       B3u (3)
   65    50           3.8503156874         104.7724163816       u       B2u (2)
   66   175           3.8503156874         104.7724163816       u        Au (8)
   67    79           3.8554874674         104.9131476701       u       B3u (3)
   68   123           3.8554874674         104.9131476701       u       B1u (5)
   69    51           3.8572135440         104.9601166011      Au       B2u (2)
   70   161           4.6197203454         125.7089815194       g       B2g (7)
   71    15           4.6197203454         125.7089815194       g        Ag (1)
   72   101           4.6472256173         126.4574380185       g       B1g (4)
   73   145           4.6472256173         126.4574380185       g       B3g (6)
   74   162           4.6670499082         126.9968843977       g       B2g (7)
   75    16           4.6670499082         126.9968843977       g        Ag (1)
   76   102           4.6790255542         127.3227582948       g       B1g (4)
   77   146           4.6790255542         127.3227582948       g       B3g (6)
   78    17           4.6830317507         127.4317724433      Ag        Ag (1)
   79   124           4.6850961803         127.4879484275       u       B1u (5)
   80    80           4.6850961803         127.4879484275       u       B3u (3)
   81    52           4.7284905270         128.6687686336       u       B2u (2)
   82   176           4.7284905270         128.6687686336       u        Au (8)
   83   125           4.7548233524         129.3853212407       u       B1u (5)
   84    81           4.7548233524         129.3853212407       u       B3u (3)
   85    53           4.7636590736         129.6257534374      Au       B2u (2)
   86    18           5.2749904516         143.5397876085       g        Ag (1)
   87   163           5.2749904516         143.5397876085       g       B2g (7)
   88   103           5.3402854766         145.3165555691       g       B1g (4)
   89   147           5.3402854766         145.3165555691       g       B3g (6)
   90    19           5.3622006960         145.9128990060      Ag        Ag (1)
   91    20           6.0427713919         164.4321691448      Ag        Ag (1)
   92    82           9.0244663923         245.5682149810       u       B3u (3)
   93   126           9.0244663923         245.5682149811       u       B1u (5)
   94    54           9.1099851812         247.8952995335      Au       B2u (2)
   95   127          11.1775279649         304.1559989175       u       B1u (5)
   96    83          11.1775279649         304.1559989175       u       B3u (3)
   97   177          11.2107202554         305.0592070586                Au (8)
   98    55          11.2107202554         305.0592070586               B2u (2)
   99   128          11.2366433531         305.7646104090       u       B1u (5)
  100    84          11.2366433531         305.7646104090       u       B3u (3)
  101    56          11.2552185014         306.2700658917       u       B2u (2)
  102   178          11.2552185014         306.2700658917       u        Au (8)
  103    85          11.2663874547         306.5739885615       u       B3u (3)
  104   129          11.2663874547         306.5739885615       u       B1u (5)
  105    57          11.2701144576         306.6754054667      Au       B2u (2)
  106    86          13.1430978621         357.6418749885       u       B3u (3)
  107   130          13.1430978621         357.6418749885       u       B1u (5)
  108    58          13.2019123309         359.2422980495       u       B2u (2)
  109   179          13.2019123309         359.2422980495       u        Au (8)
  110    87          13.2374497309         360.2093198652       u       B3u (3)
  111   131          13.2374497309         360.2093198652       u       B1u (5)
  112    59          13.2493405973         360.5328867906      Au       B2u (2)
  113    21          13.3246611203         362.5824624184       g        Ag (1)
  114   164          13.3246611203         362.5824624184       g       B2g (7)
  115   104          13.3718264301         363.8658957483       g       B1g (4)
  116   148          13.3718264301         363.8658957483       g       B3g (6)
  117    22          13.4057171024         364.7881078265       g        Ag (1)
  118   165          13.4057171024         364.7881078265       g       B2g (7)
  119   149          13.4261354788         365.3437200932       g       B3g (6)
  120   105          13.4261354788         365.3437200932       g       B1g (4)
  121    23          13.4329559653         365.5293149684      Ag        Ag (1)
  122   166          15.7628874475         428.9299738249       g       B2g (7)
  123    24          15.7628874475         428.9299738249       g        Ag (1)
  124   106          15.8335403594         430.8525372990       g       B1g (4)
  125   150          15.8335403594         430.8525372990       g       B3g (6)
  126    25          15.8572553457         431.4978548848      Ag        Ag (1)
  127    26          20.8434047378         567.1778776818      Ag        Ag (1)
  128    88          27.7418627118         754.8944624804       u       B3u (3)
  129   132          27.7418627118         754.8944624805       u       B1u (5)
  130    60          27.8204859178         757.0339086848      Au       B2u (2)
  131   167          48.6536295491        1323.9325674628       g       B2g (7)
  132    27          48.6536295491        1323.9325674628       g        Ag (1)
  133   107          48.7081437129        1325.4159732750       g       B1g (4)
  134   151          48.7081437129        1325.4159732750       g       B3g (6)
  135    28          48.7262892574        1325.9097386425      Ag        Ag (1)
  136   133          56.9780049300        1550.4503375176       u       B1u (5)
  137    89          56.9780049300        1550.4503375176       u       B3u (3)
  138   180          57.0234244105        1551.6862644164       u        Au (8)
  139    61          57.0234244105        1551.6862644164       u       B2u (2)
  140   134          57.0506917168        1552.4282455411       u       B1u (5)
  141    90          57.0506917168        1552.4282455411       u       B3u (3)
  142    62          57.0597834953        1552.6756454121      Au       B2u (2)
  143    29          62.1289443020        1690.6145236378      Ag        Ag (1)
  144    91          80.9797324466        2203.5705472351       u       B3u (3)
  145   135          80.9797324467        2203.5705472352       u       B1u (5)
  146    63          81.0348037673        2205.0691140564      Au       B2u (2)
  147    30         148.8376508433        4050.0783814518       g        Ag (1)
  148   168         148.8376508433        4050.0783814518       g       B2g (7)
  149   152         148.8694840137        4050.9446060560       g       B3g (6)
  150   108         148.8694840137        4050.9446060560       g       B1g (4)
  151    31         148.8800711018        4051.2326953706      Ag        Ag (1)
  152    32         168.6807780443        4590.0373235749      Ag        Ag (1)
  153   169         207.4750366155        5645.6827672723       g       B2g (7)
  154    33         207.4750366155        5645.6827672723       g        Ag (1)
  155   109         207.4972500398        5646.2872252798       g       B1g (4)
  156   153         207.4972500398        5646.2872252799       g       B3g (6)
  157    34         207.5131194324        5646.7190534048       g        Ag (1)
  158   170         207.5131194324        5646.7190534048       g       B2g (7)
  159   154         207.5226421331        5646.9781792657       g       B1g (6)
  160   110         207.5226421331        5646.9781792657       g       B3g (4)
  161    35         207.5258165443        5647.0645593861      Ag        Ag (1)
  162    92         227.9824559544        6203.7180174490       u       B3u (3)
  163   136         227.9824559544        6203.7180174490       u       B1u (5)
  164    64         228.0137294357        6204.5690121389      Au       B2u (2)
  165    93         234.6847608652        6386.0970060402       u       B3u (3)
  166   137         234.6847608652        6386.0970060402       u       B1u (5)
  167   181         234.7052476773        6386.6544805396       u        Au (8)
  168    65         234.7052476773        6386.6544805397       u       B2u (2)
  169    94         234.7175533232        6386.9893341883       u       B3u (3)
  170   138         234.7175533232        6386.9893341883       u       B1u (5)
  171    66         234.7216575406        6387.1010156214      Au       B2u (2)
  172    36         446.5080713598       12150.1023209663      Ag        Ag (1)
  173   171         455.1775028350       12386.0095446988       g       B2g (7)
  174    37         455.1775028350       12386.0095446988       g        Ag (1)
  175   111         455.1919065125       12386.4014886880       g       B1g (4)
  176   155         455.1919065125       12386.4014886880       g       B3g (6)
  177    38         455.1967253995       12386.5326172715      Ag        Ag (1)
  178    95         642.2396672109       17476.2298191639       u       B3u (3)
  179   139         642.2396672109       17476.2298191639       u       B1u (5)
  180    67         642.2538803862       17476.6165793277      Au       B2u (2)
  181    39        1566.8862402698       42637.1422281649      Ag        Ag (1)


  VSCF finished.

 @CHECKOUT-I, Total execution time (CPU/WALL):        7.50/       2.09 seconds.
--executable xvscf finished with status     0 in        2.12 seconds (walltime).
 --invoking executable--
/cvmfs/restricted.computecanada.ca/easybuild/software/2020/avx2/Compiler/intel2020/cfour/2.1/bin/xvtran
 @GETMEM-I,  Allocated   19073 MB of main memory.
  Full UHF integral transformation
  Transformation of IIII integrals :
  2 passes through the AO integral file were required.
      354701 AO integrals were read.
      581941 MO integrals (Spin case AAAA) were written to HF2AA.
      581941 MO integrals (Spin case BBBB) were written to HF2BB.
     1161421 MO integrals (Spin case AABB) were written to HF2AB.
  Transformation of IIJJ integrals :
  2 passes through the AO integral file were required.
     1814712 AO integrals were read.
     2447550 MO integrals (Spin case AAAA) were written to HF2AA.
     2447550 MO integrals (Spin case BBBB) were written to HF2BB.
     4895100 MO integrals (Spin case AABB) were written to HF2AB.
  Transformation of IJIJ integrals :
  2 passes through the AO integral file were required.
     3162072 AO integrals were read.
     4535270 MO integrals (Spin case AAAA) were written to HF2AA.
     4535271 MO integrals (Spin case BBBB) were written to HF2BB.
     9056532 MO integrals (Spin case AABB) were written to HF2AB.
  Transformation of IJKL integrals :
  2 passes through the AO integral file were required.
     7384599 AO integrals were read.
     9564672 MO integrals (Spin case AAAA) were written to HF2AA.
     9564671 MO integrals (Spin case BBBB) were written to HF2BB.
    19129344 MO integrals (Spin case AABB) were written to HF2AB.
  Summary of active molecular orbitals: 
------------------------------------------------------------------------
                         * Spin case alpha *
 
  Index      Eigenvalue    Symmetry    Index      Eigenvalue    Symmetry
------------------------------------------------------------------------
     1       -17.1400016        1        92       227.9806531        3
     2        -2.1529792        1        93       234.6837327        3
     3        -1.7557704        2        94       234.7110601        3
     4        -0.3986106        1        95       642.2391283        3
     5        -0.2092762        1        96        -0.2070065        4
     6        -0.2061244        1        97         0.2199367        4
     7        -0.0508814        1        98         1.4038279        4
     8         0.2187803        1        99         1.4140982        4
     9         0.2242312        1       100         1.5233758        4
    10         1.2342181        1       101         4.6359430        4
    11         1.3948545        1       102         4.6574687        4
    12         1.4102529        1       103         5.2651012        4
    13         1.4153767        1       104        13.3502905        4
    14         1.5200090        1       105        13.3854049        4
    15         1.5357332        1       106        15.7802604        4
    16         4.6171097        1       107        48.6828280        4
    17         4.6493998        1       108       148.8609417        4
    18         4.6601567        1       109       207.4924878        4
    19         5.2622054        1       110       207.5136727        4
    20         5.2661291        1       111       455.1896633        4
    21         6.0055993        1       112        -1.0385333        5
    22        13.3196430        1       113        -0.3065937        5
    23        13.3722263        1       114        -0.1037943        5
    24        13.3898005        1       115         0.1963573        5
    25        15.7524972        1       116         0.2050791        5
    26        15.7895792        1       117         0.5406494        5
    27        20.8181761        1       118         1.4506180        5
    28        48.6481575        1       119         1.4686543        5
    29        48.6943707        1       120         2.6890068        5
    30        62.1170080        1       121         3.8135621        5
    31       148.8356182        1       122         3.8365146        5
    32       148.8693663        1       123         3.8480605        5
    33       168.6760833        1       124         4.6787779        5
    34       207.4739539        1       125         4.7089452        5
    35       207.5057279        1       126         9.0087401        5
    36       207.5163210        1       127        11.1748714        5
    37       446.5065012        1       128        11.2196912        5
    38       455.1769362        1       129        11.2421991        5
    39       455.1939197        1       130        13.1352648        5
    40      1566.8856922        1       131        13.1832428        5
    41        -0.3166922        2       132        27.7314314        5
    42        -0.1143562        2       133        56.9738029        5
    43         0.2017792        2       134        57.0220388        5
    44         0.2061869        2       135        80.9748263        5
    45         0.5098436        2       136       227.9806531        5
    46         1.4618546        2       137       234.6837327        5
    47         1.4709291        2       138       234.7110601        5
    48         2.6661806        2       139       642.2391283        5
    49         3.8264501        2       140        -0.2070065        6
    50         3.8437253        2       141         0.2199367        6
    51         3.8495070        2       142         1.4038279        6
    52         4.6976077        2       143         1.4140982        6
    53         4.7127313        2       144         1.5233758        6
    54         9.0247638        2       145         4.6359430        6
    55        11.2000505        2       146         4.6574687        6
    56        11.2337509        2       147         5.2651012        6
    57        11.2450173        2       148        13.3502905        6
    58        13.1652210        2       149        13.3854049        6
    59        13.1892585        2       150        15.7802604        6
    60        27.7726176        2       151        48.6828280        6
    61        57.0039485        2       152       148.8609417        6
    62        57.0280695        2       153       207.4924878        6
    63        81.0147676        2       154       207.5136727        6
    64       228.0068899        2       155       455.1896633        6
    65       234.7008065        2       156        -0.2092762        7
    66       234.7144796        2       157         0.2242312        7
    67       642.2519325        2       158         1.3948545        7
    68        -1.0385333        3       159         1.4102529        7
[...]
   5.36220069597705        6.04277139194615        13.3246611202571     
   13.4057171024440        13.4329559653462        15.7628874474985     
   15.8572553457479        20.8434047378052        48.6536295491240     
   48.7262892574019        62.1289443019589        148.837650843280     
   148.880071101810        168.680778044343        207.475036615459     
   207.513119432390        207.525816544341        446.508071359810     
   455.177502835039        455.196725399544        1566.88624026976     
 -0.915344695510107      -0.292538643871385      -8.873258059790722E-002
  0.203278266594929       0.208652055646445       0.586337061117019     
   1.47421468787209        1.49137512196181        2.77111309744398     
   3.82972341660957        3.85031568742563        3.85721354398589     
   4.72849052700484        4.76365907355506        9.10998518118230     
   11.2107202553564        11.2552185013748        11.2701144575658     
   13.2019123309056        13.2493405973098        27.8204859178465     
   57.0234244105496        57.0597834953169        81.0348037673233     
   228.013729435707        234.705247677325        234.721657540622     
   642.253880386239      -0.997251023842267      -0.303871937727222     
 -0.100890303651706       0.196646298679567       0.207300801175296     
  0.549872471708559        1.45303667170254        1.48706120564875     
   2.70438006844820        3.81437579871300        3.84171731568702     
   3.85548746742699        4.68509618028003        4.75482335237377     
   9.02446639229057        11.1775279649148        11.2366433530524     
   11.2663874546539        13.1430978620702        13.2374497308785     
   27.7418627117791        56.9780049300113        57.0506917168032     
   80.9797324466467        227.982455954407        234.684760865197     
   234.717553323227        642.239667210888      -0.199923656496766     
  0.249333479148111        1.40608829412660        1.41848453733894     
   1.58963661674560        4.64722561729518        4.67902555423873     
   5.34028547659732        13.3718264301217        13.4261354787704     
   15.8335403593991        48.7081437129373        148.869484013664     
   207.497250039843        207.522642133135        455.191906512479     
 -0.997251023842221      -0.303871937727218      -0.100890303651713     
  0.196646298679568       0.207300801175296       0.549872471708638     
   1.45303667170253        1.48706120564876        2.70438006844820     
   3.81437579871301        3.84171731568700        3.85548746742702     
   4.68509618028002        4.75482335237372        9.02446639229171     
   11.1775279649147        11.2366433530524        11.2663874546540     
   13.1430978620703        13.2374497308786        27.7418627117823     
   56.9780049300110        57.0506917168030        80.9797324466511     
   227.982455954409        234.684760865199        234.717553323228     
   642.239667210889      -0.199923656496781       0.249333479148093     
   1.40608829412661        1.41848453733893        1.58963661674565     
   4.64722561729519        4.67902555423874        5.34028547659734     
   13.3718264301217        13.4261354787704        15.8335403593993     
   48.7081437129374        148.869484013663        207.497250039844     
   207.522642133135        455.191906512479      -0.208299623052802     
  0.228283167425084        1.39536875893996        1.41381695405736     
   1.54565609842020        4.61972034539607        4.66704990815204     
   5.27499045155038        13.3246611202571        13.4057171024440     
   15.7628874474985        48.6536295491235        148.837650843281     
   207.475036615458        207.513119432391        455.177502835037     
  0.203278266594927        1.47421468787212        3.82972341660956     
   3.85031568742564        4.72849052700489        11.2107202553564     
   11.2552185013749        13.2019123309056        57.0234244105491     
   234.705247677324     
 @CHECKOUT-I, Total execution time (CPU/WALL):       37.27/     334.08 seconds.
--executable xvtran finished with status     0 in      334.13 seconds (walltime).
 --invoking executable--
/cvmfs/restricted.computecanada.ca/easybuild/software/2020/avx2/Compiler/intel2020/cfour/2.1/bin/xintprc
 @GETMEM-I,  Allocated   19073 MB of main memory.
  @GMOIAA-I, Processing MO integrals for spin case AA.
  @GMOIAA-I, Generation of integral list completed.
                      TYPE                NUMBER
                      ----               --------
                      PPPP              16004481
                      PPPH               1090997
                      PPHH                 19822
                      PHPH                 13534
                      PHHH                   586
                      HHHH                    13

                     TOTAL              17129433
  @GMOIAA-I, Processing MO integrals for spin case BB.
  @GMOIAA-I, Generation of integral list completed.
                      TYPE                NUMBER
                      ----               --------
                      PPPP              16366992
                      PPPH                745704
                      PPHH                  9357
                      PHPH                  7152
                      PHHH                   222
                      HHHH                     6

                     TOTAL              17129433
  @GMOIAB-I, Processing MO integrals for spin case AB.
                      TYPE                NUMBER
                      ----               --------
                      PPPP              32353160
                      PPPH1H             1103852
                      PPPH2H              737336
                      PPHH                 26538
                      PHPH1P                7068
                      PHPH2P               13720
                      PHHH1P                 303
                      PHHH2P                 408
                      HHHH                    12

                     TOTAL              34242397

  @FORMT2-I, Second-order MP correlation energies:
  @FORMT2-I, Singles contribution will be calculated.
            ------------------------------------------------
            E(SCF)                  =    -52.815751299989 a.u.
            E2(AA)                  =     -0.007246637414 a.u.
            E2(BB)                  =     -0.001191357600 a.u.
            E2(AB)                  =     -0.109333742129 a.u.
            E2(SINGLE)              =     -0.003561068487 a.u.
            E2(TOT)                 =     -0.117771737143 a.u.
            Total MP2 energy        =    -52.937084105619 a.u.
            ------------------------------------------------
            ----------------------------------------------
                     Projected spin multiplicities: 
            ----------------------------------------------
             <0|S^2|0>                  =    0.7500000000.
             <0|S^2 T2|0>               =   -0.0000000000.
             Projected <0|S^2 exp(T)|0> =    0.7500000000.
             Approximate spin mult.     =    2.0000000000.
            ----------------------------------------------
   Largest T2 amplitudes for spin case AA:
   i   j   a   b             i   j   a   b             i   j   a   b
-----------------------------------------------------------------------------
[  3   2 100  68]-0.01028 [  3   2 144 112]-0.01028 [  3   2 141 112] 0.01005
[  3   2  97  68] 0.01005 [  3   2  45  10] 0.00573 [  3   2  96  68]-0.00572
[  3   2 140 112]-0.00572 [  3   2  48  10]-0.00504 [  3   2 103  68] 0.00475
[  3   2 147 112] 0.00475 [  3   2  45   7]-0.00465 [  3   2  45   4]-0.00442
[  3   2  41  10] 0.00352 [  3   2  48   7] 0.00348 [  3   2  42  10] 0.00339
-----------------------------------------------------------------------------
   Norm of T2AA vector (     6288 symmetry allowed elements):  0.0301481162.
-----------------------------------------------------------------------------
   Largest T2 amplitudes for spin case BB:
   i   j   a   b             i   j   a   b             i   j   a   b
-----------------------------------------------------------------------------
[  2   1 126 112] 0.00195 [  2   1  82  68] 0.00195 [  2   1  54  40] 0.00191
[  2   1  76  68]-0.00149 [  2   1 120 112]-0.00149 [  2   1  48  40]-0.00146
[  2   1  88  68]-0.00103 [  2   1 132 112]-0.00103 [  2   1  60  40]-0.00100
[  2   1  54  45] 0.00091 [  2   1 126 117] 0.00088 [  2   1  82  73] 0.00088
[  2   1  54  48]-0.00079 [  2   1 126 120]-0.00078 [  2   1  82  76]-0.00078
-----------------------------------------------------------------------------
   Norm of T2BB vector (     2205 symmetry allowed elements):  0.0060279918.
-----------------------------------------------------------------------------
   Largest T2 amplitudes for spin case AB:
       _       _                 _       _                 _       _
   i   j   a   b             i   j   a   b             i   j   a   b
-----------------------------------------------------------------------------
[  2   2  68  68]-0.07169 [  2   2 112 112]-0.07169 [  3   2  14  40]-0.02199
[  3   2   8  40] 0.02076 [  3   2 100  68]-0.01988 [  3   2 144 112]-0.01988
[  3   2 141 112] 0.01870 [  3   2  97  68] 0.01870 [  3   2   6  40]-0.01159
[  3   2  96  68]-0.01039 [  3   2 140 112]-0.01039 [  2   2 112 113]-0.01029
[  2   2  68  69]-0.01029 [  3   2  45   9] 0.00974 [  3   2  20  40] 0.00973
-----------------------------------------------------------------------------
   Norm of T2AB vector (    26538 symmetry allowed elements):  0.1350246176.
-----------------------------------------------------------------------------
 @CHECKOUT-I, Total execution time (CPU/WALL):       13.55/      43.11 seconds.
--executable xintprc finished with status     0 in       43.23 seconds (walltime).
  calling xvcc 
 --invoking executable--
/cvmfs/restricted.computecanada.ca/easybuild/software/2020/avx2/Compiler/intel2020/cfour/2.1/bin/xvcc
 @GETMEM-I,  Allocated   19073 MB of main memory.
   CCSD(T) energy will be calculated.
   The reference state is a ROHF wave function.
   The total correlation energy is -0.121374875198 a.u.
   The total correlation energy is -0.135885797185 a.u.
  Convergence information after     1 iterations: 
  Largest element of residual vector : -0.29576826E-01.
  Largest element of DIIS residual   : -0.29576826E-01.
   The total correlation energy is -0.141427521727 a.u.
  Convergence information after     2 iterations: 
  Largest element of residual vector : -0.15284319E-01.
  Largest element of DIIS residual   : -0.27705826E-02.
   The total correlation energy is -0.146055380751 a.u.
  Convergence information after     3 iterations: 
  Largest element of residual vector : -0.13682181E-02.
  Largest element of DIIS residual   : -0.26118829E-03.
   The total correlation energy is -0.146338807540 a.u.
  Convergence information after     4 iterations: 
  Largest element of residual vector : -0.22281234E-03.
  Largest element of DIIS residual   : -0.77415774E-04.
   The total correlation energy is -0.146388181798 a.u.
  Convergence information after     5 iterations: 
  Largest element of residual vector :  0.32676012E-04.
  Largest element of DIIS residual   :  0.17711850E-04.
   The total correlation energy is -0.146380279543 a.u.
  Convergence information after     6 iterations: 
  Largest element of residual vector :  0.76776396E-05.
  Largest element of DIIS residual   :  0.41961686E-05.
   The total correlation energy is -0.146380744465 a.u.
  Convergence information after     7 iterations: 
  Largest element of residual vector :  0.19001005E-05.
  Largest element of DIIS residual   :  0.68736817E-06.
   The total correlation energy is -0.146380713382 a.u.
  Convergence information after     8 iterations: 
  Largest element of residual vector :  0.33119922E-06.
  Largest element of DIIS residual   :  0.11346537E-06.
   The total correlation energy is -0.146380694857 a.u.
  Convergence information after     9 iterations: 
  Largest element of residual vector :  0.53869827E-07.
  Largest element of DIIS residual   :  0.22234820E-07.
   The total correlation energy is -0.146380687313 a.u.
  Convergence information after    10 iterations: 
  Largest element of residual vector :  0.82888071E-08.
  Largest element of DIIS residual   : -0.55599087E-08.
   The total correlation energy is -0.146380686183 a.u.
  Convergence information after    11 iterations: 
  Largest element of residual vector : -0.23668365E-08.
  Largest element of DIIS residual   : -0.14153695E-08.
   The total correlation energy is -0.146380686258 a.u.
  Convergence information after    12 iterations: 
  Largest element of residual vector : -0.59457707E-09.
  Largest element of DIIS residual   :  0.24363179E-09.
   The total correlation energy is -0.146380686398 a.u.
  Convergence information after    13 iterations: 
  Largest element of residual vector : -0.11700338E-09.
  Largest element of DIIS residual   : -0.53329298E-10.
   The total correlation energy is -0.146380686427 a.u.
  Convergence information after    14 iterations: 
  Largest element of residual vector : -0.22600172E-10.
  Largest element of DIIS residual   : -0.15290273E-10.
  Amplitude equations converged in    14iterations.
   The total correlation energy is -0.146380686432 a.u.
   The CC iterations have converged.

            ----------------------------------------------
                     Projected spin multiplicities: 
            ----------------------------------------------
             <0|S^2|0>                  =    0.7500000000.
             <0|S^2 (T2+T1**2) |0>      =   -0.0000000000.
             <0|S^2 T1|0>               =   -0.0000000000.
             Projected <0|S^2 exp(T)|0> =    0.7500000000.
             Approximate spin mult.     =    2.0000000000.
            ----------------------------------------------
   Largest T1 amplitudes for spin case AA:
   i       a                 i       a                 i       a    
-----------------------------------------------------------------------------
[  2       4    ] 0.01189 [  2       7    ] 0.01080 [  2      14    ] 0.01033
[  2       8    ]-0.00980 [  2      10    ]-0.00901 [  2       6    ] 0.00549
[  2      20    ]-0.00453 [  3      45    ] 0.00227 [  3      41    ] 0.00183
[  3      42    ] 0.00166 [  2      21    ] 0.00119 [  3      48    ]-0.00095
[  1      20    ]-0.00089 [  1      10    ]-0.00079 [  1      21    ] 0.00068
-----------------------------------------------------------------------------
   Norm of T1AA vector (      101 symmetry allowed elements):  0.0246904826.
-----------------------------------------------------------------------------
   Largest T2 amplitudes for spin case AA:
   i   j   a   b             i   j   a   b             i   j   a   b
-----------------------------------------------------------------------------
[  3   2 141 112] 0.00986 [  3   2  97  68] 0.00986 [  3   2 100  68]-0.00943
[  3   2 144 112]-0.00943 [  3   2  45  10] 0.00695 [  3   2  48  10]-0.00587
[  3   2  96  68]-0.00580 [  3   2 140 112]-0.00580 [  3   2  45   7]-0.00563
[  3   2  45   4]-0.00532 [  3   2  41  10] 0.00435 [  3   2  42  10] 0.00417
[  3   2  48   7] 0.00408 [  3   2 103  68] 0.00403 [  3   2 147 112] 0.00403
-----------------------------------------------------------------------------
   Norm of T2AA vector (     6288 symmetry allowed elements):  0.0307645221.
-----------------------------------------------------------------------------
   Largest T1 amplitudes for spin case BB:
   i       a                 i       a                 i       a    
-----------------------------------------------------------------------------
[  2       8    ] 0.01997 [  2      14    ]-0.01986 [  2       5    ]-0.01102
[  2      19    ] 0.00785 [  1      19    ] 0.00089 [  2       3    ]-0.00089
[  2      25    ]-0.00087 [  1      14    ]-0.00074 [  1      25    ]-0.00058
[  1       8    ] 0.00038 [  2       6    ]-0.00038 [  2      17    ]-0.00037
[  2       9    ]-0.00035 [  2      20    ] 0.00034 [  1       9    ] 0.00030
-----------------------------------------------------------------------------
   Norm of T1BB vector (       74 symmetry allowed elements):  0.0313156018.
-----------------------------------------------------------------------------
   Largest T2 amplitudes for spin case BB:
   i   j   a   b             i   j   a   b             i   j   a   b
-----------------------------------------------------------------------------
[  2   1  54  40] 0.00189 [  2   1 126 112] 0.00177 [  2   1  82  68] 0.00177
[  2   1  48  40]-0.00143 [  2   1  76  68]-0.00124 [  2   1 120 112]-0.00124
[  2   1  60  40]-0.00100 [  2   1  88  68]-0.00098 [  2   1 132 112]-0.00098
[  2   1  54  45] 0.00091 [  2   1 126 117] 0.00089 [  2   1  82  73] 0.00089
[  2   1  82  76]-0.00081 [  2   1 126 120]-0.00081 [  2   1  54  48]-0.00079
-----------------------------------------------------------------------------
   Norm of T2BB vector (     2205 symmetry allowed elements):  0.0057482761.
-----------------------------------------------------------------------------
   Largest T2 amplitudes for spin case AB:
       _       _                 _       _                 _       _
   i   j   a   b             i   j   a   b             i   j   a   b
-----------------------------------------------------------------------------
[  2   2  68  68]-0.13305 [  2   2 112 112]-0.13305 [  3   2   8  40] 0.02891
[  3   2  14  40]-0.02808 [  3   2 141 112] 0.02545 [  3   2  97  68] 0.02545
[  3   2 100  68]-0.02497 [  3   2 144 112]-0.02497 [  2   2  68  69]-0.01789
[  2   2 112 113]-0.01789 [  2   2  69  68]-0.01697 [  2   2 113 112]-0.01697
[  3   2   6  40]-0.01691 [  3   2  68 100]-0.01609 [  3   2 112 144]-0.01609
-----------------------------------------------------------------------------
   Norm of T2AB vector (    26538 symmetry allowed elements):  0.2202831973.
-----------------------------------------------------------------------------
       Summary of iterative solution of CC equations 
      -----------------------------------------------------------
                       Correlation           Total
       Iteration         Energy              Energy
      -----------------------------------------------------------
            0        -0.121374875198     -52.937126175186  DIIS 
            1        -0.135885797185     -52.951637097173  DIIS 
            2        -0.141427521727     -52.957178821716  DIIS 
            3        -0.146055380751     -52.961806680740  DIIS 
            4        -0.146338807540     -52.962090107528  DIIS 
            5        -0.146388181798     -52.962139481787  DIIS 
            6        -0.146380279543     -52.962131579531  DIIS 
            7        -0.146380744465     -52.962132044454  DIIS 
            8        -0.146380713382     -52.962132013371  DIIS 
            9        -0.146380694857     -52.962131994846  DIIS 
           10        -0.146380687313     -52.962131987302  DIIS 
           11        -0.146380686183     -52.962131986172  DIIS 
           12        -0.146380686258     -52.962131986246  DIIS 
           13        -0.146380686398     -52.962131986387  DIIS 
           14        -0.146380686432     -52.962131986421  DIIS 
      -----------------------------------------------------------
      A miracle has come to pass. The CC iterations have converged.
 @TRPS2-I, E4ST A   -0.000028419832764
 @TRPS2-I, E4ST B    0.000003267848332
        E(CCSD)           =     -52.962131986421
        E(CCSD(T))        =     -52.963955814775
 @CHECKOUT-I, Total execution time (CPU/WALL):       22.33/       5.62 seconds.
--executable xvcc finished with status     0 in        5.67 seconds (walltime).
  The final electronic energy is       -52.963955814775041 a.u. 
  This computation required                          421.34 seconds (walltime).
